                               Psi4 1.4a3.dev225

  ==> Input File <==

--------------------------------------------------------------------------
#psi4
#
memory 32 gb

molecule  {
0 1
  S       -1.9906940    -0.0125100    -0.1365530
  O       -2.3617000    -0.1700640     1.4590810
  O       -2.4286150    -1.2343840    -0.7923790
  O       -2.4725380     1.3090340    -0.5392830
  C       -0.2242900    -0.0021990    -0.0874500
  C        1.8486770    -1.2201060     0.0278510
  C        1.8399080     1.2326580     0.0087760
  C        0.4429230     1.2221080    -0.0627730
  C        0.4524940    -1.2213400    -0.0491660
  C        2.5622798    -0.0149050     0.0558973
  C        2.6153160    -2.5166400     0.0331700
  C        2.5970370     2.5347130    -0.0106060
  H       -0.1225000     2.1495790    -0.1127420
  H       -0.1051200    -2.1541630    -0.0856740
  H        3.6080620     0.0137470     0.1195720
  H        2.0290960    -3.3176030     0.4912070
  H        2.8638720    -2.8264950    -0.9873940
  H        3.5515030    -2.4163920     0.5891050
  H        2.8417130     2.8282160    -1.0369270
  H        2.0062320     3.3400050     0.4339970
  H        3.5349660     2.4512730     0.5451920
  H       -2.8050090     0.6644540     1.7194690
units angstrom
no_reorient  #important for SAPT in psi4, default
symmetry c1  #important for SAPT in psi4, default
}

set PROPERTIES_ORIGIN ["COM"]
properties('MP2/aug-cc-pvtz', properties = ['dipole'])
--------------------------------------------------------------------------

    Molecular point group: c1
  Charge       = 0
  Multiplicity = 1
  Basis Set: AUG-CC-PVTZ
    Blend: AUG-CC-PVTZ
  Basis Set: (AUG-CC-PVTZ AUX)
    Blend: AUG-CC-PVTZ-JKFIT

    Orbital Energies [Eh]
    ---------------------

    Doubly Occupied:

       1A    -92.229027     2A    -20.628913     3A    -20.565288
       4A    -20.560974     5A    -11.286987     6A    -11.272091
       7A    -11.267564     8A    -11.262800     9A    -11.261866
      10A    -11.258070    11A    -11.241198    12A    -11.238982
      13A     -9.191947    14A     -6.877566    15A     -6.876267
      16A     -6.876029    17A     -1.492973    18A     -1.379316
      19A     -1.351685    20A     -1.184542    21A     -1.080753
      22A     -1.074351    23A     -0.960142    24A     -0.953554
      25A     -0.925961    26A     -0.821297    27A     -0.804742
      28A     -0.740338    29A     -0.723516    30A     -0.696255
      31A     -0.683662    32A     -0.670703    33A     -0.628045
      34A     -0.600491    35A     -0.599772    36A     -0.591504
      37A     -0.584871    38A     -0.578888    39A     -0.569928
      40A     -0.547660    41A     -0.543332    42A     -0.523603
      43A     -0.507024    44A     -0.501451    45A     -0.499628
      46A     -0.484219    47A     -0.474155    48A     -0.360969
      49A     -0.344036

  @DF-RHF Final Energy:  -931.05370277001725

   => Energetics <=

    Nuclear Repulsion Energy =            829.6308813960757789
    One-Electron Energy =               -2924.6113065023155286
    Two-Electron Energy =                1163.9267223362223831
    Total Energy =                       -931.0537027700172530
  Basis Set: (AUG-CC-PVTZ AUX)
    Blend: AUG-CC-PVTZ-RI
    Molecular point group: c1

    Geometry (in Angstrom), charge = 0, multiplicity = 1:

       Center              X                  Y                   Z               Mass
    ------------   -----------------  -----------------  -----------------  -----------------
         S           -1.901118447865    -0.007047117994    -0.127680928609    31.972071174400
         O           -2.272124447865    -0.164601117994     1.467953071391    15.994914619570
         O           -2.339039447865    -1.228921117994    -0.783506928609    15.994914619570
         O           -2.382962447865     1.314496882006    -0.530410928609    15.994914619570
         C           -0.134714447865     0.003263882006    -0.078577928609    12.000000000000
         C            1.938252552135    -1.214643117994     0.036723071391    12.000000000000
         C            1.929483552135     1.238120882006     0.017648071391    12.000000000000
         C            0.532498552135     1.227570882006    -0.053900928609    12.000000000000
         C            0.542069552135    -1.215877117994    -0.040293928609    12.000000000000
         C            2.651855352135    -0.009442117994     0.064769371391    12.000000000000
         C            2.704891552135    -2.511177117994     0.042042071391    12.000000000000
         C            2.686612552135     2.540175882006    -0.001733928609    12.000000000000
         H           -0.032924447865     2.155041882006    -0.103869928609     1.007825032230
         H           -0.015544447865    -2.148700117994    -0.076801928609     1.007825032230
         H            3.697637552135     0.019209882006     0.128444071391     1.007825032230
         H            2.118671552135    -3.312140117994     0.500079071391     1.007825032230
         H            2.953447552135    -2.821032117994    -0.978521928609     1.007825032230
         H            3.641078552135    -2.410929117994     0.597977071391     1.007825032230
         H            2.931288552135     2.833678882006    -1.028054928609     1.007825032230
         H            2.095807552135     3.345467882006     0.442869071391     1.007825032230
         H            3.624541552135     2.456735882006     0.554064071391     1.007825032230
         H           -2.715433447865     0.669916882006     1.728341071391     1.007825032230

  Basis Set: AUG-CC-PVTZ
    Blend: AUG-CC-PVTZ
  Basis Set: (AUG-CC-PVTZ AUX)
    Blend: AUG-CC-PVTZ-JKFIT
	 Reference Energy          =    -931.0537027700172530 [Eh]
	 Singles Energy            =      -0.0000000000000000 [Eh]
	 Same-Spin Energy          =      -0.6213375895387604 [Eh]
	 Opposite-Spin Energy      =      -1.8680596069461892 [Eh]
	 Correlation Energy        =      -2.4893971964849495 [Eh]
	 Total Energy              =    -933.5430999665021545 [Eh]

	 ================> DF-SCS-MP2 Energies <==================
	-----------------------------------------------------------
	 SCS Same-Spin Scale       =       0.3333333333333333 [-]
	 SCS Opposite-Spin Scale   =       1.2000000000000000 [-]
	 SCS Same-Spin Energy      =      -0.2071125298462534 [Eh]
	 SCS Opposite-Spin Energy  =      -2.2416715283354272 [Eh]
	 SCS Correlation Energy    =      -2.4487840581816807 [Eh]
	 SCS Total Energy          =    -933.5024868281989257 [Eh]
	-----------------------------------------------------------

  Dipole Moment: [D]
     X:     4.4337      Y:     1.0312      Z:     1.8906     Total:     4.9291

*** Psi4 exiting successfully. Buy a developer a beer!
