                               Psi4 1.4a3.dev225

  ==> Input File <==

--------------------------------------------------------------------------
#psi4
#
memory 32 gb

molecule  {
0 1
  S       -1.9906940    -0.0125100    -0.1365530
  O       -2.3617000    -0.1700640     1.4590810
  O       -2.4286150    -1.2343840    -0.7923790
  O       -2.4725380     1.3090340    -0.5392830
  C       -0.2242900    -0.0021990    -0.0874500
  C        1.8486770    -1.2201060     0.0278510
  C        1.8399080     1.2326580     0.0087760
  C        0.4429230     1.2221080    -0.0627730
  C        0.4524940    -1.2213400    -0.0491660
  C        2.6446045    -0.0676489     0.0572966
  C        2.6153160    -2.5166400     0.0331700
  C        2.5970370     2.5347130    -0.0106060
  H       -0.1225000     2.1495790    -0.1127420
  H       -0.1051200    -2.1541630    -0.0856740
  H        3.6080620     0.0137470     0.1195720
  H        2.0290960    -3.3176030     0.4912070
  H        2.8638720    -2.8264950    -0.9873940
  H        3.5515030    -2.4163920     0.5891050
  H        2.8417130     2.8282160    -1.0369270
  H        2.0062320     3.3400050     0.4339970
  H        3.5349660     2.4512730     0.5451920
  H       -2.8050090     0.6644540     1.7194690
units angstrom
no_reorient  #important for SAPT in psi4, default
symmetry c1  #important for SAPT in psi4, default
}

set PROPERTIES_ORIGIN ["COM"]
properties('MP2/aug-cc-pvtz', properties = ['dipole'])
--------------------------------------------------------------------------

    Molecular point group: c1
  Charge       = 0
  Multiplicity = 1
  Basis Set: AUG-CC-PVTZ
    Blend: AUG-CC-PVTZ
  Basis Set: (AUG-CC-PVTZ AUX)
    Blend: AUG-CC-PVTZ-JKFIT

    Orbital Energies [Eh]
    ---------------------

    Doubly Occupied:

       1A    -92.229750     2A    -20.629628     3A    -20.566072
       4A    -20.561582     5A    -11.289163     6A    -11.280597
       7A    -11.269479     8A    -11.264627     9A    -11.260411
      10A    -11.260216    11A    -11.240820    12A    -11.236398
      13A     -9.192692    14A     -6.878309    15A     -6.877013
      16A     -6.876772    17A     -1.493664    18A     -1.379960
      19A     -1.352350    20A     -1.179521    21A     -1.082244
      22A     -1.070307    23A     -0.956919    24A     -0.952914
      25A     -0.930710    26A     -0.826179    27A     -0.797002
      28A     -0.741291    29A     -0.726414    30A     -0.708814
      31A     -0.682353    32A     -0.669975    33A     -0.628494
      34A     -0.598709    35A     -0.597268    36A     -0.591573
      37A     -0.588477    38A     -0.584174    39A     -0.570399
      40A     -0.550469    41A     -0.546012    42A     -0.523904
      43A     -0.507214    44A     -0.499283    45A     -0.485372
      46A     -0.483432    47A     -0.473961    48A     -0.359697
      49A     -0.340113

  @DF-RHF Final Energy:  -931.02742176149923

   => Energetics <=

    Nuclear Repulsion Energy =            828.0595931057076768
    One-Electron Energy =               -2921.3886340923395437
    Two-Electron Energy =                1162.3016192251325265
    Total Energy =                       -931.0274217614992267
  Basis Set: (AUG-CC-PVTZ AUX)
    Blend: AUG-CC-PVTZ-RI
    Molecular point group: c1

    Geometry (in Angstrom), charge = 0, multiplicity = 1:

       Center              X                  Y                   Z               Mass
    ------------   -----------------  -----------------  -----------------  -----------------
         S           -1.906428717723    -0.003644927129    -0.127771189012    31.972071174400
         O           -2.277434717723    -0.161198927129     1.467862810988    15.994914619570
         O           -2.344349717723    -1.225518927129    -0.783597189012    15.994914619570
         O           -2.388272717723     1.317899072871    -0.530501189012    15.994914619570
         C           -0.140024717723     0.006666072871    -0.078668189012    12.000000000000
         C            1.932942282277    -1.211240927129     0.036632810988    12.000000000000
         C            1.924173282277     1.241523072871     0.017557810988    12.000000000000
         C            0.527188282277     1.230973072871    -0.053991189012    12.000000000000
         C            0.536759282277    -1.212474927129    -0.040384189012    12.000000000000
         C            2.728869782277    -0.058783827129     0.066078410988    12.000000000000
         C            2.699581282277    -2.507774927129     0.041951810988    12.000000000000
         C            2.681302282277     2.543578072871    -0.001824189012    12.000000000000
         H           -0.038234717723     2.158444072871    -0.103960189012     1.007825032230
         H           -0.020854717723    -2.145297927129    -0.076892189012     1.007825032230
         H            3.692327282277     0.022612072871     0.128353810988     1.007825032230
         H            2.113361282277    -3.308737927129     0.499988810988     1.007825032230
         H            2.948137282277    -2.817629927129    -0.978612189012     1.007825032230
         H            3.635768282277    -2.407526927129     0.597886810988     1.007825032230
         H            2.925978282277     2.837081072871    -1.028145189012     1.007825032230
         H            2.090497282277     3.348870072871     0.442778810988     1.007825032230
         H            3.619231282277     2.460138072871     0.553973810988     1.007825032230
         H           -2.720743717723     0.673319072871     1.728250810988     1.007825032230

  Basis Set: AUG-CC-PVTZ
    Blend: AUG-CC-PVTZ
  Basis Set: (AUG-CC-PVTZ AUX)
    Blend: AUG-CC-PVTZ-JKFIT
	 Reference Energy          =    -931.0274217614992267 [Eh]
	 Singles Energy            =      -0.0000000000000000 [Eh]
	 Same-Spin Energy          =      -0.6216516030858332 [Eh]
	 Opposite-Spin Energy      =      -1.8698983207036577 [Eh]
	 Correlation Energy        =      -2.4915499237894911 [Eh]
	 Total Energy              =    -933.5189716852887614 [Eh]

	 ================> DF-SCS-MP2 Energies <==================
	-----------------------------------------------------------
	 SCS Same-Spin Scale       =       0.3333333333333333 [-]
	 SCS Opposite-Spin Scale   =       1.2000000000000000 [-]
	 SCS Same-Spin Energy      =      -0.2072172010286111 [Eh]
	 SCS Opposite-Spin Energy  =      -2.2438779848443891 [Eh]
	 SCS Correlation Energy    =      -2.4510951858730001 [Eh]
	 SCS Total Energy          =    -933.4785169473722135 [Eh]
	-----------------------------------------------------------

  Dipole Moment: [D]
     X:     4.4121      Y:     1.0812      Z:     1.8906     Total:     4.9203

*** Psi4 exiting successfully. Buy a developer a beer!
