                               Psi4 1.4a3.dev225

  ==> Input File <==

--------------------------------------------------------------------------
#psi4
#
memory 32 gb

molecule  {
0 1
  S       -1.9906940    -0.0125100    -0.1365530
  O       -2.3617000    -0.1700640     1.4590810
  O       -2.4286150    -1.2343840    -0.7923790
  O       -2.4725380     1.3090340    -0.5392830
  C       -0.2242900    -0.0021990    -0.0874500
  C        1.8486770    -1.2201060     0.0278510
  C        1.8399080     1.2326580     0.0087760
  C        0.4429230     1.2221080    -0.0627730
  C        0.4524940    -1.2213400    -0.0491660
  C        2.5197880     0.0092800     0.0551460
  C        2.6153160    -2.5166400     0.0331700
  C        2.5970370     2.5347130    -0.0106060
  H       -0.1225000     2.1495790    -0.1127420
  H       -0.1051200    -2.1541630    -0.0856740
  H        3.6080620     0.0137470     0.1195720
  H        2.0022828    -3.3542383     0.5121572
  H        2.8638720    -2.8264950    -0.9873940
  H        3.5515030    -2.4163920     0.5891050
  H        2.8417130     2.8282160    -1.0369270
  H        2.0062320     3.3400050     0.4339970
  H        3.5349660     2.4512730     0.5451920
  H       -2.8050090     0.6644540     1.7194690
units angstrom
no_reorient  #important for SAPT in psi4, default
symmetry c1  #important for SAPT in psi4, default
}

set PROPERTIES_ORIGIN ["COM"]
properties('MP2/aug-cc-pvtz', properties = ['dipole'])
--------------------------------------------------------------------------

    Molecular point group: c1
  Charge       = 0
  Multiplicity = 1
  Basis Set: AUG-CC-PVTZ
    Blend: AUG-CC-PVTZ
  Basis Set: (AUG-CC-PVTZ AUX)
    Blend: AUG-CC-PVTZ-JKFIT

    Orbital Energies [Eh]
    ---------------------

    Doubly Occupied:

       1A    -92.228834     2A    -20.628690     3A    -20.565043
       4A    -20.560807     5A    -11.286146     6A    -11.267636
       7A    -11.267531     8A    -11.262931     9A    -11.262154
      10A    -11.257464    11A    -11.246232    12A    -11.241612
      13A     -9.191740    14A     -6.877360    15A     -6.876060
      16A     -6.875822    17A     -1.492768    18A     -1.379126
      19A     -1.351489    20A     -1.188000    21A     -1.081221
      22A     -1.075397    23A     -0.960925    24A     -0.952262
      25A     -0.924136    26A     -0.819264    27A     -0.808779
      28A     -0.740129    29A     -0.722800    30A     -0.691274
      31A     -0.683529    32A     -0.670536    33A     -0.627853
      34A     -0.602099    35A     -0.600235    36A     -0.591978
      37A     -0.584513    38A     -0.574260    39A     -0.566320
      40A     -0.544894    41A     -0.537631    42A     -0.523648
      43A     -0.508144    44A     -0.506356    45A     -0.500664
      46A     -0.484041    47A     -0.473716    48A     -0.363491
      49A     -0.345087

  @DF-RHF Final Energy:  -931.05527772003086

   => Energetics <=

    Nuclear Repulsion Energy =            830.2664850712957332
    One-Electron Energy =               -2925.8982728647988552
    Two-Electron Energy =                1164.5765100734720363
    Total Energy =                       -931.0552777200309720
  Basis Set: (AUG-CC-PVTZ AUX)
    Blend: AUG-CC-PVTZ-RI
    Molecular point group: c1

    Geometry (in Angstrom), charge = 0, multiplicity = 1:

       Center              X                  Y                   Z               Mass
    ------------   -----------------  -----------------  -----------------  -----------------
         S           -1.898232300497    -0.008408678661    -0.127745962241    31.972071174400
         O           -2.269238300497    -0.165962678661     1.467888037759    15.994914619570
         O           -2.336153300497    -1.230282678661    -0.783571962241    15.994914619570
         O           -2.380076300497     1.313135321339    -0.530475962241    15.994914619570
         C           -0.131828300497     0.001902321339    -0.078642962241    12.000000000000
         C            1.941138699503    -1.216004678661     0.036658037759    12.000000000000
         C            1.932369699503     1.236759321339     0.017583037759    12.000000000000
         C            0.535384699503     1.226209321339    -0.053965962241    12.000000000000
         C            0.544955699503    -1.217238678661    -0.040358962241    12.000000000000
         C            2.612249699503     0.013381321339     0.063953037759    12.000000000000
         C            2.707777699503    -2.512538678661     0.041977037759    12.000000000000
         C            2.689498699503     2.538814321339    -0.001798962241    12.000000000000
         H           -0.030038300497     2.153680321339    -0.103934962241     1.007825032230
         H           -0.012658300497    -2.150061678661    -0.076866962241     1.007825032230
         H            3.700523699503     0.017848321339     0.128379037759     1.007825032230
         H            2.094744499503    -3.350136978661     0.520964237759     1.007825032230
         H            2.956333699503    -2.822393678661    -0.978586962241     1.007825032230
         H            3.643964699503    -2.412290678661     0.597912037759     1.007825032230
         H            2.934174699503     2.832317321339    -1.028119962241     1.007825032230
         H            2.098693699503     3.344106321339     0.442804037759     1.007825032230
         H            3.627427699503     2.455374321339     0.553999037759     1.007825032230
         H           -2.712547300497     0.668555321339     1.728276037759     1.007825032230

  Basis Set: AUG-CC-PVTZ
    Blend: AUG-CC-PVTZ
  Basis Set: (AUG-CC-PVTZ AUX)
    Blend: AUG-CC-PVTZ-JKFIT
	 Reference Energy          =    -931.0552777200308583 [Eh]
	 Singles Energy            =      -0.0000000000000000 [Eh]
	 Same-Spin Energy          =      -0.6213116570131851 [Eh]
	 Opposite-Spin Energy      =      -1.8680375807682426 [Eh]
	 Correlation Energy        =      -2.4893492377814277 [Eh]
	 Total Energy              =    -933.5446269578122838 [Eh]

	 ================> DF-SCS-MP2 Energies <==================
	-----------------------------------------------------------
	 SCS Same-Spin Scale       =       0.3333333333333333 [-]
	 SCS Opposite-Spin Scale   =       1.2000000000000000 [-]
	 SCS Same-Spin Energy      =      -0.2071038856710617 [Eh]
	 SCS Opposite-Spin Energy  =      -2.2416450969218911 [Eh]
	 SCS Correlation Energy    =      -2.4487489825929529 [Eh]
	 SCS Total Energy          =    -933.5040267026238325 [Eh]
	-----------------------------------------------------------

  Dipole Moment: [D]
     X:     4.4300      Y:     1.0280      Z:     1.8824     Total:     4.9219

*** Psi4 exiting successfully. Buy a developer a beer!
