                               Psi4 1.4a3.dev225

  ==> Input File <==

--------------------------------------------------------------------------
#psi4
#
memory 32 gb

molecule  {
0 1
  S       -1.9906940    -0.0125100    -0.1365530
  O       -2.3617000    -0.1700640     1.4590810
  O       -2.4286150    -1.2343840    -0.7923790
  O       -2.4725380     1.3090340    -0.5392830
  C       -0.2242900    -0.0021990    -0.0874500
  C        1.8486770    -1.2201060     0.0278510
  C        1.8399080     1.2326580     0.0087760
  C        0.4429230     1.2221080    -0.0627730
  C        0.4524940    -1.2213400    -0.0491660
  C        2.4239767    -0.1662336     0.0512492
  C        2.6153160    -2.5166400     0.0331700
  C        2.5970370     2.5347130    -0.0106060
  H       -0.1225000     2.1495790    -0.1127420
  H       -0.1051200    -2.1541630    -0.0856740
  H        3.6080620     0.0137470     0.1195720
  H        2.0290960    -3.3176030     0.4912070
  H        2.8638720    -2.8264950    -0.9873940
  H        3.5515030    -2.4163920     0.5891050
  H        2.8417130     2.8282160    -1.0369270
  H        2.0062320     3.3400050     0.4339970
  H        3.5349660     2.4512730     0.5451920
  H       -2.8050090     0.6644540     1.7194690
units angstrom
no_reorient  #important for SAPT in psi4, default
symmetry c1  #important for SAPT in psi4, default
}

set PROPERTIES_ORIGIN ["COM"]
properties('MP2/aug-cc-pvtz', properties = ['dipole'])
--------------------------------------------------------------------------

    Molecular point group: c1
  Charge       = 0
  Multiplicity = 1
  Basis Set: AUG-CC-PVTZ
    Blend: AUG-CC-PVTZ
  Basis Set: (AUG-CC-PVTZ AUX)
    Blend: AUG-CC-PVTZ-JKFIT

    Orbital Energies [Eh]
    ---------------------

    Doubly Occupied:

       1A    -92.228718     2A    -20.628625     3A    -20.565272
       4A    -20.560200     5A    -11.284901     6A    -11.277340
       7A    -11.269554     8A    -11.257201     9A    -11.251771
      10A    -11.246851    11A    -11.239027    12A    -11.238337
      13A     -9.191597    14A     -6.877220    15A     -6.875909
      16A     -6.875692    17A     -1.492635    18A     -1.378997
      19A     -1.351352    20A     -1.203791    21A     -1.100540
      22A     -1.066686    23A     -0.967884    24A     -0.954796
      25A     -0.923605    26A     -0.825296    27A     -0.805683
      28A     -0.740298    29A     -0.722565    30A     -0.689656
      31A     -0.678225    32A     -0.669577    33A     -0.627195
      34A     -0.607624    35A     -0.605775    36A     -0.592275
      37A     -0.587417    38A     -0.571950    39A     -0.566271
      40A     -0.551272    41A     -0.538179    42A     -0.524586
      43A     -0.511438    44A     -0.503854    45A     -0.488544
      46A     -0.483299    47A     -0.460581    48A     -0.388607
      49A     -0.336705

  @DF-RHF Final Energy:  -930.99576836980361

   => Energetics <=

    Nuclear Repulsion Energy =            832.7996925028868418
    One-Electron Energy =               -2930.8201836999073748
    Two-Electron Energy =                1167.0247228272166922
    Total Energy =                       -930.9957683698037272
  Basis Set: (AUG-CC-PVTZ AUX)
    Blend: AUG-CC-PVTZ-RI
    Molecular point group: c1

    Geometry (in Angstrom), charge = 0, multiplicity = 1:

       Center              X                  Y                   Z               Mass
    ------------   -----------------  -----------------  -----------------  -----------------
         S           -1.892197349056     0.002714177257    -0.127381107713    31.972071174400
         O           -2.263203349056    -0.154839822743     1.468252892287    15.994914619570
         O           -2.330118349056    -1.219159822743    -0.783207107713    15.994914619570
         O           -2.374041349056     1.324258177257    -0.530111107713    15.994914619570
         C           -0.125793349056     0.013025177257    -0.078278107713    12.000000000000
         C            1.947173650944    -1.204881822743     0.037022892287    12.000000000000
         C            1.938404650944     1.247882177257     0.017947892287    12.000000000000
         C            0.541419650944     1.237332177257    -0.053601107713    12.000000000000
         C            0.550990650944    -1.206115822743    -0.039994107713    12.000000000000
         C            2.522473350944    -0.151009422743     0.060421092287    12.000000000000
         C            2.713812650944    -2.501415822743     0.042341892287    12.000000000000
         C            2.695533650944     2.549937177257    -0.001434107713    12.000000000000
         H           -0.024003349056     2.164803177257    -0.103570107713     1.007825032230
         H           -0.006623349056    -2.138938822743    -0.076502107713     1.007825032230
         H            3.706558650944     0.028971177257     0.128743892287     1.007825032230
         H            2.127592650944    -3.302378822743     0.500378892287     1.007825032230
         H            2.962368650944    -2.811270822743    -0.978222107713     1.007825032230
         H            3.649999650944    -2.401167822743     0.598276892287     1.007825032230
         H            2.940209650944     2.843440177257    -1.027755107713     1.007825032230
         H            2.104728650944     3.355229177257     0.443168892287     1.007825032230
         H            3.633462650944     2.466497177257     0.554363892287     1.007825032230
         H           -2.706512349056     0.679678177257     1.728640892287     1.007825032230

  Basis Set: AUG-CC-PVTZ
    Blend: AUG-CC-PVTZ
  Basis Set: (AUG-CC-PVTZ AUX)
    Blend: AUG-CC-PVTZ-JKFIT
	 Reference Energy          =    -930.9957683698036135 [Eh]
	 Singles Energy            =      -0.0000000000000000 [Eh]
	 Same-Spin Energy          =      -0.6208663679460256 [Eh]
	 Opposite-Spin Energy      =      -1.8691830952365138 [Eh]
	 Correlation Energy        =      -2.4900494631825394 [Eh]
	 Total Energy              =    -933.4858178329861857 [Eh]

	 ================> DF-SCS-MP2 Energies <==================
	-----------------------------------------------------------
	 SCS Same-Spin Scale       =       0.3333333333333333 [-]
	 SCS Opposite-Spin Scale   =       1.2000000000000000 [-]
	 SCS Same-Spin Energy      =      -0.2069554559820085 [Eh]
	 SCS Opposite-Spin Energy  =      -2.2430197142838164 [Eh]
	 SCS Correlation Energy    =      -2.4499751702658248 [Eh]
	 SCS Total Energy          =    -933.4457435400694294 [Eh]
	-----------------------------------------------------------

  Dipole Moment: [D]
     X:     4.3169      Y:     1.2018      Z:     1.8841     Total:     4.8610

*** Psi4 exiting successfully. Buy a developer a beer!
