                               Psi4 1.4a3.dev225

  ==> Input File <==

--------------------------------------------------------------------------
#psi4
#
memory 32 gb

molecule  {
0 1
  S       -1.9906940    -0.0125100    -0.1365530
  O       -2.3617000    -0.1700640     1.4590810
  O       -2.4286150    -1.2343840    -0.7923790
  O       -2.4725380     1.3090340    -0.5392830
  C       -0.2242900    -0.0021990    -0.0874500
  C        1.8486770    -1.2201060     0.0278510
  C        1.8399080     1.2326580     0.0087760
  C        0.4429230     1.2221080    -0.0627730
  C        0.4524940    -1.2213400    -0.0491660
  C        2.5197880     0.0092800     0.0551460
  C        2.6153160    -2.5166400     0.0331700
  C        2.5467731     2.4482729    -0.0093193
  H       -0.1225000     2.1495790    -0.1127420
  H       -0.1051200    -2.1541630    -0.0856740
  H        3.6080620     0.0137470     0.1195720
  H        2.0290960    -3.3176030     0.4912070
  H        2.8638720    -2.8264950    -0.9873940
  H        3.5515030    -2.4163920     0.5891050
  H        2.8417130     2.8282160    -1.0369270
  H        2.0062320     3.3400050     0.4339970
  H        3.5349660     2.4512730     0.5451920
  H       -2.8050090     0.6644540     1.7194690
units angstrom
no_reorient  #important for SAPT in psi4, default
symmetry c1  #important for SAPT in psi4, default
}

set PROPERTIES_ORIGIN ["COM"]
properties('MP2/aug-cc-pvtz', properties = ['dipole'])
--------------------------------------------------------------------------

    Molecular point group: c1
  Charge       = 0
  Multiplicity = 1
  Basis Set: AUG-CC-PVTZ
    Blend: AUG-CC-PVTZ
  Basis Set: (AUG-CC-PVTZ AUX)
    Blend: AUG-CC-PVTZ-JKFIT

    Orbital Energies [Eh]
    ---------------------

    Doubly Occupied:

       1A    -92.229044     2A    -20.628866     3A    -20.565219
       4A    -20.561004     5A    -11.286432     6A    -11.267441
       7A    -11.263492     8A    -11.262388     9A    -11.262154
      10A    -11.257239    11A    -11.245524    12A    -11.240590
      13A     -9.191948    14A     -6.877568    15A     -6.876269
      16A     -6.876031    17A     -1.492953    18A     -1.379303
      19A     -1.351672    20A     -1.191510    21A     -1.093145
      22A     -1.077113    23A     -0.962261    24A     -0.953232
      25A     -0.924880    26A     -0.819567    27A     -0.809130
      28A     -0.740917    29A     -0.723554    30A     -0.692236
      31A     -0.684948    32A     -0.672078    33A     -0.628237
      34A     -0.621239    35A     -0.599382    36A     -0.594104
      37A     -0.579964    38A     -0.573896    39A     -0.564633
      40A     -0.540967    41A     -0.534370    42A     -0.523201
      43A     -0.512199    44A     -0.505542    45A     -0.497781
      46A     -0.484141    47A     -0.473518    48A     -0.362691
      49A     -0.342844

  @DF-RHF Final Energy:  -931.04492683728881

   => Energetics <=

    Nuclear Repulsion Energy =            832.4761836099975199
    One-Electron Energy =               -2930.2453819363008733
    Two-Electron Energy =                1166.7242714890146544
    Total Energy =                       -931.0449268372888127
  Basis Set: (AUG-CC-PVTZ AUX)
    Blend: AUG-CC-PVTZ-RI
    Molecular point group: c1

    Geometry (in Angstrom), charge = 0, multiplicity = 1:

       Center              X                  Y                   Z               Mass
    ------------   -----------------  -----------------  -----------------  -----------------
         S           -1.895135337112    -0.003031416983    -0.127715464034    31.972071174400
         O           -2.266141337112    -0.160585416983     1.467918535966    15.994914619570
         O           -2.333056337112    -1.224905416983    -0.783541464034    15.994914619570
         O           -2.376979337112     1.318512583017    -0.530445464034    15.994914619570
         C           -0.128731337112     0.007279583017    -0.078612464034    12.000000000000
         C            1.944235662888    -1.210627416983     0.036688535966    12.000000000000
         C            1.935466662888     1.242136583017     0.017613535966    12.000000000000
         C            0.538481662888     1.231586583017    -0.053935464034    12.000000000000
         C            0.548052662888    -1.211861416983    -0.040328464034    12.000000000000
         C            2.615346662888     0.018758583017     0.063983535966    12.000000000000
         C            2.710874662888    -2.507161416983     0.042007535966    12.000000000000
         C            2.642331762888     2.457751483017    -0.000481764034    12.000000000000
         H           -0.026941337112     2.159057583017    -0.103904464034     1.007825032230
         H           -0.009561337112    -2.144684416983    -0.076836464034     1.007825032230
         H            3.703620662888     0.023225583017     0.128409535966     1.007825032230
         H            2.124654662888    -3.308124416983     0.500044535966     1.007825032230
         H            2.959430662888    -2.817016416983    -0.978556464034     1.007825032230
         H            3.647061662888    -2.406913416983     0.597942535966     1.007825032230
         H            2.937271662888     2.837694583017    -1.028089464034     1.007825032230
         H            2.101790662888     3.349483583017     0.442834535966     1.007825032230
         H            3.630524662888     2.460751583017     0.554029535966     1.007825032230
         H           -2.709450337112     0.673932583017     1.728306535966     1.007825032230

  Basis Set: AUG-CC-PVTZ
    Blend: AUG-CC-PVTZ
  Basis Set: (AUG-CC-PVTZ AUX)
    Blend: AUG-CC-PVTZ-JKFIT
	 Reference Energy          =    -931.0449268372888127 [Eh]
	 Singles Energy            =      -0.0000000000000000 [Eh]
	 Same-Spin Energy          =      -0.6225881313654850 [Eh]
	 Opposite-Spin Energy      =      -1.8691784233467001 [Eh]
	 Correlation Energy        =      -2.4917665547121852 [Eh]
	 Total Energy              =    -933.5366933920009842 [Eh]

	 ================> DF-SCS-MP2 Energies <==================
	-----------------------------------------------------------
	 SCS Same-Spin Scale       =       0.3333333333333333 [-]
	 SCS Opposite-Spin Scale   =       1.2000000000000000 [-]
	 SCS Same-Spin Energy      =      -0.2075293771218283 [Eh]
	 SCS Opposite-Spin Energy  =      -2.2430141080160402 [Eh]
	 SCS Correlation Energy    =      -2.4505434851378687 [Eh]
	 SCS Total Energy          =    -933.4954703224266268 [Eh]
	-----------------------------------------------------------

  Dipole Moment: [D]
     X:     4.4309      Y:     1.0141      Z:     1.8833     Total:     4.9202

*** Psi4 exiting successfully. Buy a developer a beer!
