                               Psi4 1.4a3.dev225

  ==> Input File <==

--------------------------------------------------------------------------
#psi4
#
memory 32 gb

molecule  {
0 1
  S       -1.9906940    -0.0125100    -0.1365530
  O       -2.3617000    -0.1700640     1.4590810
  O       -2.4286150    -1.2343840    -0.7923790
  O       -2.4725380     1.3090340    -0.5392830
  C       -0.2242900    -0.0021990    -0.0874500
  C        1.8486770    -1.2201060     0.0278510
  C        1.8399080     1.2326580     0.0087760
  C        0.4429230     1.2221080    -0.0627730
  C        0.4524940    -1.2213400    -0.0491660
  C        2.5197880     0.0092800     0.0551460
  C        2.6153160    -2.5166400     0.0331700
  C        2.5970370     2.5347130    -0.0106060
  H       -0.1225000     2.1495790    -0.1127420
  H       -0.1051200    -2.1541630    -0.0856740
  H        3.6080620     0.0137470     0.1195720
  H        2.0857843    -3.3267221     0.5414580
  H        2.8638720    -2.8264950    -0.9873940
  H        3.5515030    -2.4163920     0.5891050
  H        2.8417130     2.8282160    -1.0369270
  H        2.0062320     3.3400050     0.4339970
  H        3.5349660     2.4512730     0.5451920
  H       -2.8050090     0.6644540     1.7194690
units angstrom
no_reorient  #important for SAPT in psi4, default
symmetry c1  #important for SAPT in psi4, default
}

set PROPERTIES_ORIGIN ["COM"]
properties('MP2/aug-cc-pvtz', properties = ['dipole'])
--------------------------------------------------------------------------

    Molecular point group: c1
  Charge       = 0
  Multiplicity = 1
  Basis Set: AUG-CC-PVTZ
    Blend: AUG-CC-PVTZ
  Basis Set: (AUG-CC-PVTZ AUX)
    Blend: AUG-CC-PVTZ-JKFIT

    Orbital Energies [Eh]
    ---------------------

    Doubly Occupied:

       1A    -92.228752     2A    -20.628632     3A    -20.564973
       4A    -20.560730     5A    -11.286012     6A    -11.267479
       7A    -11.267418     8A    -11.262939     9A    -11.262104
      10A    -11.257364    11A    -11.241517    12A    -11.240097
      13A     -9.191659    14A     -6.877278    15A     -6.875979
      16A     -6.875741    17A     -1.492701    18A     -1.379065
      19A     -1.351418    20A     -1.187895    21A     -1.081411
      22A     -1.075441    23A     -0.962358    24A     -0.953931
      25A     -0.924007    26A     -0.819153    27A     -0.810271
      28A     -0.740097    29A     -0.722938    30A     -0.691139
      31A     -0.683331    32A     -0.670351    33A     -0.627730
      34A     -0.604747    35A     -0.601334    36A     -0.591766
      37A     -0.587647    38A     -0.574012    39A     -0.566878
      40A     -0.544611    41A     -0.536974    42A     -0.523659
      43A     -0.508533    44A     -0.507166    45A     -0.500989
      46A     -0.483936    47A     -0.473558    48A     -0.363513
      49A     -0.345329

  @DF-RHF Final Energy:  -931.05691045607557

   => Energetics <=

    Nuclear Repulsion Energy =            830.3751273915345337
    One-Electron Energy =               -2926.1109470182095720
    Two-Electron Energy =                1164.6789091705995816
    Total Energy =                       -931.0569104560754568
  Basis Set: (AUG-CC-PVTZ AUX)
    Blend: AUG-CC-PVTZ-RI
    Molecular point group: c1

    Geometry (in Angstrom), charge = 0, multiplicity = 1:

       Center              X                  Y                   Z               Mass
    ------------   -----------------  -----------------  -----------------  -----------------
         S           -1.898684660926    -0.008557744726    -0.127904696186    31.972071174400
         O           -2.269690660926    -0.166111744726     1.467729303814    15.994914619570
         O           -2.336605660926    -1.230431744726    -0.783730696186    15.994914619570
         O           -2.380528660926     1.312986255274    -0.530634696186    15.994914619570
         C           -0.132280660926     0.001753255274    -0.078801696186    12.000000000000
         C            1.940686339074    -1.216153744726     0.036499303814    12.000000000000
         C            1.931917339074     1.236610255274     0.017424303814    12.000000000000
         C            0.534932339074     1.226060255274    -0.054124696186    12.000000000000
         C            0.544503339074    -1.217387744726    -0.040517696186    12.000000000000
         C            2.611797339074     0.013232255274     0.063794303814    12.000000000000
         C            2.707325339074    -2.512687744726     0.041818303814    12.000000000000
         C            2.689046339074     2.538665255274    -0.001957696186    12.000000000000
         H           -0.030490660926     2.153531255274    -0.104093696186     1.007825032230
         H           -0.013110660926    -2.150210744726    -0.077025696186     1.007825032230
         H            3.700071339074     0.017699255274     0.128220303814     1.007825032230
         H            2.177793639074    -3.322769844726     0.550106303814     1.007825032230
         H            2.955881339074    -2.822542744726    -0.978745696186     1.007825032230
         H            3.643512339074    -2.412439744726     0.597753303814     1.007825032230
         H            2.933722339074     2.832168255274    -1.028278696186     1.007825032230
         H            2.098241339074     3.343957255274     0.442645303814     1.007825032230
         H            3.626975339074     2.455225255274     0.553840303814     1.007825032230
         H           -2.712999660926     0.668406255274     1.728117303814     1.007825032230

  Basis Set: AUG-CC-PVTZ
    Blend: AUG-CC-PVTZ
  Basis Set: (AUG-CC-PVTZ AUX)
    Blend: AUG-CC-PVTZ-JKFIT
	 Reference Energy          =    -931.0569104560755704 [Eh]
	 Singles Energy            =      -0.0000000000000000 [Eh]
	 Same-Spin Energy          =      -0.6212859388966607 [Eh]
	 Opposite-Spin Energy      =      -1.8676645681140811 [Eh]
	 Correlation Energy        =      -2.4889505070107418 [Eh]
	 Total Energy              =    -933.5458609630862838 [Eh]

	 ================> DF-SCS-MP2 Energies <==================
	-----------------------------------------------------------
	 SCS Same-Spin Scale       =       0.3333333333333333 [-]
	 SCS Opposite-Spin Scale   =       1.2000000000000000 [-]
	 SCS Same-Spin Energy      =      -0.2070953129655536 [Eh]
	 SCS Opposite-Spin Energy  =      -2.2411974817368971 [Eh]
	 SCS Correlation Energy    =      -2.4482927947024509 [Eh]
	 SCS Total Energy          =    -933.5052032507779813 [Eh]
	-----------------------------------------------------------

  Dipole Moment: [D]
     X:     4.4332      Y:     1.0044      Z:     1.9124     Total:     4.9315

*** Psi4 exiting successfully. Buy a developer a beer!
