                               Psi4 1.4a3.dev225

  ==> Input File <==

--------------------------------------------------------------------------
#psi4
#
memory 32 gb

molecule  {
0 1
  S       -1.9906940    -0.0125100    -0.1365530
  O       -2.3617000    -0.1700640     1.4590810
  O       -2.4286150    -1.2343840    -0.7923790
  O       -2.4725380     1.3090340    -0.5392830
  C       -0.2242900    -0.0021990    -0.0874500
  C        1.8486770    -1.2201060     0.0278510
  C        1.8399080     1.2326580     0.0087760
  C        0.4429230     1.2221080    -0.0627730
  C        0.4524940    -1.2213400    -0.0491660
  C        2.5197880     0.0092800     0.0551460
  C        2.6153160    -2.5166400     0.0331700
  C        2.5970370     2.5347130    -0.0106060
  H       -0.1225000     2.1495790    -0.1127420
  H       -0.1051200    -2.1541630    -0.0856740
  H        3.6080620     0.0137470     0.1195720
  H        2.0430109    -3.3202507     0.5039887
  H        2.8638720    -2.8264950    -0.9873940
  H        3.5515030    -2.4163920     0.5891050
  H        2.8417130     2.8282160    -1.0369270
  H        2.0062320     3.3400050     0.4339970
  H        3.5349660     2.4512730     0.5451920
  H       -2.8050090     0.6644540     1.7194690
units angstrom
no_reorient  #important for SAPT in psi4, default
symmetry c1  #important for SAPT in psi4, default
}

set PROPERTIES_ORIGIN ["COM"]
properties('MP2/aug-cc-pvtz', properties = ['dipole'])
--------------------------------------------------------------------------

    Molecular point group: c1
  Charge       = 0
  Multiplicity = 1
  Basis Set: AUG-CC-PVTZ
    Blend: AUG-CC-PVTZ
  Basis Set: (AUG-CC-PVTZ AUX)
    Blend: AUG-CC-PVTZ-JKFIT

    Orbital Energies [Eh]
    ---------------------

    Doubly Occupied:

       1A    -92.228768     2A    -20.628641     3A    -20.564980
       4A    -20.560755     5A    -11.286050     6A    -11.267449
       7A    -11.267194     8A    -11.262821     9A    -11.262062
      10A    -11.257174    11A    -11.241486    12A    -11.240292
      13A     -9.191675    14A     -6.877294    15A     -6.875995
      16A     -6.875757    17A     -1.492714    18A     -1.379077
      19A     -1.351433    20A     -1.187879    21A     -1.081568
      22A     -1.075440    23A     -0.962416    24A     -0.953784
      25A     -0.924028    26A     -0.819147    27A     -0.809962
      28A     -0.740074    29A     -0.722848    30A     -0.691191
      31A     -0.683581    32A     -0.670593    33A     -0.627786
      34A     -0.602844    35A     -0.601082    36A     -0.591773
      37A     -0.585963    38A     -0.574234    39A     -0.568644
      40A     -0.547230    41A     -0.537503    42A     -0.523609
      43A     -0.508368    44A     -0.506907    45A     -0.500905
      46A     -0.483975    47A     -0.473596    48A     -0.363350
      49A     -0.345117

  @DF-RHF Final Energy:  -931.05740591376843

   => Energetics <=

    Nuclear Repulsion Energy =            830.4485760986225387
    One-Electron Energy =               -2926.2579431158633270
    Two-Electron Energy =                1164.7519611034722402
    Total Energy =                       -931.0574059137684344
  Basis Set: (AUG-CC-PVTZ AUX)
    Blend: AUG-CC-PVTZ-RI
    Molecular point group: c1

    Geometry (in Angstrom), charge = 0, multiplicity = 1:

       Center              X                  Y                   Z               Mass
    ------------   -----------------  -----------------  -----------------  -----------------
         S           -1.898452940615    -0.008592802842    -0.127701710268    31.972071174400
         O           -2.269458940615    -0.166146802842     1.467932289732    15.994914619570
         O           -2.336373940615    -1.230466802842    -0.783527710268    15.994914619570
         O           -2.380296940615     1.312951197158    -0.530431710268    15.994914619570
         C           -0.132048940615     0.001718197158    -0.078598710268    12.000000000000
         C            1.940918059385    -1.216188802842     0.036702289732    12.000000000000
         C            1.932149059385     1.236575197158     0.017627289732    12.000000000000
         C            0.535164059385     1.226025197158    -0.053921710268    12.000000000000
         C            0.544735059385    -1.217422802842    -0.040314710268    12.000000000000
         C            2.612029059385     0.013197197158     0.063997289732    12.000000000000
         C            2.707557059385    -2.512722802842     0.042021289732    12.000000000000
         C            2.689278059385     2.538630197158    -0.001754710268    12.000000000000
         H           -0.030258940615     2.153496197158    -0.103890710268     1.007825032230
         H           -0.012878940615    -2.150245802842    -0.076822710268     1.007825032230
         H            3.700303059385     0.017664197158     0.128423289732     1.007825032230
         H            2.135251959385    -3.316333502842     0.512839989732     1.007825032230
         H            2.956113059385    -2.822577802842    -0.978542710268     1.007825032230
         H            3.643744059385    -2.412474802842     0.597956289732     1.007825032230
         H            2.933954059385     2.832133197158    -1.028075710268     1.007825032230
         H            2.098473059385     3.343922197158     0.442848289732     1.007825032230
         H            3.627207059385     2.455190197158     0.554043289732     1.007825032230
         H           -2.712767940615     0.668371197158     1.728320289732     1.007825032230

  Basis Set: AUG-CC-PVTZ
    Blend: AUG-CC-PVTZ
  Basis Set: (AUG-CC-PVTZ AUX)
    Blend: AUG-CC-PVTZ-JKFIT
	 Reference Energy          =    -931.0574059137684344 [Eh]
	 Singles Energy            =      -0.0000000000000000 [Eh]
	 Same-Spin Energy          =      -0.6212896248235786 [Eh]
	 Opposite-Spin Energy      =      -1.8676676917499684 [Eh]
	 Correlation Energy        =      -2.4889573165735470 [Eh]
	 Total Energy              =    -933.5463632303419672 [Eh]

	 ================> DF-SCS-MP2 Energies <==================
	-----------------------------------------------------------
	 SCS Same-Spin Scale       =       0.3333333333333333 [-]
	 SCS Opposite-Spin Scale   =       1.2000000000000000 [-]
	 SCS Same-Spin Energy      =      -0.2070965416078595 [Eh]
	 SCS Opposite-Spin Energy  =      -2.2412012300999620 [Eh]
	 SCS Correlation Energy    =      -2.4482977717078214 [Eh]
	 SCS Total Energy          =    -933.5057036854763055 [Eh]
	-----------------------------------------------------------

  Dipole Moment: [D]
     X:     4.4292      Y:     1.0033      Z:     1.8954     Total:     4.9211

*** Psi4 exiting successfully. Buy a developer a beer!
