                               Psi4 1.4a3.dev225

  ==> Input File <==

--------------------------------------------------------------------------
#psi4
#
memory 32 gb

molecule  {
0 1
  S       -1.9906940    -0.0125100    -0.1365530
  O       -2.3617000    -0.1700640     1.4590810
  O       -2.4286150    -1.2343840    -0.7923790
  O       -2.4725380     1.3090340    -0.5392830
  C       -0.2242900    -0.0021990    -0.0874500
  C        1.8486770    -1.2201060     0.0278510
  C        1.8399080     1.2326580     0.0087760
  C        0.4628963     1.2222588    -0.0617500
  C        0.4524940    -1.2213400    -0.0491660
  C        2.5197880     0.0092800     0.0551460
  C        2.6153160    -2.5166400     0.0331700
  C        2.5970370     2.5347130    -0.0106060
  H       -0.1225000     2.1495790    -0.1127420
  H       -0.1051200    -2.1541630    -0.0856740
  H        3.6080620     0.0137470     0.1195720
  H        2.0290960    -3.3176030     0.4912070
  H        2.8638720    -2.8264950    -0.9873940
  H        3.5515030    -2.4163920     0.5891050
  H        2.8417130     2.8282160    -1.0369270
  H        2.0062320     3.3400050     0.4339970
  H        3.5349660     2.4512730     0.5451920
  H       -2.8050090     0.6644540     1.7194690
units angstrom
no_reorient  #important for SAPT in psi4, default
symmetry c1  #important for SAPT in psi4, default
}

set PROPERTIES_ORIGIN ["COM"]
properties('MP2/aug-cc-pvtz', properties = ['dipole'])
--------------------------------------------------------------------------

    Molecular point group: c1
  Charge       = 0
  Multiplicity = 1
  Basis Set: AUG-CC-PVTZ
    Blend: AUG-CC-PVTZ
  Basis Set: (AUG-CC-PVTZ AUX)
    Blend: AUG-CC-PVTZ-JKFIT

    Orbital Energies [Eh]
    ---------------------

    Doubly Occupied:

       1A    -92.229308     2A    -20.628808     3A    -20.565117
       4A    -20.561113     5A    -11.286338     6A    -11.266884
       7A    -11.264889     8A    -11.262859     9A    -11.261973
      10A    -11.257506    11A    -11.241098    12A    -11.240363
      13A     -9.192129    14A     -6.877759    15A     -6.876470
      16A     -6.876215    17A     -1.492880    18A     -1.379253
      19A     -1.351620    20A     -1.188719    21A     -1.083261
      22A     -1.074147    23A     -0.962554    24A     -0.953312
      25A     -0.924617    26A     -0.820343    27A     -0.809188
      28A     -0.740257    29A     -0.722032    30A     -0.691627
      31A     -0.683387    32A     -0.671172    33A     -0.627978
      34A     -0.601710    35A     -0.601000    36A     -0.591129
      37A     -0.585286    38A     -0.574380    39A     -0.568993
      40A     -0.547476    41A     -0.538264    42A     -0.523678
      43A     -0.507891    44A     -0.505815    45A     -0.501088
      46A     -0.484157    47A     -0.474731    48A     -0.362108
      49A     -0.347157

  @DF-RHF Final Energy:  -931.05698305596502

   => Energetics <=

    Nuclear Repulsion Energy =            830.4726042819397662
    One-Electron Energy =               -2926.2990971110402825
    Two-Electron Energy =                1164.7695097731354963
    Total Energy =                       -931.0569830559650200
  Basis Set: (AUG-CC-PVTZ AUX)
    Blend: AUG-CC-PVTZ-RI
    Molecular point group: c1

    Geometry (in Angstrom), charge = 0, multiplicity = 1:

       Center              X                  Y                   Z               Mass
    ------------   -----------------  -----------------  -----------------  -----------------
         S           -1.899665915250    -0.008616873671    -0.127698454337    31.972071174400
         O           -2.270671915250    -0.166170873671     1.467935545663    15.994914619570
         O           -2.337586915250    -1.230490873671    -0.783524454337    15.994914619570
         O           -2.381509915250     1.312927126329    -0.530428454337    15.994914619570
         C           -0.133261915250     0.001694126329    -0.078595454337    12.000000000000
         C            1.939705084750    -1.216212873671     0.036705545663    12.000000000000
         C            1.930936084750     1.236551126329     0.017630545663    12.000000000000
         C            0.553924384750     1.226151926329    -0.052895454337    12.000000000000
         C            0.543522084750    -1.217446873671    -0.040311454337    12.000000000000
         C            2.610816084750     0.013173126329     0.064000545663    12.000000000000
         C            2.706344084750    -2.512746873671     0.042024545663    12.000000000000
         C            2.688065084750     2.538606126329    -0.001751454337    12.000000000000
         H           -0.031471915250     2.153472126329    -0.103887454337     1.007825032230
         H           -0.014091915250    -2.150269873671    -0.076819454337     1.007825032230
         H            3.699090084750     0.017640126329     0.128426545663     1.007825032230
         H            2.120124084750    -3.313709873671     0.500061545663     1.007825032230
         H            2.954900084750    -2.822601873671    -0.978539454337     1.007825032230
         H            3.642531084750    -2.412498873671     0.597959545663     1.007825032230
         H            2.932741084750     2.832109126329    -1.028072454337     1.007825032230
         H            2.097260084750     3.343898126329     0.442851545663     1.007825032230
         H            3.625994084750     2.455166126329     0.554046545663     1.007825032230
         H           -2.713980915250     0.668347126329     1.728323545663     1.007825032230

  Basis Set: AUG-CC-PVTZ
    Blend: AUG-CC-PVTZ
  Basis Set: (AUG-CC-PVTZ AUX)
    Blend: AUG-CC-PVTZ-JKFIT
	 Reference Energy          =    -931.0569830559650200 [Eh]
	 Singles Energy            =      -0.0000000000000000 [Eh]
	 Same-Spin Energy          =      -0.6212987898715964 [Eh]
	 Opposite-Spin Energy      =      -1.8676950237494638 [Eh]
	 Correlation Energy        =      -2.4889938136210601 [Eh]
	 Total Energy              =    -933.5459768695860703 [Eh]

	 ================> DF-SCS-MP2 Energies <==================
	-----------------------------------------------------------
	 SCS Same-Spin Scale       =       0.3333333333333333 [-]
	 SCS Opposite-Spin Scale   =       1.2000000000000000 [-]
	 SCS Same-Spin Energy      =      -0.2070995966238655 [Eh]
	 SCS Opposite-Spin Energy  =      -2.2412340284993566 [Eh]
	 SCS Correlation Energy    =      -2.4483336251232219 [Eh]
	 SCS Total Energy          =    -933.5053166810882885 [Eh]
	-----------------------------------------------------------

  Dipole Moment: [D]
     X:     4.4111      Y:     0.9853      Z:     1.8909     Total:     4.8994

*** Psi4 exiting successfully. Buy a developer a beer!
