                               Psi4 1.4a3.dev225

  ==> Input File <==

--------------------------------------------------------------------------
#psi4
#
memory 32 gb

molecule  {
0 1
  S       -1.9906940    -0.0125100    -0.1365530
  O       -2.3617000    -0.1700640     1.4590810
  O       -2.4286150    -1.2343840    -0.7923790
  O       -2.4725380     1.3090340    -0.5392830
  C       -0.2242900    -0.0021990    -0.0874500
  C        1.8486770    -1.2201060     0.0278510
  C        1.8399080     1.2326580     0.0087760
  C        0.4429230     1.2221080    -0.0627730
  C        0.4524940    -1.2213400    -0.0491660
  C        2.5197880     0.0092800     0.0551460
  C        2.6153160    -2.5166400     0.0331700
  C        2.5970370     2.5347130    -0.0106060
  H       -0.1225000     2.1495790    -0.1127420
  H       -0.1051200    -2.1541630    -0.0856740
  H        3.8077108     0.0145665     0.1313912
  H        2.0290960    -3.3176030     0.4912070
  H        2.8638720    -2.8264950    -0.9873940
  H        3.5515030    -2.4163920     0.5891050
  H        2.8417130     2.8282160    -1.0369270
  H        2.0062320     3.3400050     0.4339970
  H        3.5349660     2.4512730     0.5451920
  H       -2.8050090     0.6644540     1.7194690
units angstrom
no_reorient  #important for SAPT in psi4, default
symmetry c1  #important for SAPT in psi4, default
}

set PROPERTIES_ORIGIN ["COM"]
properties('MP2/aug-cc-pvtz', properties = ['dipole'])
--------------------------------------------------------------------------

    Molecular point group: c1
  Charge       = 0
  Multiplicity = 1
  Basis Set: AUG-CC-PVTZ
    Blend: AUG-CC-PVTZ
  Basis Set: (AUG-CC-PVTZ AUX)
    Blend: AUG-CC-PVTZ-JKFIT

    Orbital Energies [Eh]
    ---------------------

    Doubly Occupied:

       1A    -92.229607     2A    -20.629336     3A    -20.565740
       4A    -20.561524     5A    -11.287229     6A    -11.278710
       7A    -11.269855     8A    -11.269530     9A    -11.264689
      10A    -11.263957    11A    -11.241399    12A    -11.240282
      13A     -9.192504    14A     -6.878124    15A     -6.876828
      16A     -6.876587    17A     -1.493460    18A     -1.379783
      19A     -1.352187    20A     -1.188736    21A     -1.082816
      22A     -1.073689    23A     -0.961491    24A     -0.954418
      25A     -0.919721    26A     -0.815534    27A     -0.811212
      28A     -0.740746    29A     -0.721674    30A     -0.688459
      31A     -0.675279    32A     -0.665997    33A     -0.628036
      34A     -0.602111    35A     -0.601059    36A     -0.592880
      37A     -0.585304    38A     -0.572131    39A     -0.561914
      40A     -0.548142    41A     -0.524730    42A     -0.522046
      43A     -0.509891    44A     -0.506873    45A     -0.500930
      46A     -0.484650    47A     -0.473201    48A     -0.364787
      49A     -0.346588

  @DF-RHF Final Energy:  -931.03530644915611

   => Energetics <=

    Nuclear Repulsion Energy =            829.4630049251478567
    One-Electron Energy =               -2924.2438655789733275
    Two-Electron Energy =                1163.7455542046695882
    Total Energy =                       -931.0353064491559962
  Basis Set: (AUG-CC-PVTZ AUX)
    Blend: AUG-CC-PVTZ-RI
    Molecular point group: c1

    Geometry (in Angstrom), charge = 0, multiplicity = 1:

       Center              X                  Y                   Z               Mass
    ------------   -----------------  -----------------  -----------------  -----------------
         S           -1.899459134116    -0.008611586026    -0.127696496027    31.972071174400
         O           -2.270465134116    -0.166165586026     1.467937503973    15.994914619570
         O           -2.337380134116    -1.230485586026    -0.783522496027    15.994914619570
         O           -2.381303134116     1.312932413974    -0.530426496027    15.994914619570
         C           -0.133055134116     0.001699413974    -0.078593496027    12.000000000000
         C            1.939911865884    -1.216207586026     0.036707503973    12.000000000000
         C            1.931142865884     1.236556413974     0.017632503973    12.000000000000
         C            0.534157865884     1.226006413974    -0.053916496027    12.000000000000
         C            0.543728865884    -1.217441586026    -0.040309496027    12.000000000000
         C            2.611022865884     0.013178413974     0.064002503973    12.000000000000
         C            2.706550865884    -2.512741586026     0.042026503973    12.000000000000
         C            2.688271865884     2.538611413974    -0.001749496027    12.000000000000
         H           -0.031265134116     2.153477413974    -0.103885496027     1.007825032230
         H           -0.013885134116    -2.150264586026    -0.076817496027     1.007825032230
         H            3.898945665884     0.018464913974     0.140247703973     1.007825032230
         H            2.120330865884    -3.313704586026     0.500063503973     1.007825032230
         H            2.955106865884    -2.822596586026    -0.978537496027     1.007825032230
         H            3.642737865884    -2.412493586026     0.597961503973     1.007825032230
         H            2.932947865884     2.832114413974    -1.028070496027     1.007825032230
         H            2.097466865884     3.343903413974     0.442853503973     1.007825032230
         H            3.626200865884     2.455171413974     0.554048503973     1.007825032230
         H           -2.713774134116     0.668352413974     1.728325503973     1.007825032230

  Basis Set: AUG-CC-PVTZ
    Blend: AUG-CC-PVTZ
  Basis Set: (AUG-CC-PVTZ AUX)
    Blend: AUG-CC-PVTZ-JKFIT
	 Reference Energy          =    -931.0353064491561099 [Eh]
	 Singles Energy            =      -0.0000000000000000 [Eh]
	 Same-Spin Energy          =      -0.6219585575586069 [Eh]
	 Opposite-Spin Energy      =      -1.8699584692573483 [Eh]
	 Correlation Energy        =      -2.4919170268159552 [Eh]
	 Total Energy              =    -933.5272234759720504 [Eh]

	 ================> DF-SCS-MP2 Energies <==================
	-----------------------------------------------------------
	 SCS Same-Spin Scale       =       0.3333333333333333 [-]
	 SCS Opposite-Spin Scale   =       1.2000000000000000 [-]
	 SCS Same-Spin Energy      =      -0.2073195191862023 [Eh]
	 SCS Opposite-Spin Energy  =      -2.2439501631088179 [Eh]
	 SCS Correlation Energy    =      -2.4512696822950200 [Eh]
	 SCS Total Energy          =    -933.4865761314511019 [Eh]
	-----------------------------------------------------------

  Dipole Moment: [D]
     X:     4.3169      Y:     1.0026      Z:     1.8833     Total:     4.8154

*** Psi4 exiting successfully. Buy a developer a beer!
