                               Psi4 1.4a3.dev225

  ==> Input File <==

--------------------------------------------------------------------------
#psi4
#
memory 32 gb

molecule  {
0 1
  S       -1.9906940    -0.0125100    -0.1365530
  O       -2.3617000    -0.1700640     1.4590810
  O       -2.4286150    -1.2343840    -0.7923790
  O       -2.4725380     1.3090340    -0.5392830
  C       -0.2242900    -0.0021990    -0.0874500
  C        1.8486770    -1.2201060     0.0278510
  C        1.8399080     1.2326580     0.0087760
  C        0.4429230     1.2221080    -0.0627730
  C        0.4524940    -1.2213400    -0.0491660
  C        2.5197880     0.0092800     0.0551460
  C        2.6153160    -2.5166400     0.0331700
  C        2.5970370     2.5347130    -0.0106060
  H       -0.1225000     2.1495790    -0.1127420
  H       -0.1051200    -2.1541630    -0.0856740
  H        3.6080620     0.0137470     0.1195720
  H        2.0398213    -3.3029489     0.4828269
  H        2.8638720    -2.8264950    -0.9873940
  H        3.5515030    -2.4163920     0.5891050
  H        2.8417130     2.8282160    -1.0369270
  H        2.0062320     3.3400050     0.4339970
  H        3.5349660     2.4512730     0.5451920
  H       -2.8050090     0.6644540     1.7194690
units angstrom
no_reorient  #important for SAPT in psi4, default
symmetry c1  #important for SAPT in psi4, default
}

set PROPERTIES_ORIGIN ["COM"]
properties('MP2/aug-cc-pvtz', properties = ['dipole'])
--------------------------------------------------------------------------

    Molecular point group: c1
  Charge       = 0
  Multiplicity = 1
  Basis Set: AUG-CC-PVTZ
    Blend: AUG-CC-PVTZ
  Basis Set: (AUG-CC-PVTZ AUX)
    Blend: AUG-CC-PVTZ-JKFIT

    Orbital Energies [Eh]
    ---------------------

    Doubly Occupied:

       1A    -92.228754     2A    -20.628629     3A    -20.564962
       4A    -20.560749     5A    -11.286036     6A    -11.267373
       7A    -11.266963     8A    -11.262733     9A    -11.262016
      10A    -11.256982    11A    -11.241427    12A    -11.237961
      13A     -9.191660    14A     -6.877280    15A     -6.875980
      16A     -6.875743    17A     -1.492701    18A     -1.379066
      19A     -1.351421    20A     -1.187839    21A     -1.081850
      22A     -1.075472    23A     -0.963338    24A     -0.954231
      25A     -0.924000    26A     -0.819108    27A     -0.810352
      28A     -0.740050    29A     -0.722842    30A     -0.691193
      31A     -0.683750    32A     -0.670749    33A     -0.627797
      34A     -0.603040    35A     -0.600948    36A     -0.591714
      37A     -0.585837    38A     -0.574483    39A     -0.570361
      40A     -0.548965    41A     -0.537573    42A     -0.523570
      43A     -0.508412    44A     -0.506883    45A     -0.500906
      46A     -0.483968    47A     -0.473567    48A     -0.363225
      49A     -0.345036

  @DF-RHF Final Energy:  -931.05747494032653

   => Energetics <=

    Nuclear Repulsion Energy =            830.5604737642794362
    One-Electron Energy =               -2926.4769074063074186
    Two-Electron Energy =                1164.8589587017015674
    Total Energy =                       -931.0574749403265287
  Basis Set: (AUG-CC-PVTZ AUX)
    Blend: AUG-CC-PVTZ-RI
    Molecular point group: c1

    Geometry (in Angstrom), charge = 0, multiplicity = 1:

       Center              X                  Y                   Z               Mass
    ------------   -----------------  -----------------  -----------------  -----------------
         S           -1.898435661299    -0.008686533490    -0.127587068484    31.972071174400
         O           -2.269441661299    -0.166240533490     1.468046931516    15.994914619570
         O           -2.336356661299    -1.230560533490    -0.783413068484    15.994914619570
         O           -2.380279661299     1.312857466510    -0.530317068484    15.994914619570
         C           -0.132031661299     0.001624466510    -0.078484068484    12.000000000000
         C            1.940935338701    -1.216282533490     0.036816931516    12.000000000000
         C            1.932166338701     1.236481466510     0.017741931516    12.000000000000
         C            0.535181338701     1.225931466510    -0.053807068484    12.000000000000
         C            0.544752338701    -1.217516533490    -0.040200068484    12.000000000000
         C            2.612046338701     0.013103466510     0.064111931516    12.000000000000
         C            2.707574338701    -2.512816533490     0.042135931516    12.000000000000
         C            2.689295338701     2.538536466510    -0.001640068484    12.000000000000
         H           -0.030241661299     2.153402466510    -0.103776068484     1.007825032230
         H           -0.012861661299    -2.150339533490    -0.076708068484     1.007825032230
         H            3.700320338701     0.017570466510     0.128537931516     1.007825032230
         H            2.132079638701    -3.299125433490     0.491792831516     1.007825032230
         H            2.956130338701    -2.822671533490    -0.978428068484     1.007825032230
         H            3.643761338701    -2.412568533490     0.598070931516     1.007825032230
         H            2.933971338701     2.832039466510    -1.027961068484     1.007825032230
         H            2.098490338701     3.343828466510     0.442962931516     1.007825032230
         H            3.627224338701     2.455096466510     0.554157931516     1.007825032230
         H           -2.712750661299     0.668277466510     1.728434931516     1.007825032230

  Basis Set: AUG-CC-PVTZ
    Blend: AUG-CC-PVTZ
  Basis Set: (AUG-CC-PVTZ AUX)
    Blend: AUG-CC-PVTZ-JKFIT
	 Reference Energy          =    -931.0574749403265287 [Eh]
	 Singles Energy            =      -0.0000000000000000 [Eh]
	 Same-Spin Energy          =      -0.6212940258105937 [Eh]
	 Opposite-Spin Energy      =      -1.8675513502563250 [Eh]
	 Correlation Energy        =      -2.4888453760669185 [Eh]
	 Total Energy              =    -933.5463203163934622 [Eh]

	 ================> DF-SCS-MP2 Energies <==================
	-----------------------------------------------------------
	 SCS Same-Spin Scale       =       0.3333333333333333 [-]
	 SCS Opposite-Spin Scale   =       1.2000000000000000 [-]
	 SCS Same-Spin Energy      =      -0.2070980086035312 [Eh]
	 SCS Opposite-Spin Energy  =      -2.2410616203075899 [Eh]
	 SCS Correlation Energy    =      -2.4481596289111209 [Eh]
	 SCS Total Energy          =    -933.5056345692375999 [Eh]
	-----------------------------------------------------------

  Dipole Moment: [D]
     X:     4.4276      Y:     0.9943      Z:     1.8924     Total:     4.9166

*** Psi4 exiting successfully. Buy a developer a beer!
