                               Psi4 1.4a3.dev225

  ==> Input File <==

--------------------------------------------------------------------------
#psi4
#
memory 32 gb

molecule  {
0 1
  S       -2.0142156     0.0398932    -0.1358137
  O       -2.3617000    -0.1700640     1.4590810
  O       -2.4286150    -1.2343840    -0.7923790
  O       -2.4725380     1.3090340    -0.5392830
  C       -0.2242900    -0.0021990    -0.0874500
  C        1.8486770    -1.2201060     0.0278510
  C        1.8399080     1.2326580     0.0087760
  C        0.4429230     1.2221080    -0.0627730
  C        0.4524940    -1.2213400    -0.0491660
  C        2.5197880     0.0092800     0.0551460
  C        2.6153160    -2.5166400     0.0331700
  C        2.5970370     2.5347130    -0.0106060
  H       -0.1225000     2.1495790    -0.1127420
  H       -0.1051200    -2.1541630    -0.0856740
  H        3.6080620     0.0137470     0.1195720
  H        2.0290960    -3.3176030     0.4912070
  H        2.8638720    -2.8264950    -0.9873940
  H        3.5515030    -2.4163920     0.5891050
  H        2.8417130     2.8282160    -1.0369270
  H        2.0062320     3.3400050     0.4339970
  H        3.5349660     2.4512730     0.5451920
  H       -2.8050090     0.6644540     1.7194690
units angstrom
no_reorient  #important for SAPT in psi4, default
symmetry c1  #important for SAPT in psi4, default
}

set PROPERTIES_ORIGIN ["COM"]
properties('MP2/aug-cc-pvtz', properties = ['dipole'])
--------------------------------------------------------------------------

    Molecular point group: c1
  Charge       = 0
  Multiplicity = 1
  Basis Set: AUG-CC-PVTZ
    Blend: AUG-CC-PVTZ
  Basis Set: (AUG-CC-PVTZ AUX)
    Blend: AUG-CC-PVTZ-JKFIT

    Orbital Energies [Eh]
    ---------------------

    Doubly Occupied:

       1A    -92.228113     2A    -20.631881     3A    -20.579424
       4A    -20.551551     5A    -11.285151     6A    -11.265803
       7A    -11.265377     8A    -11.260351     9A    -11.259093
      10A    -11.254542    11A    -11.240544    12A    -11.238825
      13A     -9.191553    14A     -6.877190    15A     -6.876092
      16A     -6.875376    17A     -1.505999    18A     -1.393673
      19A     -1.343170    20A     -1.185102    21A     -1.079848
      22A     -1.070723    23A     -0.960532    24A     -0.951838
      25A     -0.919738    26A     -0.817650    27A     -0.807701
      28A     -0.740803    29A     -0.725320    30A     -0.694536
      31A     -0.683845    32A     -0.672015    33A     -0.635812
      34A     -0.601016    35A     -0.599508    36A     -0.589916
      37A     -0.584000    38A     -0.575915    39A     -0.568294
      40A     -0.546826    41A     -0.540538    42A     -0.530278
      43A     -0.510223    44A     -0.506273    45A     -0.498540
      46A     -0.481984    47A     -0.466762    48A     -0.360553
      49A     -0.343226

  @DF-RHF Final Energy:  -931.05234113668996

   => Energetics <=

    Nuclear Repulsion Energy =            830.1282494598139010
    One-Electron Energy =               -2925.6151364284282863
    Two-Electron Energy =                1164.4345458319244244
    Total Energy =                       -931.0523411366898472
  Basis Set: (AUG-CC-PVTZ AUX)
    Blend: AUG-CC-PVTZ-RI
    Molecular point group: c1

    Geometry (in Angstrom), charge = 0, multiplicity = 1:

       Center              X                  Y                   Z               Mass
    ------------   -----------------  -----------------  -----------------  -----------------
         S           -1.917856725232     0.034790015676    -0.127020223213    31.972071174400
         O           -2.265341125232    -0.175167184324     1.467874476787    15.994914619570
         O           -2.332256125232    -1.239487184324    -0.783585523213    15.994914619570
         O           -2.376179125232     1.303930815676    -0.530489523213    15.994914619570
         C           -0.127931125232    -0.007302184324    -0.078656523213    12.000000000000
         C            1.945035874768    -1.225209184324     0.036644476787    12.000000000000
         C            1.936266874768     1.227554815676     0.017569476787    12.000000000000
         C            0.539281874768     1.217004815676    -0.053979523213    12.000000000000
         C            0.548852874768    -1.226443184324    -0.040372523213    12.000000000000
         C            2.616146874768     0.004176815676     0.063939476787    12.000000000000
         C            2.711674874768    -2.521743184324     0.041963476787    12.000000000000
         C            2.693395874768     2.529609815676    -0.001812523213    12.000000000000
         H           -0.026141125232     2.144475815676    -0.103948523213     1.007825032230
         H           -0.008761125232    -2.159266184324    -0.076880523213     1.007825032230
         H            3.704420874768     0.008643815676     0.128365476787     1.007825032230
         H            2.125454874768    -3.322706184324     0.500000476787     1.007825032230
         H            2.960230874768    -2.831598184324    -0.978600523213     1.007825032230
         H            3.647861874768    -2.421495184324     0.597898476787     1.007825032230
         H            2.938071874768     2.823112815676    -1.028133523213     1.007825032230
         H            2.102590874768     3.334901815676     0.442790476787     1.007825032230
         H            3.631324874768     2.446169815676     0.553985476787     1.007825032230
         H           -2.708650125232     0.659350815676     1.728262476787     1.007825032230

  Basis Set: AUG-CC-PVTZ
    Blend: AUG-CC-PVTZ
  Basis Set: (AUG-CC-PVTZ AUX)
    Blend: AUG-CC-PVTZ-JKFIT
	 Reference Energy          =    -931.0523411366899609 [Eh]
	 Singles Energy            =      -0.0000000000000000 [Eh]
	 Same-Spin Energy          =      -0.6210112022912394 [Eh]
	 Opposite-Spin Energy      =      -1.8673765342915780 [Eh]
	 Correlation Energy        =      -2.4883877365828173 [Eh]
	 Total Energy              =    -933.5407288732727693 [Eh]

	 ================> DF-SCS-MP2 Energies <==================
	-----------------------------------------------------------
	 SCS Same-Spin Scale       =       0.3333333333333333 [-]
	 SCS Opposite-Spin Scale   =       1.2000000000000000 [-]
	 SCS Same-Spin Energy      =      -0.2070037340970798 [Eh]
	 SCS Opposite-Spin Energy  =      -2.2408518411498934 [Eh]
	 SCS Correlation Energy    =      -2.4478555752469733 [Eh]
	 SCS Total Energy          =    -933.5001967119369510 [Eh]
	-----------------------------------------------------------

  Dipole Moment: [D]
     X:     4.1218      Y:     1.4608      Z:     1.9171     Total:     4.7748

*** Psi4 exiting successfully. Buy a developer a beer!
