                               Psi4 1.4a3.dev225

  ==> Input File <==

--------------------------------------------------------------------------
#psi4
#
memory 32 gb

molecule  {
0 1
  S       -1.9906940    -0.0125100    -0.1365530
  O       -2.3617000    -0.1700640     1.4590810
  O       -2.4286150    -1.2343840    -0.7923790
  O       -2.4725380     1.3090340    -0.5392830
  C       -0.2242900    -0.0021990    -0.0874500
  C        1.8486770    -1.2201060     0.0278510
  C        1.8399080     1.2326580     0.0087760
  C        0.4429230     1.2221080    -0.0627730
  C        0.4524940    -1.2213400    -0.0491660
  C        2.5197880     0.0092800     0.0551460
  C        2.6153160    -2.5166400     0.0331700
  C        2.5970370     2.5347130    -0.0106060
  H       -0.1225000     2.1495790    -0.1127420
  H       -0.1051200    -2.1541630    -0.0856740
  H        3.6080620     0.0137470     0.1195720
  H        2.0290960    -3.3176030     0.4912070
  H        2.8452570    -2.8265535    -0.9917309
  H        3.5515030    -2.4163920     0.5891050
  H        2.8417130     2.8282160    -1.0369270
  H        2.0062320     3.3400050     0.4339970
  H        3.5349660     2.4512730     0.5451920
  H       -2.8050090     0.6644540     1.7194690
units angstrom
no_reorient  #important for SAPT in psi4, default
symmetry c1  #important for SAPT in psi4, default
}

set PROPERTIES_ORIGIN ["COM"]
properties('MP2/aug-cc-pvtz', properties = ['dipole'])
--------------------------------------------------------------------------

    Molecular point group: c1
  Charge       = 0
  Multiplicity = 1
  Basis Set: AUG-CC-PVTZ
    Blend: AUG-CC-PVTZ
  Basis Set: (AUG-CC-PVTZ AUX)
    Blend: AUG-CC-PVTZ-JKFIT

    Orbital Energies [Eh]
    ---------------------

    Doubly Occupied:

       1A    -92.228762     2A    -20.628635     3A    -20.564970
       4A    -20.560756     5A    -11.286051     6A    -11.267418
       7A    -11.267047     8A    -11.262702     9A    -11.261984
      10A    -11.257035    11A    -11.241452    12A    -11.240415
      13A     -9.191669    14A     -6.877288    15A     -6.875988
      16A     -6.875751    17A     -1.492708    18A     -1.379072
      19A     -1.351429    20A     -1.187849    21A     -1.081660
      22A     -1.075427    23A     -0.962467    24A     -0.953692
      25A     -0.924013    26A     -0.819101    27A     -0.809758
      28A     -0.740022    29A     -0.722760    30A     -0.691183
      31A     -0.683648    32A     -0.670658    33A     -0.627791
      34A     -0.602381    35A     -0.601067    36A     -0.591612
      37A     -0.585856    38A     -0.574477    39A     -0.569159
      40A     -0.547843    41A     -0.537584    42A     -0.523632
      43A     -0.508240    44A     -0.506793    45A     -0.500730
      46A     -0.483986    47A     -0.473608    48A     -0.363276
      49A     -0.344969

  @DF-RHF Final Energy:  -931.05739755819422

   => Energetics <=

    Nuclear Repulsion Energy =            830.4961375268716210
    One-Electron Energy =               -2926.3543262818129733
    Two-Electron Energy =                1164.8007911967470136
    Total Energy =                       -931.0573975581942250
  Basis Set: (AUG-CC-PVTZ AUX)
    Blend: AUG-CC-PVTZ-RI
    Molecular point group: c1

    Geometry (in Angstrom), charge = 0, multiplicity = 1:

       Center              X                  Y                   Z               Mass
    ------------   -----------------  -----------------  -----------------  -----------------
         S           -1.898276713368    -0.008606829556    -0.127608972087    31.972071174400
         O           -2.269282713368    -0.166160829556     1.468025027913    15.994914619570
         O           -2.336197713368    -1.230480829556    -0.783434972087    15.994914619570
         O           -2.380120713368     1.312937170444    -0.530338972087    15.994914619570
         C           -0.131872713368     0.001704170444    -0.078505972087    12.000000000000
         C            1.941094286632    -1.216202829556     0.036795027913    12.000000000000
         C            1.932325286632     1.236561170444     0.017720027913    12.000000000000
         C            0.535340286632     1.226011170444    -0.053828972087    12.000000000000
         C            0.544911286632    -1.217436829556    -0.040221972087    12.000000000000
         C            2.612205286632     0.013183170444     0.064090027913    12.000000000000
         C            2.707733286632    -2.512736829556     0.042114027913    12.000000000000
         C            2.689454286632     2.538616170444    -0.001661972087    12.000000000000
         H           -0.030082713368     2.153482170444    -0.103797972087     1.007825032230
         H           -0.012702713368    -2.150259829556    -0.076729972087     1.007825032230
         H            3.700479286632     0.017650170444     0.128516027913     1.007825032230
         H            2.121513286632    -3.313699829556     0.500151027913     1.007825032230
         H            2.937674286632    -2.822650329556    -0.982786872087     1.007825032230
         H            3.643920286632    -2.412488829556     0.598049027913     1.007825032230
         H            2.934130286632     2.832119170444    -1.027982972087     1.007825032230
         H            2.098649286632     3.343908170444     0.442941027913     1.007825032230
         H            3.627383286632     2.455176170444     0.554136027913     1.007825032230
         H           -2.712591713368     0.668357170444     1.728413027913     1.007825032230

  Basis Set: AUG-CC-PVTZ
    Blend: AUG-CC-PVTZ
  Basis Set: (AUG-CC-PVTZ AUX)
    Blend: AUG-CC-PVTZ-JKFIT
	 Reference Energy          =    -931.0573975581942250 [Eh]
	 Singles Energy            =      -0.0000000000000000 [Eh]
	 Same-Spin Energy          =      -0.6213044601537432 [Eh]
	 Opposite-Spin Energy      =      -1.8676925822995400 [Eh]
	 Correlation Energy        =      -2.4889970424532830 [Eh]
	 Total Energy              =    -933.5463946006475453 [Eh]

	 ================> DF-SCS-MP2 Energies <==================
	-----------------------------------------------------------
	 SCS Same-Spin Scale       =       0.3333333333333333 [-]
	 SCS Opposite-Spin Scale   =       1.2000000000000000 [-]
	 SCS Same-Spin Energy      =      -0.2071014867179144 [Eh]
	 SCS Opposite-Spin Energy  =      -2.2412310987594481 [Eh]
	 SCS Correlation Energy    =      -2.4483325854773623 [Eh]
	 SCS Total Energy          =    -933.5057301436715989 [Eh]
	-----------------------------------------------------------

  Dipole Moment: [D]
     X:     4.4236      Y:     0.9988      Z:     1.8898     Total:     4.9130

*** Psi4 exiting successfully. Buy a developer a beer!
