                               Psi4 1.4a3.dev225

  ==> Input File <==

--------------------------------------------------------------------------
#psi4
#
memory 32 gb

molecule  {
0 1
  S       -1.9906940    -0.0125100    -0.1365530
  O       -2.3617000    -0.1700640     1.4590810
  O       -2.4286150    -1.2343840    -0.7923790
  O       -2.4725380     1.3090340    -0.5392830
  C       -0.2242900    -0.0021990    -0.0874500
  C        1.8486770    -1.2201060     0.0278510
  C        1.8399080     1.2326580     0.0087760
  C        0.4429230     1.2221080    -0.0627730
  C        0.4524940    -1.2213400    -0.0491660
  C        2.4764785     0.0319672     0.0543614
  C        2.6153160    -2.5166400     0.0331700
  C        2.5970370     2.5347130    -0.0106060
  H       -0.1225000     2.1495790    -0.1127420
  H       -0.1051200    -2.1541630    -0.0856740
  H        3.6080620     0.0137470     0.1195720
  H        2.0290960    -3.3176030     0.4912070
  H        2.8638720    -2.8264950    -0.9873940
  H        3.5515030    -2.4163920     0.5891050
  H        2.8417130     2.8282160    -1.0369270
  H        2.0062320     3.3400050     0.4339970
  H        3.5349660     2.4512730     0.5451920
  H       -2.8050090     0.6644540     1.7194690
units angstrom
no_reorient  #important for SAPT in psi4, default
symmetry c1  #important for SAPT in psi4, default
}

set PROPERTIES_ORIGIN ["COM"]
properties('MP2/aug-cc-pvtz', properties = ['dipole'])
--------------------------------------------------------------------------

    Molecular point group: c1
  Charge       = 0
  Multiplicity = 1
  Basis Set: AUG-CC-PVTZ
    Blend: AUG-CC-PVTZ
  Basis Set: (AUG-CC-PVTZ AUX)
    Blend: AUG-CC-PVTZ-JKFIT

    Orbital Energies [Eh]
    ---------------------

    Doubly Occupied:

       1A    -92.228608     2A    -20.628447     3A    -20.564749
       4A    -20.560626     5A    -11.285266     6A    -11.267016
       7A    -11.264170     8A    -11.262352     9A    -11.261451
      10A    -11.256270    11A    -11.241843    12A    -11.241759
      13A     -9.191498    14A     -6.877120    15A     -6.875819
      16A     -6.875582    17A     -1.492535    18A     -1.378916
      19A     -1.351263    20A     -1.191852    21A     -1.084080
      22A     -1.075417    23A     -0.964959    24A     -0.954027
      25A     -0.922449    26A     -0.817210    27A     -0.815462
      28A     -0.739938    29A     -0.722411    30A     -0.689328
      31A     -0.681622    32A     -0.670210    33A     -0.627595
      34A     -0.604555    35A     -0.602150    36A     -0.592205
      37A     -0.585856    38A     -0.572100    39A     -0.567584
      40A     -0.548611    41A     -0.530388    42A     -0.523672
      43A     -0.513925    44A     -0.506740    45A     -0.501473
      46A     -0.483755    47A     -0.472613    48A     -0.366667
      49A     -0.345507

  @DF-RHF Final Energy:  -931.05480353610074

   => Energetics <=

    Nuclear Repulsion Energy =            831.3536938328539918
    One-Electron Energy =               -2928.0576976038078101
    Two-Electron Energy =                1165.6492002348531969
    Total Energy =                       -931.0548035361007351
  Basis Set: (AUG-CC-PVTZ AUX)
    Blend: AUG-CC-PVTZ-RI
    Molecular point group: c1

    Geometry (in Angstrom), charge = 0, multiplicity = 1:

       Center              X                  Y                   Z               Mass
    ------------   -----------------  -----------------  -----------------  -----------------
         S           -1.895583923511    -0.010070560908    -0.127581856964    31.972071174400
         O           -2.266589923511    -0.167624560908     1.468052143036    15.994914619570
         O           -2.333504923511    -1.231944560908    -0.783407856964    15.994914619570
         O           -2.377427923511     1.311473439092    -0.530311856964    15.994914619570
         C           -0.129179923511     0.000240439092    -0.078478856964    12.000000000000
         C            1.943787076489    -1.217666560908     0.036822143036    12.000000000000
         C            1.935018076489     1.235097439092     0.017747143036    12.000000000000
         C            0.538033076489     1.224547439092    -0.053801856964    12.000000000000
         C            0.547604076489    -1.218900560908    -0.040194856964    12.000000000000
         C            2.571588576489     0.034406639092     0.063332543036    12.000000000000
         C            2.710426076489    -2.514200560908     0.042141143036    12.000000000000
         C            2.692147076489     2.537152439092    -0.001634856964    12.000000000000
         H           -0.027389923511     2.152018439092    -0.103770856964     1.007825032230
         H           -0.010009923511    -2.151723560908    -0.076702856964     1.007825032230
         H            3.703172076489     0.016186439092     0.128543143036     1.007825032230
         H            2.124206076489    -3.315163560908     0.500178143036     1.007825032230
         H            2.958982076489    -2.824055560908    -0.978422856964     1.007825032230
         H            3.646613076489    -2.413952560908     0.598076143036     1.007825032230
         H            2.936823076489     2.830655439092    -1.027955856964     1.007825032230
         H            2.101342076489     3.342444439092     0.442968143036     1.007825032230
         H            3.630076076489     2.453712439092     0.554163143036     1.007825032230
         H           -2.709898923511     0.666893439092     1.728440143036     1.007825032230

  Basis Set: AUG-CC-PVTZ
    Blend: AUG-CC-PVTZ
  Basis Set: (AUG-CC-PVTZ AUX)
    Blend: AUG-CC-PVTZ-JKFIT
	 Reference Energy          =    -931.0548035361007351 [Eh]
	 Singles Energy            =      -0.0000000000000000 [Eh]
	 Same-Spin Energy          =      -0.6213321184182750 [Eh]
	 Opposite-Spin Energy      =      -1.8676448900736689 [Eh]
	 Correlation Energy        =      -2.4889770084919438 [Eh]
	 Total Energy              =    -933.5437805445926642 [Eh]

	 ================> DF-SCS-MP2 Energies <==================
	-----------------------------------------------------------
	 SCS Same-Spin Scale       =       0.3333333333333333 [-]
	 SCS Opposite-Spin Scale   =       1.2000000000000000 [-]
	 SCS Same-Spin Energy      =      -0.2071107061394250 [Eh]
	 SCS Opposite-Spin Energy  =      -2.2411738680884024 [Eh]
	 SCS Correlation Energy    =      -2.4482845742278272 [Eh]
	 SCS Total Energy          =    -933.5030881103285765 [Eh]
	-----------------------------------------------------------

  Dipole Moment: [D]
     X:     4.4087      Y:     0.9749      Z:     1.8882     Total:     4.8941

*** Psi4 exiting successfully. Buy a developer a beer!
