                               Psi4 1.4a3.dev225

  ==> Input File <==

--------------------------------------------------------------------------
#psi4
#
memory 32 gb

molecule  {
0 1
  S       -1.9906940    -0.0125100    -0.1365530
  O       -2.3617000    -0.1700640     1.4590810
  O       -2.4286150    -1.2343840    -0.7923790
  O       -2.4725380     1.3090340    -0.5392830
  C       -0.2242900    -0.0021990    -0.0874500
  C        1.8486770    -1.2201060     0.0278510
  C        1.8399080     1.2326580     0.0087760
  C        0.4429230     1.2221080    -0.0627730
  C        0.4524940    -1.2213400    -0.0491660
  C        2.5197880     0.0092800     0.0551460
  C        2.6153160    -2.5166400     0.0331700
  C        2.5970370     2.5347130    -0.0106060
  H       -0.1225000     2.1495790    -0.1127420
  H       -0.1051200    -2.1541630    -0.0856740
  H        3.6080620     0.0137470     0.1195720
  H        2.0290960    -3.3176030     0.4912070
  H        2.8638720    -2.8264950    -0.9873940
  H        3.3802623    -2.4347287     0.4874173
  H        2.8417130     2.8282160    -1.0369270
  H        2.0062320     3.3400050     0.4339970
  H        3.5349660     2.4512730     0.5451920
  H       -2.8050090     0.6644540     1.7194690
units angstrom
no_reorient  #important for SAPT in psi4, default
symmetry c1  #important for SAPT in psi4, default
}

set PROPERTIES_ORIGIN ["COM"]
properties('MP2/aug-cc-pvtz', properties = ['dipole'])
--------------------------------------------------------------------------

    Molecular point group: c1
  Charge       = 0
  Multiplicity = 1
  Basis Set: AUG-CC-PVTZ
    Blend: AUG-CC-PVTZ
  Basis Set: (AUG-CC-PVTZ AUX)
    Blend: AUG-CC-PVTZ-JKFIT

    Orbital Energies [Eh]
    ---------------------

    Doubly Occupied:

       1A    -92.228402     2A    -20.628359     3A    -20.564659
       4A    -20.560416     5A    -11.285558     6A    -11.267271
       7A    -11.265909     8A    -11.262315     9A    -11.261057
      10A    -11.257002    11A    -11.241340    12A    -11.215879
      13A     -9.191316    14A     -6.876936    15A     -6.875634
      16A     -6.875397    17A     -1.492399    18A     -1.378780
      19A     -1.351109    20A     -1.187796    21A     -1.085903
      22A     -1.076375    23A     -0.978245    24A     -0.956824
      25A     -0.923735    26A     -0.820683    27A     -0.813334
      28A     -0.741035    29A     -0.723511    30A     -0.691038
      31A     -0.685478    32A     -0.671757    33A     -0.629474
      34A     -0.613006    35A     -0.601030    36A     -0.594046
      37A     -0.590975    38A     -0.578195    39A     -0.571806
      40A     -0.554338    41A     -0.538029    42A     -0.523635
      43A     -0.507694    44A     -0.506372    45A     -0.500377
      46A     -0.483813    47A     -0.473726    48A     -0.363290
      49A     -0.344597

  @DF-RHF Final Energy:  -931.02345232464302

   => Energetics <=

    Nuclear Repulsion Energy =            831.5161805825330248
    One-Electron Energy =               -2928.2595555202365176
    Two-Electron Energy =                1165.7199226130601346
    Total Energy =                       -931.0234523246431309
  Basis Set: (AUG-CC-PVTZ AUX)
    Blend: AUG-CC-PVTZ-RI
    Molecular point group: c1

    Geometry (in Angstrom), charge = 0, multiplicity = 1:

       Center              X                  Y                   Z               Mass
    ------------   -----------------  -----------------  -----------------  -----------------
         S           -1.897449879992    -0.008507809366    -0.127081584559    31.972071174400
         O           -2.268455879992    -0.166061809366     1.468552415441    15.994914619570
         O           -2.335370879992    -1.230381809366    -0.782907584559    15.994914619570
         O           -2.379293879992     1.313036190634    -0.529811584559    15.994914619570
         C           -0.131045879992     0.001803190634    -0.077978584559    12.000000000000
         C            1.941921120008    -1.216103809366     0.037322415441    12.000000000000
         C            1.933152120008     1.236660190634     0.018247415441    12.000000000000
         C            0.536167120008     1.226110190634    -0.053301584559    12.000000000000
         C            0.545738120008    -1.217337809366    -0.039694584559    12.000000000000
         C            2.613032120008     0.013282190634     0.064617415441    12.000000000000
         C            2.708560120008    -2.512637809366     0.042641415441    12.000000000000
         C            2.690281120008     2.538715190634    -0.001134584559    12.000000000000
         H           -0.029255879992     2.153581190634    -0.103270584559     1.007825032230
         H           -0.011875879992    -2.150160809366    -0.076202584559     1.007825032230
         H            3.701306120008     0.017749190634     0.129043415441     1.007825032230
         H            2.122340120008    -3.313600809366     0.500678415441     1.007825032230
         H            2.957116120008    -2.822492809366    -0.977922584559     1.007825032230
         H            3.473506420008    -2.430726509366     0.496888715441     1.007825032230
         H            2.934957120008     2.832218190634    -1.027455584559     1.007825032230
         H            2.099476120008     3.344007190634     0.443468415441     1.007825032230
         H            3.628210120008     2.455275190634     0.554663415441     1.007825032230
         H           -2.711764879992     0.668456190634     1.728940415441     1.007825032230

  Basis Set: AUG-CC-PVTZ
    Blend: AUG-CC-PVTZ
  Basis Set: (AUG-CC-PVTZ AUX)
    Blend: AUG-CC-PVTZ-JKFIT
	 Reference Energy          =    -931.0234523246430172 [Eh]
	 Singles Energy            =      -0.0000000000000000 [Eh]
	 Same-Spin Energy          =      -0.6213693310449390 [Eh]
	 Opposite-Spin Energy      =      -1.8670115042532403 [Eh]
	 Correlation Energy        =      -2.4883808352981793 [Eh]
	 Total Energy              =    -933.5118331599411476 [Eh]

	 ================> DF-SCS-MP2 Energies <==================
	-----------------------------------------------------------
	 SCS Same-Spin Scale       =       0.3333333333333333 [-]
	 SCS Opposite-Spin Scale   =       1.2000000000000000 [-]
	 SCS Same-Spin Energy      =      -0.2071231103483130 [Eh]
	 SCS Opposite-Spin Energy  =      -2.2404138051038882 [Eh]
	 SCS Correlation Energy    =      -2.4475369154522011 [Eh]
	 SCS Total Energy          =    -933.4709892400952640 [Eh]
	-----------------------------------------------------------

  Dipole Moment: [D]
     X:     4.4951      Y:     0.9747      Z:     1.9128     Total:     4.9814

*** Psi4 exiting successfully. Buy a developer a beer!
