                               Psi4 1.4a3.dev225

  ==> Input File <==

--------------------------------------------------------------------------
#psi4
#
memory 32 gb

molecule  {
0 1
  S       -1.9906940    -0.0125100    -0.1365530
  O       -2.3617000    -0.1700640     1.4590810
  O       -2.4286150    -1.2343840    -0.7923790
  O       -2.4725380     1.3090340    -0.5392830
  C       -0.2242900    -0.0021990    -0.0874500
  C        1.8486770    -1.2201060     0.0278510
  C        1.8399080     1.2326580     0.0087760
  C        0.2431905     1.2205996    -0.0730026
  C        0.4524940    -1.2213400    -0.0491660
  C        2.5197880     0.0092800     0.0551460
  C        2.6153160    -2.5166400     0.0331700
  C        2.5970370     2.5347130    -0.0106060
  H       -0.1225000     2.1495790    -0.1127420
  H       -0.1051200    -2.1541630    -0.0856740
  H        3.6080620     0.0137470     0.1195720
  H        2.0290960    -3.3176030     0.4912070
  H        2.8638720    -2.8264950    -0.9873940
  H        3.5515030    -2.4163920     0.5891050
  H        2.8417130     2.8282160    -1.0369270
  H        2.0062320     3.3400050     0.4339970
  H        3.5349660     2.4512730     0.5451920
  H       -2.8050090     0.6644540     1.7194690
units angstrom
no_reorient  #important for SAPT in psi4, default
symmetry c1  #important for SAPT in psi4, default
}

set PROPERTIES_ORIGIN ["COM"]
properties('MP2/aug-cc-pvtz', properties = ['dipole'])
--------------------------------------------------------------------------

    Molecular point group: c1
  Charge       = 0
  Multiplicity = 1
  Basis Set: AUG-CC-PVTZ
    Blend: AUG-CC-PVTZ
  Basis Set: (AUG-CC-PVTZ AUX)
    Blend: AUG-CC-PVTZ-JKFIT

    Orbital Energies [Eh]
    ---------------------

    Doubly Occupied:

       1A    -92.222708     2A    -20.626612     3A    -20.563596
       4A    -20.556669     5A    -11.286746     6A    -11.284592
       7A    -11.270475     8A    -11.268529     9A    -11.254963
      10A    -11.253253    11A    -11.244841    12A    -11.240768
      13A     -9.186571    14A     -6.872063    15A     -6.870672
      16A     -6.870587    17A     -1.490946    18A     -1.377079
      19A     -1.349464    20A     -1.184415    21A     -1.091281
      22A     -1.067911    23A     -0.963849    24A     -0.957886
      25A     -0.918286    26A     -0.816302    27A     -0.807965
      28A     -0.743177    29A     -0.731656    30A     -0.691391
      31A     -0.685179    32A     -0.665966    33A     -0.626590
      34A     -0.618850    35A     -0.599683    36A     -0.589699
      37A     -0.585663    38A     -0.574272    39A     -0.569911
      40A     -0.550547    41A     -0.527791    42A     -0.523290
      43A     -0.517615    44A     -0.501625    45A     -0.498920
      46A     -0.481937    47A     -0.453409    48A     -0.379028
      49A     -0.328169

  @DF-RHF Final Energy:  -931.01628734905364

   => Energetics <=

    Nuclear Repulsion Energy =            830.8584578695931668
    One-Electron Energy =               -2927.0626968455180759
    Two-Electron Energy =                1165.1879516268713814
    Total Energy =                       -931.0162873490535276
  Basis Set: (AUG-CC-PVTZ AUX)
    Blend: AUG-CC-PVTZ-RI
    Molecular point group: c1

    Geometry (in Angstrom), charge = 0, multiplicity = 1:

       Center              X                  Y                   Z               Mass
    ------------   -----------------  -----------------  -----------------  -----------------
         S           -1.885494019242    -0.008509848687    -0.126972616981    31.972071174400
         O           -2.256500019242    -0.166063848687     1.468661383019    15.994914619570
         O           -2.323415019242    -1.230383848687    -0.782798616981    15.994914619570
         O           -2.367338019242     1.313034151313    -0.529702616981    15.994914619570
         C           -0.119090019242     0.001801151313    -0.077869616981    12.000000000000
         C            1.953876980758    -1.216105848687     0.037431383019    12.000000000000
         C            1.945107980758     1.236658151313     0.018356383019    12.000000000000
         C            0.348390480758     1.224599751313    -0.063422216981    12.000000000000
         C            0.557693980758    -1.217339848687    -0.039585616981    12.000000000000
         C            2.624987980758     0.013280151313     0.064726383019    12.000000000000
         C            2.720515980758    -2.512639848687     0.042750383019    12.000000000000
         C            2.702236980758     2.538713151313    -0.001025616981    12.000000000000
         H           -0.017300019242     2.153579151313    -0.103161616981     1.007825032230
         H            0.000079980758    -2.150162848687    -0.076093616981     1.007825032230
         H            3.713261980758     0.017747151313     0.129152383019     1.007825032230
         H            2.134295980758    -3.313602848687     0.500787383019     1.007825032230
         H            2.969071980758    -2.822494848687    -0.977813616981     1.007825032230
         H            3.656702980758    -2.412391848687     0.598685383019     1.007825032230
         H            2.946912980758     2.832216151313    -1.027346616981     1.007825032230
         H            2.111431980758     3.344005151313     0.443577383019     1.007825032230
         H            3.640165980758     2.455273151313     0.554772383019     1.007825032230
         H           -2.699809019242     0.668454151313     1.729049383019     1.007825032230

  Basis Set: AUG-CC-PVTZ
    Blend: AUG-CC-PVTZ
  Basis Set: (AUG-CC-PVTZ AUX)
    Blend: AUG-CC-PVTZ-JKFIT
	 Reference Energy          =    -931.0162873490536413 [Eh]
	 Singles Energy            =      -0.0000000000000000 [Eh]
	 Same-Spin Energy          =      -0.6210127176860676 [Eh]
	 Opposite-Spin Energy      =      -1.8696538473420092 [Eh]
	 Correlation Energy        =      -2.4906665650280768 [Eh]
	 Total Energy              =    -933.5069539140816914 [Eh]

	 ================> DF-SCS-MP2 Energies <==================
	-----------------------------------------------------------
	 SCS Same-Spin Scale       =       0.3333333333333333 [-]
	 SCS Opposite-Spin Scale   =       1.2000000000000000 [-]
	 SCS Same-Spin Energy      =      -0.2070042392286892 [Eh]
	 SCS Opposite-Spin Energy  =      -2.2435846168104110 [Eh]
	 SCS Correlation Energy    =      -2.4505888560391003 [Eh]
	 SCS Total Energy          =    -933.4668762050927171 [Eh]
	-----------------------------------------------------------

  Dipole Moment: [D]
     X:     4.5710      Y:     1.1470      Z:     1.8755     Total:     5.0722

*** Psi4 exiting successfully. Buy a developer a beer!
