                               Psi4 1.4a3.dev225

  ==> Input File <==

--------------------------------------------------------------------------
#psi4
#
memory 32 gb

molecule  {
0 1
  S       -1.9906940    -0.0125100    -0.1365530
  O       -2.3617000    -0.1700640     1.4590810
  O       -2.4286150    -1.2343840    -0.7923790
  O       -2.4725380     1.3090340    -0.5392830
  C       -0.2242900    -0.0021990    -0.0874500
  C        1.8486770    -1.2201060     0.0278510
  C        1.8399080     1.2326580     0.0087760
  C        0.4429230     1.2221080    -0.0627730
  C        0.4524940    -1.2213400    -0.0491660
  C        2.4226881     0.1840019     0.0485235
  C        2.6153160    -2.5166400     0.0331700
  C        2.5970370     2.5347130    -0.0106060
  H       -0.1225000     2.1495790    -0.1127420
  H       -0.1051200    -2.1541630    -0.0856740
  H        3.6080620     0.0137470     0.1195720
  H        2.0290960    -3.3176030     0.4912070
  H        2.8638720    -2.8264950    -0.9873940
  H        3.5515030    -2.4163920     0.5891050
  H        2.8417130     2.8282160    -1.0369270
  H        2.0062320     3.3400050     0.4339970
  H        3.5349660     2.4512730     0.5451920
  H       -2.8050090     0.6644540     1.7194690
units angstrom
no_reorient  #important for SAPT in psi4, default
symmetry c1  #important for SAPT in psi4, default
}

set PROPERTIES_ORIGIN ["COM"]
properties('MP2/aug-cc-pvtz', properties = ['dipole'])
--------------------------------------------------------------------------

    Molecular point group: c1
  Charge       = 0
  Multiplicity = 1
  Basis Set: AUG-CC-PVTZ
    Blend: AUG-CC-PVTZ
  Basis Set: (AUG-CC-PVTZ AUX)
    Blend: AUG-CC-PVTZ-JKFIT

    Orbital Energies [Eh]
    ---------------------

    Doubly Occupied:

       1A    -92.228859     2A    -20.628538     3A    -20.564540
       4A    -20.561140     5A    -11.285544     6A    -11.277016
       7A    -11.270048     8A    -11.256360     9A    -11.251694
      10A    -11.245746    11A    -11.239994    12A    -11.238752
      13A     -9.191725    14A     -6.877348    15A     -6.876058
      16A     -6.875802    17A     -1.492669    18A     -1.379075
      19A     -1.351371    20A     -1.203993    21A     -1.100599
      22A     -1.066451    23A     -0.968077    24A     -0.954952
      25A     -0.923922    26A     -0.822606    27A     -0.808416
      28A     -0.739922    29A     -0.722212    30A     -0.690469
      31A     -0.678429    32A     -0.668635    33A     -0.627910
      34A     -0.607640    35A     -0.606054    36A     -0.592526
      37A     -0.587108    38A     -0.571477    39A     -0.565970
      40A     -0.551344    41A     -0.538160    42A     -0.524625
      43A     -0.511956    44A     -0.503680    45A     -0.489958
      46A     -0.482413    47A     -0.460497    48A     -0.388231
      49A     -0.337361

  @DF-RHF Final Energy:  -930.99592901034339

   => Energetics <=

    Nuclear Repulsion Energy =            832.7993872933642479
    One-Electron Energy =               -2930.8148866404344517
    Two-Electron Energy =                1167.0195703367267015
    Total Energy =                       -930.9959290103433887
  Basis Set: (AUG-CC-PVTZ AUX)
    Blend: AUG-CC-PVTZ-RI
    Molecular point group: c1

    Geometry (in Angstrom), charge = 0, multiplicity = 1:

       Center              X                  Y                   Z               Mass
    ------------   -----------------  -----------------  -----------------  -----------------
         S           -1.892114229242    -0.019877402411    -0.127205289246    31.972071174400
         O           -2.263120229242    -0.177431402411     1.468428710754    15.994914619570
         O           -2.330035229242    -1.241751402411    -0.783031289246    15.994914619570
         O           -2.373958229242     1.301666597589    -0.529935289246    15.994914619570
         C           -0.125710229242    -0.009566402411    -0.078102289246    12.000000000000
         C            1.947256770758    -1.227473402411     0.037198710754    12.000000000000
         C            1.938487770758     1.225290597589     0.018123710754    12.000000000000
         C            0.541502770758     1.214740597589    -0.053425289246    12.000000000000
         C            0.551073770758    -1.228707402411    -0.039818289246    12.000000000000
         C            2.521267870758     0.176634497589     0.057871210754    12.000000000000
         C            2.713895770758    -2.524007402411     0.042517710754    12.000000000000
         C            2.695616770758     2.527345597589    -0.001258289246    12.000000000000
         H           -0.023920229242     2.142211597589    -0.103394289246     1.007825032230
         H           -0.006540229242    -2.161530402411    -0.076326289246     1.007825032230
         H            3.706641770758     0.006379597589     0.128919710754     1.007825032230
         H            2.127675770758    -3.324970402411     0.500554710754     1.007825032230
         H            2.962451770758    -2.833862402411    -0.978046289246     1.007825032230
         H            3.650082770758    -2.423759402411     0.598452710754     1.007825032230
         H            2.940292770758     2.820848597589    -1.027579289246     1.007825032230
         H            2.104811770758     3.332637597589     0.443344710754     1.007825032230
         H            3.633545770758     2.443905597589     0.554539710754     1.007825032230
         H           -2.706429229242     0.657086597589     1.728816710754     1.007825032230

  Basis Set: AUG-CC-PVTZ
    Blend: AUG-CC-PVTZ
  Basis Set: (AUG-CC-PVTZ AUX)
    Blend: AUG-CC-PVTZ-JKFIT
	 Reference Energy          =    -930.9959290103433887 [Eh]
	 Singles Energy            =      -0.0000000000000000 [Eh]
	 Same-Spin Energy          =      -0.6207194777229137 [Eh]
	 Opposite-Spin Energy      =      -1.8690253939088042 [Eh]
	 Correlation Energy        =      -2.4897448716317179 [Eh]
	 Total Energy              =    -933.4856738819751172 [Eh]

	 ================> DF-SCS-MP2 Energies <==================
	-----------------------------------------------------------
	 SCS Same-Spin Scale       =       0.3333333333333333 [-]
	 SCS Opposite-Spin Scale   =       1.2000000000000000 [-]
	 SCS Same-Spin Energy      =      -0.2069064925743045 [Eh]
	 SCS Opposite-Spin Energy  =      -2.2428304726905650 [Eh]
	 SCS Correlation Energy    =      -2.4497369652648695 [Eh]
	 SCS Total Energy          =    -933.4456659756082217 [Eh]
	-----------------------------------------------------------

  Dipole Moment: [D]
     X:     4.3187      Y:     0.8071      Z:     1.8880     Total:     4.7819

*** Psi4 exiting successfully. Buy a developer a beer!
