                               Psi4 1.4a3.dev225

  ==> Input File <==

--------------------------------------------------------------------------
#psi4
#
memory 32 gb

molecule  {
0 1
  S       -1.9906940    -0.0125100    -0.1365530
  O       -2.3617000    -0.1700640     1.4590810
  O       -2.4286150    -1.2343840    -0.7923790
  O       -2.4725380     1.3090340    -0.5392830
  C       -0.2242900    -0.0021990    -0.0874500
  C        1.8486770    -1.2201060     0.0278510
  C        1.8399080     1.2326580     0.0087760
  C        0.4429230     1.2221080    -0.0627730
  C        0.4524940    -1.2213400    -0.0491660
  C        2.5197880     0.0092800     0.0551460
  C        2.6153160    -2.5166400     0.0331700
  C        2.6221689     2.5779330    -0.0112494
  H       -0.1225000     2.1495790    -0.1127420
  H       -0.1051200    -2.1541630    -0.0856740
  H        3.6080620     0.0137470     0.1195720
  H        2.0290960    -3.3176030     0.4912070
  H        2.8638720    -2.8264950    -0.9873940
  H        3.5515030    -2.4163920     0.5891050
  H        2.8417130     2.8282160    -1.0369270
  H        2.0062320     3.3400050     0.4339970
  H        3.5349660     2.4512730     0.5451920
  H       -2.8050090     0.6644540     1.7194690
units angstrom
no_reorient  #important for SAPT in psi4, default
symmetry c1  #important for SAPT in psi4, default
}

set PROPERTIES_ORIGIN ["COM"]
properties('MP2/aug-cc-pvtz', properties = ['dipole'])
--------------------------------------------------------------------------

    Molecular point group: c1
  Charge       = 0
  Multiplicity = 1
  Basis Set: AUG-CC-PVTZ
    Blend: AUG-CC-PVTZ
  Basis Set: (AUG-CC-PVTZ AUX)
    Blend: AUG-CC-PVTZ-JKFIT

    Orbital Energies [Eh]
    ---------------------

    Doubly Occupied:

       1A    -92.228637     2A    -20.628533     3A    -20.564864
       4A    -20.560643     5A    -11.285879     6A    -11.269207
       7A    -11.266947     8A    -11.262724     9A    -11.261886
      10A    -11.257065    11A    -11.240500    12A    -11.240236
      13A     -9.191545    14A     -6.877165    15A     -6.875864
      16A     -6.875628    17A     -1.492600    18A     -1.378969
      19A     -1.351322    20A     -1.186594    21A     -1.078801
      22A     -1.072949    23A     -0.962977    24A     -0.954068
      25A     -0.923663    26A     -0.818977    27A     -0.809830
      28A     -0.739699    29A     -0.722484    30A     -0.690824
      31A     -0.683165    32A     -0.670101    33A     -0.627682
      34A     -0.603329    35A     -0.597930    36A     -0.589718
      37A     -0.585797    38A     -0.575957    39A     -0.573050
      40A     -0.551178    41A     -0.537425    42A     -0.523819
      43A     -0.508046    44A     -0.501884    45A     -0.501624
      46A     -0.483819    47A     -0.472861    48A     -0.363498
      49A     -0.345633

  @DF-RHF Final Energy:  -931.05588207365258

   => Energetics <=

    Nuclear Repulsion Energy =            829.5227058053462770
    One-Electron Energy =               -2924.4219851780130739
    Two-Electron Energy =                1163.8433972990139864
    Total Energy =                       -931.0558820736525831
  Basis Set: (AUG-CC-PVTZ AUX)
    Blend: AUG-CC-PVTZ-RI
    Molecular point group: c1

    Geometry (in Angstrom), charge = 0, multiplicity = 1:

       Center              X                  Y                   Z               Mass
    ------------   -----------------  -----------------  -----------------  -----------------
         S           -1.899998665422    -0.011395007993    -0.127590964924    31.972071174400
         O           -2.271004665422    -0.168949007993     1.468043035076    15.994914619570
         O           -2.337919665422    -1.233269007993    -0.783416964924    15.994914619570
         O           -2.381842665422     1.310148992007    -0.530320964924    15.994914619570
         C           -0.133594665422    -0.001084007993    -0.078487964924    12.000000000000
         C            1.939372334578    -1.218991007993     0.036813035076    12.000000000000
         C            1.930603334578     1.233772992007     0.017738035076    12.000000000000
         C            0.533618334578     1.223222992007    -0.053810964924    12.000000000000
         C            0.543189334578    -1.220225007993    -0.040203964924    12.000000000000
         C            2.610483334578     0.010394992007     0.064108035076    12.000000000000
         C            2.706011334578    -2.515525007993     0.042132035076    12.000000000000
         C            2.712864234578     2.579047992007    -0.002287364924    12.000000000000
         H           -0.031804665422     2.150693992007    -0.103779964924     1.007825032230
         H           -0.014424665422    -2.153048007993    -0.076711964924     1.007825032230
         H            3.698757334578     0.014861992007     0.128534035076     1.007825032230
         H            2.119791334578    -3.316488007993     0.500169035076     1.007825032230
         H            2.954567334578    -2.825380007993    -0.978431964924     1.007825032230
         H            3.642198334578    -2.415277007993     0.598067035076     1.007825032230
         H            2.932408334578     2.829330992007    -1.027964964924     1.007825032230
         H            2.096927334578     3.341119992007     0.442959035076     1.007825032230
         H            3.625661334578     2.452387992007     0.554154035076     1.007825032230
         H           -2.714313665422     0.665568992007     1.728431035076     1.007825032230

  Basis Set: AUG-CC-PVTZ
    Blend: AUG-CC-PVTZ
  Basis Set: (AUG-CC-PVTZ AUX)
    Blend: AUG-CC-PVTZ-JKFIT
	 Reference Energy          =    -931.0558820736525831 [Eh]
	 Singles Energy            =      -0.0000000000000000 [Eh]
	 Same-Spin Energy          =      -0.6209729128614794 [Eh]
	 Opposite-Spin Energy      =      -1.8674683783199875 [Eh]
	 Correlation Energy        =      -2.4884412911814668 [Eh]
	 Total Energy              =    -933.5443233648340993 [Eh]

	 ================> DF-SCS-MP2 Energies <==================
	-----------------------------------------------------------
	 SCS Same-Spin Scale       =       0.3333333333333333 [-]
	 SCS Opposite-Spin Scale   =       1.2000000000000000 [-]
	 SCS Same-Spin Energy      =      -0.2069909709538265 [Eh]
	 SCS Opposite-Spin Energy  =      -2.2409620539839850 [Eh]
	 SCS Correlation Energy    =      -2.4479530249378114 [Eh]
	 SCS Total Energy          =    -933.5038350985903435 [Eh]
	-----------------------------------------------------------

  Dipole Moment: [D]
     X:     4.4252      Y:     0.9957      Z:     1.8920     Total:     4.9146

*** Psi4 exiting successfully. Buy a developer a beer!
