                               Psi4 1.4a3.dev225

  ==> Input File <==

--------------------------------------------------------------------------
#psi4
#
memory 32 gb

molecule  {
0 1
  S       -1.9906940    -0.0125100    -0.1365530
  O       -2.3617000    -0.1700640     1.4590810
  O       -2.4286150    -1.2343840    -0.7923790
  O       -2.4725380     1.3090340    -0.5392830
  C       -0.2242900    -0.0021990    -0.0874500
  C        1.8486770    -1.2201060     0.0278510
  C        1.8399080     1.2326580     0.0087760
  C        0.4429230     1.2221080    -0.0627730
  C        0.4524940    -1.2213400    -0.0491660
  C        2.5197880     0.0092800     0.0551460
  C        2.6153160    -2.5166400     0.0331700
  C        2.5970370     2.5347130    -0.0106060
  H       -0.1225000     2.1495790    -0.1127420
  H       -0.1051200    -2.1541630    -0.0856740
  H        3.6080620     0.0137470     0.1195720
  H        2.0290960    -3.3176030     0.4912070
  H        2.8638720    -2.8264950    -0.9873940
  H        3.5515030    -2.4163920     0.5891050
  H        2.8417130     2.8282160    -1.0369270
  H        2.1143133     3.1926856     0.3526617
  H        3.5349660     2.4512730     0.5451920
  H       -2.8050090     0.6644540     1.7194690
units angstrom
no_reorient  #important for SAPT in psi4, default
symmetry c1  #important for SAPT in psi4, default
}

set PROPERTIES_ORIGIN ["COM"]
properties('MP2/aug-cc-pvtz', properties = ['dipole'])
--------------------------------------------------------------------------

    Molecular point group: c1
  Charge       = 0
  Multiplicity = 1
  Basis Set: AUG-CC-PVTZ
    Blend: AUG-CC-PVTZ
  Basis Set: (AUG-CC-PVTZ AUX)
    Blend: AUG-CC-PVTZ-JKFIT

    Orbital Energies [Eh]
    ---------------------

    Doubly Occupied:

       1A    -92.228636     2A    -20.628543     3A    -20.564894
       4A    -20.560618     5A    -11.285890     6A    -11.266599
       7A    -11.266247     8A    -11.262619     9A    -11.261715
      10A    -11.256122    11A    -11.239990    12A    -11.217117
      13A     -9.191543    14A     -6.877163    15A     -6.875862
      16A     -6.875626    17A     -1.492606    18A     -1.378975
      19A     -1.351330    20A     -1.187840    21A     -1.086410
      22A     -1.075812    23A     -0.979409    24A     -0.955524
      25A     -0.923833    26A     -0.820452    27A     -0.814352
      28A     -0.740435    29A     -0.723051    30A     -0.691789
      31A     -0.684574    32A     -0.671984    33A     -0.629225
      34A     -0.618377    35A     -0.600620    36A     -0.592626
      37A     -0.589878    38A     -0.577024    39A     -0.573743
      40A     -0.551874    41A     -0.537279    42A     -0.523555
      43A     -0.509921    44A     -0.506342    45A     -0.500916
      46A     -0.483888    47A     -0.473318    48A     -0.362763
      49A     -0.345052

  @DF-RHF Final Energy:  -931.02344428349545

   => Energetics <=

    Nuclear Repulsion Energy =            831.4524452070515963
    One-Electron Energy =               -2928.1238531214730756
    Two-Electron Energy =                1165.6479636309259149
    Total Energy =                       -931.0234442834953370
  Basis Set: (AUG-CC-PVTZ AUX)
    Blend: AUG-CC-PVTZ-RI
    Molecular point group: c1

    Geometry (in Angstrom), charge = 0, multiplicity = 1:

       Center              X                  Y                   Z               Mass
    ------------   -----------------  -----------------  -----------------  -----------------
         S           -1.898963076997    -0.007809059409    -0.127191841505    31.972071174400
         O           -2.269969076997    -0.165363059409     1.468442158495    15.994914619570
         O           -2.336884076997    -1.229683059409    -0.783017841505    15.994914619570
         O           -2.380807076997     1.313734940591    -0.529921841505    15.994914619570
         C           -0.132559076997     0.002501940591    -0.078088841505    12.000000000000
         C            1.940407923003    -1.215405059409     0.037212158495    12.000000000000
         C            1.931638923003     1.237358940591     0.018137158495    12.000000000000
         C            0.534653923003     1.226808940591    -0.053411841505    12.000000000000
         C            0.544224923003    -1.216639059409    -0.039804841505    12.000000000000
         C            2.611518923003     0.013980940591     0.064507158495    12.000000000000
         C            2.707046923003    -2.511939059409     0.042531158495    12.000000000000
         C            2.688767923003     2.539413940591    -0.001244841505    12.000000000000
         H           -0.030769076997     2.154279940591    -0.103380841505     1.007825032230
         H           -0.013389076997    -2.149462059409    -0.076312841505     1.007825032230
         H            3.699792923003     0.018447940591     0.128933158495     1.007825032230
         H            2.120826923003    -3.312902059409     0.500568158495     1.007825032230
         H            2.955602923003    -2.821794059409    -0.978032841505     1.007825032230
         H            3.643233923003    -2.411691059409     0.598466158495     1.007825032230
         H            2.933443923003     2.832916940591    -1.027565841505     1.007825032230
         H            2.206044223003     3.197386540591     0.362022858495     1.007825032230
         H            3.626696923003     2.455973940591     0.554553158495     1.007825032230
         H           -2.713278076997     0.669154940591     1.728830158495     1.007825032230

  Basis Set: AUG-CC-PVTZ
    Blend: AUG-CC-PVTZ
  Basis Set: (AUG-CC-PVTZ AUX)
    Blend: AUG-CC-PVTZ-JKFIT
	 Reference Energy          =    -931.0234442834954507 [Eh]
	 Singles Energy            =      -0.0000000000000000 [Eh]
	 Same-Spin Energy          =      -0.6213627765597138 [Eh]
	 Opposite-Spin Energy      =      -1.8670069225171264 [Eh]
	 Correlation Energy        =      -2.4883696990768405 [Eh]
	 Total Energy              =    -933.5118139825723347 [Eh]

	 ================> DF-SCS-MP2 Energies <==================
	-----------------------------------------------------------
	 SCS Same-Spin Scale       =       0.3333333333333333 [-]
	 SCS Opposite-Spin Scale   =       1.2000000000000000 [-]
	 SCS Same-Spin Energy      =      -0.2071209255199046 [Eh]
	 SCS Opposite-Spin Energy  =      -2.2404083070205516 [Eh]
	 SCS Correlation Energy    =      -2.4475292325404561 [Eh]
	 SCS Total Energy          =    -933.4709735160358832 [Eh]
	-----------------------------------------------------------

  Dipole Moment: [D]
     X:     4.4244      Y:     1.0707      Z:     1.9066     Total:     4.9353

*** Psi4 exiting successfully. Buy a developer a beer!
