                               Psi4 1.4a3.dev225

  ==> Input File <==

--------------------------------------------------------------------------
#psi4
#
memory 32 gb

molecule  {
0 1
  S       -1.9906940    -0.0125100    -0.1365530
  O       -2.3617000    -0.1700640     1.4590810
  O       -2.4286150    -1.2343840    -0.7923790
  O       -2.4725380     1.3090340    -0.5392830
  C       -0.2242900    -0.0021990    -0.0874500
  C        1.8486770    -1.2201060     0.0278510
  C        1.8399080     1.2326580     0.0087760
  C        0.4429230     1.2221080    -0.0627730
  C        0.4524940    -1.2213400    -0.0491660
  C        2.4982322     0.0208126     0.0547578
  C        2.6153160    -2.5166400     0.0331700
  C        2.5970370     2.5347130    -0.0106060
  H       -0.1225000     2.1495790    -0.1127420
  H       -0.1051200    -2.1541630    -0.0856740
  H        3.6080620     0.0137470     0.1195720
  H        2.0290960    -3.3176030     0.4912070
  H        2.8638720    -2.8264950    -0.9873940
  H        3.5515030    -2.4163920     0.5891050
  H        2.8417130     2.8282160    -1.0369270
  H        2.0062320     3.3400050     0.4339970
  H        3.5349660     2.4512730     0.5451920
  H       -2.8050090     0.6644540     1.7194690
units angstrom
no_reorient  #important for SAPT in psi4, default
symmetry c1  #important for SAPT in psi4, default
}

set PROPERTIES_ORIGIN ["COM"]
properties('MP2/aug-cc-pvtz', properties = ['dipole'])
--------------------------------------------------------------------------

    Molecular point group: c1
  Charge       = 0
  Multiplicity = 1
  Basis Set: AUG-CC-PVTZ
    Blend: AUG-CC-PVTZ
  Basis Set: (AUG-CC-PVTZ AUX)
    Blend: AUG-CC-PVTZ-JKFIT

    Orbital Energies [Eh]
    ---------------------

    Doubly Occupied:

       1A    -92.228680     2A    -20.628537     3A    -20.564856
       4A    -20.560685     5A    -11.285648     6A    -11.267025
       7A    -11.265167     8A    -11.263186     9A    -11.261730
      10A    -11.256676    11A    -11.241647    12A    -11.241056
      13A     -9.191578    14A     -6.877199    15A     -6.875899
      16A     -6.875661    17A     -1.492617    18A     -1.378989
      19A     -1.351341    20A     -1.189779    21A     -1.082697
      22A     -1.075529    23A     -0.963682    24A     -0.953869
      25A     -0.923199    26A     -0.818148    27A     -0.812624
      28A     -0.739986    29A     -0.722585    30A     -0.689826
      31A     -0.682927    32A     -0.670512    33A     -0.627697
      34A     -0.603496    35A     -0.601476    36A     -0.591970
      37A     -0.585579    38A     -0.572930    39A     -0.568548
      40A     -0.548299    41A     -0.534020    42A     -0.523624
      43A     -0.511316    44A     -0.506871    45A     -0.501200
      46A     -0.483871    47A     -0.473185    48A     -0.364867
      49A     -0.345330

  @DF-RHF Final Energy:  -931.05691273454488

   => Energetics <=

    Nuclear Repulsion Energy =            830.9093785441092450
    One-Electron Energy =               -2927.1769429860255514
    Two-Electron Energy =                1165.2106517073716532
    Total Energy =                       -931.0569127345447669
  Basis Set: (AUG-CC-PVTZ AUX)
    Blend: AUG-CC-PVTZ-RI
    Molecular point group: c1

    Geometry (in Angstrom), charge = 0, multiplicity = 1:

       Center              X                  Y                   Z               Mass
    ------------   -----------------  -----------------  -----------------  -----------------
         S           -1.896987123491    -0.009351044940    -0.127607426337    31.972071174400
         O           -2.267993123491    -0.166905044940     1.468026573663    15.994914619570
         O           -2.334908123491    -1.231225044940    -0.783433426337    15.994914619570
         O           -2.378831123491     1.312192955060    -0.530337426337    15.994914619570
         C           -0.130583123491     0.000959955060    -0.078504426337    12.000000000000
         C            1.942383876509    -1.216947044940     0.036796573663    12.000000000000
         C            1.933614876509     1.235816955060     0.017721573663    12.000000000000
         C            0.536629876509     1.225266955060    -0.053827426337    12.000000000000
         C            0.546200876509    -1.218181044940    -0.040220426337    12.000000000000
         C            2.591939076509     0.023971555060     0.063703373663    12.000000000000
         C            2.709022876509    -2.513481044940     0.042115573663    12.000000000000
         C            2.690743876509     2.537871955060    -0.001660426337    12.000000000000
         H           -0.028793123491     2.152737955060    -0.103796426337     1.007825032230
         H           -0.011413123491    -2.151004044940    -0.076728426337     1.007825032230
         H            3.701768876509     0.016905955060     0.128517573663     1.007825032230
         H            2.122802876509    -3.314444044940     0.500152573663     1.007825032230
         H            2.957578876509    -2.823336044940    -0.978448426337     1.007825032230
         H            3.645209876509    -2.413233044940     0.598050573663     1.007825032230
         H            2.935419876509     2.831374955060    -1.027981426337     1.007825032230
         H            2.099938876509     3.343163955060     0.442942573663     1.007825032230
         H            3.628672876509     2.454431955060     0.554137573663     1.007825032230
         H           -2.711302123491     0.667612955060     1.728414573663     1.007825032230

  Basis Set: AUG-CC-PVTZ
    Blend: AUG-CC-PVTZ
  Basis Set: (AUG-CC-PVTZ AUX)
    Blend: AUG-CC-PVTZ-JKFIT
	 Reference Energy          =    -931.0569127345448805 [Eh]
	 Singles Energy            =      -0.0000000000000000 [Eh]
	 Same-Spin Energy          =      -0.6213057481405282 [Eh]
	 Opposite-Spin Energy      =      -1.8676199314171054 [Eh]
	 Correlation Energy        =      -2.4889256795576333 [Eh]
	 Total Energy              =    -933.5458384141024908 [Eh]

	 ================> DF-SCS-MP2 Energies <==================
	-----------------------------------------------------------
	 SCS Same-Spin Scale       =       0.3333333333333333 [-]
	 SCS Opposite-Spin Scale   =       1.2000000000000000 [-]
	 SCS Same-Spin Energy      =      -0.2071019160468427 [Eh]
	 SCS Opposite-Spin Energy  =      -2.2411439177005263 [Eh]
	 SCS Correlation Energy    =      -2.4482458337473689 [Eh]
	 SCS Total Energy          =    -933.5051585682922450 [Eh]
	-----------------------------------------------------------

  Dipole Moment: [D]
     X:     4.4203      Y:     0.9890      Z:     1.8891     Total:     4.9078

*** Psi4 exiting successfully. Buy a developer a beer!
