                               Psi4 1.4a3.dev225

  ==> Input File <==

--------------------------------------------------------------------------
#psi4
#
memory 32 gb

molecule  {
0 1
  S       -1.9906940    -0.0125100    -0.1365530
  O       -2.3617000    -0.1700640     1.4590810
  O       -2.4286150    -1.2343840    -0.7923790
  O       -2.4725380     1.3090340    -0.5392830
  C       -0.2242900    -0.0021990    -0.0874500
  C        1.8486770    -1.2201060     0.0278510
  C        1.8399080     1.2326580     0.0087760
  C        0.4429230     1.2221080    -0.0627730
  C        0.4524940    -1.2213400    -0.0491660
  C        2.5197880     0.0092800     0.0551460
  C        2.6153160    -2.5166400     0.0331700
  C        2.5970370     2.5347130    -0.0106060
  H       -0.1225000     2.1495790    -0.1127420
  H       -0.1051200    -2.1541630    -0.0856740
  H        3.6080620     0.0137470     0.1195720
  H        1.9218434    -3.4641442     0.5750077
  H        2.8638720    -2.8264950    -0.9873940
  H        3.5515030    -2.4163920     0.5891050
  H        2.8417130     2.8282160    -1.0369270
  H        2.0062320     3.3400050     0.4339970
  H        3.5349660     2.4512730     0.5451920
  H       -2.8050090     0.6644540     1.7194690
units angstrom
no_reorient  #important for SAPT in psi4, default
symmetry c1  #important for SAPT in psi4, default
}

set PROPERTIES_ORIGIN ["COM"]
properties('MP2/aug-cc-pvtz', properties = ['dipole'])
--------------------------------------------------------------------------

    Molecular point group: c1
  Charge       = 0
  Multiplicity = 1
  Basis Set: AUG-CC-PVTZ
    Blend: AUG-CC-PVTZ
  Basis Set: (AUG-CC-PVTZ AUX)
    Blend: AUG-CC-PVTZ-JKFIT

    Orbital Energies [Eh]
    ---------------------

    Doubly Occupied:

       1A    -92.229088     2A    -20.628881     3A    -20.565296
       4A    -20.560993     5A    -11.286514     6A    -11.269089
       7A    -11.268348     8A    -11.263560     9A    -11.262702
      10A    -11.262624    11A    -11.258800    12A    -11.242140
      13A     -9.191990    14A     -6.877610    15A     -6.876313
      16A     -6.876072    17A     -1.492979    18A     -1.379314
      19A     -1.351703    20A     -1.188621    21A     -1.080897
      22A     -1.075626    23A     -0.959645    24A     -0.947878
      25A     -0.924547    26A     -0.819733    27A     -0.806638
      28A     -0.740416    29A     -0.722977    30A     -0.691623
      31A     -0.683494    32A     -0.670416    33A     -0.628094
      34A     -0.603255    35A     -0.599333    36A     -0.592804
      37A     -0.584727    38A     -0.574377    39A     -0.561450
      40A     -0.539001    41A     -0.530542    42A     -0.523729
      43A     -0.508303    44A     -0.504083    45A     -0.495960
      46A     -0.484261    47A     -0.474153    48A     -0.364236
      49A     -0.345333

  @DF-RHF Final Energy:  -931.03709456730417

   => Energetics <=

    Nuclear Repulsion Energy =            829.7070973978907205
    One-Electron Energy =               -2924.7480576786952042
    Two-Electron Energy =                1164.0038657135003177
    Total Energy =                       -931.0370945673041660
  Basis Set: (AUG-CC-PVTZ AUX)
    Blend: AUG-CC-PVTZ-RI
    Molecular point group: c1

    Geometry (in Angstrom), charge = 0, multiplicity = 1:

       Center              X                  Y                   Z               Mass
    ------------   -----------------  -----------------  -----------------  -----------------
         S           -1.897796528667    -0.007813275224    -0.128086448090    31.972071174400
         O           -2.268802528667    -0.165367275224     1.467547551910    15.994914619570
         O           -2.335717528667    -1.229687275224    -0.783912448090    15.994914619570
         O           -2.379640528667     1.313730724776    -0.530816448090    15.994914619570
         C           -0.131392528667     0.002497724776    -0.078983448090    12.000000000000
         C            1.941574471333    -1.215409275224     0.036317551910    12.000000000000
         C            1.932805471333     1.237354724776     0.017242551910    12.000000000000
         C            0.535820471333     1.226804724776    -0.054306448090    12.000000000000
         C            0.545391471333    -1.216643275224    -0.040699448090    12.000000000000
         C            2.612685471333     0.013976724776     0.063612551910    12.000000000000
         C            2.708213471333    -2.511943275224     0.041636551910    12.000000000000
         C            2.689934471333     2.539409724776    -0.002139448090    12.000000000000
         H           -0.029602528667     2.154275724776    -0.104275448090     1.007825032230
         H           -0.012222528667    -2.149466275224    -0.077207448090     1.007825032230
         H            3.700959471333     0.018443724776     0.128038551910     1.007825032230
         H            2.014740871333    -3.459447475224     0.583474251910     1.007825032230
         H            2.956769471333    -2.821798275224    -0.978927448090     1.007825032230
         H            3.644400471333    -2.411695275224     0.597571551910     1.007825032230
         H            2.934610471333     2.832912724776    -1.028460448090     1.007825032230
         H            2.099129471333     3.344701724776     0.442463551910     1.007825032230
         H            3.627863471333     2.455969724776     0.553658551910     1.007825032230
         H           -2.712111528667     0.669150724776     1.727935551910     1.007825032230

  Basis Set: AUG-CC-PVTZ
    Blend: AUG-CC-PVTZ
  Basis Set: (AUG-CC-PVTZ AUX)
    Blend: AUG-CC-PVTZ-JKFIT
	 Reference Energy          =    -931.0370945673041660 [Eh]
	 Singles Energy            =      -0.0000000000000000 [Eh]
	 Same-Spin Energy          =      -0.6213606305627393 [Eh]
	 Opposite-Spin Energy      =      -1.8693766488724264 [Eh]
	 Correlation Energy        =      -2.4907372794351659 [Eh]
	 Total Energy              =    -933.5278318467393319 [Eh]

	 ================> DF-SCS-MP2 Energies <==================
	-----------------------------------------------------------
	 SCS Same-Spin Scale       =       0.3333333333333333 [-]
	 SCS Opposite-Spin Scale   =       1.2000000000000000 [-]
	 SCS Same-Spin Energy      =      -0.2071202101875798 [Eh]
	 SCS Opposite-Spin Energy  =      -2.2432519786469114 [Eh]
	 SCS Correlation Energy    =      -2.4503721888344909 [Eh]
	 SCS Total Energy          =    -933.4874667561387014 [Eh]
	-----------------------------------------------------------

  Dipole Moment: [D]
     X:     4.4371      Y:     1.1218      Z:     1.8535     Total:     4.9378

*** Psi4 exiting successfully. Buy a developer a beer!
