                               Psi4 1.4a3.dev225

  ==> Input File <==

--------------------------------------------------------------------------
#psi4
#
memory 32 gb

molecule  {
0 1
  S       -1.9906940    -0.0125100    -0.1365530
  O       -2.3617000    -0.1700640     1.4590810
  O       -2.4286150    -1.2343840    -0.7923790
  O       -2.4725380     1.3090340    -0.5392830
  C       -0.2242900    -0.0021990    -0.0874500
  C        1.8486770    -1.2201060     0.0278510
  C        1.8399080     1.2326580     0.0087760
  C        0.4429230     1.2221080    -0.0627730
  C        0.4524940    -1.2213400    -0.0491660
  C        2.5197880     0.0092800     0.0551460
  C        2.6153160    -2.5166400     0.0331700
  C        2.5970370     2.5347130    -0.0106060
  H       -0.1225000     2.1495790    -0.1127420
  H       -0.1051200    -2.1541630    -0.0856740
  H        3.6080620     0.0137470     0.1195720
  H        2.0183707    -3.3322571     0.4995871
  H        2.8638720    -2.8264950    -0.9873940
  H        3.5515030    -2.4163920     0.5891050
  H        2.8417130     2.8282160    -1.0369270
  H        2.0062320     3.3400050     0.4339970
  H        3.5349660     2.4512730     0.5451920
  H       -2.8050090     0.6644540     1.7194690
units angstrom
no_reorient  #important for SAPT in psi4, default
symmetry c1  #important for SAPT in psi4, default
}

set PROPERTIES_ORIGIN ["COM"]
properties('MP2/aug-cc-pvtz', properties = ['dipole'])
--------------------------------------------------------------------------

    Molecular point group: c1
  Charge       = 0
  Multiplicity = 1
  Basis Set: AUG-CC-PVTZ
    Blend: AUG-CC-PVTZ
  Basis Set: (AUG-CC-PVTZ AUX)
    Blend: AUG-CC-PVTZ-JKFIT

    Orbital Energies [Eh]
    ---------------------

    Doubly Occupied:

       1A    -92.228797     2A    -20.628662     3A    -20.565005
       4A    -20.560780     5A    -11.286095     6A    -11.267515
       7A    -11.267278     8A    -11.262839     9A    -11.262088
      10A    -11.257246    11A    -11.242728    12A    -11.241528
      13A     -9.191703    14A     -6.877323    15A     -6.876023
      16A     -6.875785    17A     -1.492737    18A     -1.379098
      19A     -1.351458    20A     -1.187920    21A     -1.081441
      22A     -1.075417    23A     -0.961726    24A     -0.953186
      25A     -0.924074    26A     -0.819193    27A     -0.809406
      28A     -0.740091    29A     -0.722807    30A     -0.691233
      31A     -0.683605    32A     -0.670614    33A     -0.627824
      34A     -0.602170    35A     -0.600650    36A     -0.591853
      37A     -0.584920    38A     -0.574308    39A     -0.568062
      40A     -0.546903    41A     -0.537629    42A     -0.523613
      43A     -0.508231    44A     -0.506655    45A     -0.500809
      46A     -0.484007    47A     -0.473648    48A     -0.363370
      49A     -0.345060

  @DF-RHF Final Energy:  -931.05689404743748

   => Energetics <=

    Nuclear Repulsion Energy =            830.3895280873097136
    One-Electron Energy =               -2926.1426147233783013
    Two-Electron Energy =                1164.6961925886309928
    Total Energy =                       -931.0568940474374813
  Basis Set: (AUG-CC-PVTZ AUX)
    Blend: AUG-CC-PVTZ-RI
    Molecular point group: c1

    Geometry (in Angstrom), charge = 0, multiplicity = 1:

       Center              X                  Y                   Z               Mass
    ------------   -----------------  -----------------  -----------------  -----------------
         S           -1.898319454972    -0.008527759457    -0.127677865071    31.972071174400
         O           -2.269325454972    -0.166081759457     1.467956134929    15.994914619570
         O           -2.336240454972    -1.230401759457    -0.783503865071    15.994914619570
         O           -2.380163454972     1.313016240543    -0.530407865071    15.994914619570
         C           -0.131915454972     0.001783240543    -0.078574865071    12.000000000000
         C            1.941051545028    -1.216123759457     0.036726134929    12.000000000000
         C            1.932282545028     1.236640240543     0.017651134929    12.000000000000
         C            0.535297545028     1.226090240543    -0.053897865071    12.000000000000
         C            0.544868545028    -1.217357759457    -0.040290865071    12.000000000000
         C            2.612162545028     0.013262240543     0.064021134929    12.000000000000
         C            2.707690545028    -2.512657759457     0.042045134929    12.000000000000
         C            2.689411545028     2.538695240543    -0.001730865071    12.000000000000
         H           -0.030125454972     2.153561240543    -0.103866865071     1.007825032230
         H           -0.012745454972    -2.150180759457    -0.076798865071     1.007825032230
         H            3.700436545028     0.017729240543     0.128447134929     1.007825032230
         H            2.110745245028    -3.328274859457     0.508462234929     1.007825032230
         H            2.956246545028    -2.822512759457    -0.978518865071     1.007825032230
         H            3.643877545028    -2.412409759457     0.597980134929     1.007825032230
         H            2.934087545028     2.832198240543    -1.028051865071     1.007825032230
         H            2.098606545028     3.343987240543     0.442872134929     1.007825032230
         H            3.627340545028     2.455255240543     0.554067134929     1.007825032230
         H           -2.712634454972     0.668436240543     1.728344134929     1.007825032230

  Basis Set: AUG-CC-PVTZ
    Blend: AUG-CC-PVTZ
  Basis Set: (AUG-CC-PVTZ AUX)
    Blend: AUG-CC-PVTZ-JKFIT
	 Reference Energy          =    -931.0568940474374813 [Eh]
	 Singles Energy            =      -0.0000000000000000 [Eh]
	 Same-Spin Energy          =      -0.6213027823600197 [Eh]
	 Opposite-Spin Energy      =      -1.8678154839820826 [Eh]
	 Correlation Energy        =      -2.4891182663421025 [Eh]
	 Total Energy              =    -933.5460123137795563 [Eh]

	 ================> DF-SCS-MP2 Energies <==================
	-----------------------------------------------------------
	 SCS Same-Spin Scale       =       0.3333333333333333 [-]
	 SCS Opposite-Spin Scale   =       1.2000000000000000 [-]
	 SCS Same-Spin Energy      =      -0.2071009274533399 [Eh]
	 SCS Opposite-Spin Energy  =      -2.2413785807784992 [Eh]
	 SCS Correlation Energy    =      -2.4484795082318391 [Eh]
	 SCS Total Energy          =    -933.5053735556692800 [Eh]
	-----------------------------------------------------------

  Dipole Moment: [D]
     X:     4.4289      Y:     1.0127      Z:     1.8870     Total:     4.9195

*** Psi4 exiting successfully. Buy a developer a beer!
