                               Psi4 1.4a3.dev225

  ==> Input File <==

--------------------------------------------------------------------------
#psi4
#
memory 32 gb

molecule  {
0 1
  S       -1.9906940    -0.0125100    -0.1365530
  O       -2.3617000    -0.1700640     1.4590810
  O       -2.4286150    -1.2343840    -0.7923790
  O       -2.4725380     1.3090340    -0.5392830
  C       -0.2242900    -0.0021990    -0.0874500
  C        1.8486770    -1.2201060     0.0278510
  C        1.8399080     1.2326580     0.0087760
  C        0.4429230     1.2221080    -0.0627730
  C        0.4524940    -1.2213400    -0.0491660
  C        2.5197880     0.0092800     0.0551460
  C        2.6153160    -2.5166400     0.0331700
  C        2.5970370     2.5347130    -0.0106060
  H       -0.1225000     2.1495790    -0.1127420
  H       -0.1051200    -2.1541630    -0.0856740
  H        3.6080620     0.0137470     0.1195720
  H        2.0290960    -3.3176030     0.4912070
  H        2.8638720    -2.8264950    -0.9873940
  H        3.5515030    -2.4163920     0.5891050
  H        2.8417130     2.8282160    -1.0369270
  H        2.0062320     3.3400050     0.4339970
  H        3.5349660     2.4512730     0.5451920
  H       -2.8050090     0.6644540     1.7194690
units angstrom
no_reorient  #important for SAPT in psi4, default
symmetry c1  #important for SAPT in psi4, default
}

set PROPERTIES_ORIGIN ["COM"]
properties('MP2/aug-cc-pvtz', properties = ['dipole'])
--------------------------------------------------------------------------

    Molecular point group: c1
  Charge       = 0
  Multiplicity = 1
  Basis Set: AUG-CC-PVTZ
    Blend: AUG-CC-PVTZ
  Basis Set: (AUG-CC-PVTZ AUX)
    Blend: AUG-CC-PVTZ-JKFIT

    Orbital Energies [Eh]
    ---------------------

    Doubly Occupied:

       1A    -92.228774     2A    -20.628645     3A    -20.564983
       4A    -20.560763     5A    -11.286064     6A    -11.267442
       7A    -11.267117     8A    -11.262784     9A    -11.262050
      10A    -11.257110    11A    -11.241476    12A    -11.240357
      13A     -9.191681    14A     -6.877300    15A     -6.876001
      16A     -6.875763    17A     -1.492718    18A     -1.379081
      19A     -1.351439    20A     -1.187876    21A     -1.081628
      22A     -1.075441    23A     -0.962446    24A     -0.953742
      25A     -0.924036    26A     -0.819149    27A     -0.809864
      28A     -0.740069    29A     -0.722821    30A     -0.691211
      31A     -0.683671    32A     -0.670677    33A     -0.627809
      34A     -0.602461    35A     -0.600856    36A     -0.591779
      37A     -0.585323    38A     -0.574374    39A     -0.569248
      40A     -0.548022    41A     -0.537605    42A     -0.523591
      43A     -0.508315    44A     -0.506790    45A     -0.500868
      46A     -0.483987    47A     -0.473606    48A     -0.363295
      49A     -0.345047

  @DF-RHF Final Energy:  -931.05743118351586

   => Energetics <=

    Nuclear Repulsion Energy =            830.4739747093873348
    One-Electron Energy =               -2926.3085070437555260
    Two-Electron Energy =                1164.7771011508525589
    Total Energy =                       -931.0574311835157459
  Basis Set: (AUG-CC-PVTZ AUX)
    Blend: AUG-CC-PVTZ-RI
    Molecular point group: c1

    Geometry (in Angstrom), charge = 0, multiplicity = 1:

       Center              X                  Y                   Z               Mass
    ------------   -----------------  -----------------  -----------------  -----------------
         S           -1.898377558135    -0.008607146473    -0.127632466778    31.972071174400
         O           -2.269383558135    -0.166161146473     1.468001533222    15.994914619570
         O           -2.336298558135    -1.230481146473    -0.783458466778    15.994914619570
         O           -2.380221558135     1.312936853527    -0.530362466778    15.994914619570
         C           -0.131973558135     0.001703853527    -0.078529466778    12.000000000000
         C            1.940993441865    -1.216203146473     0.036771533222    12.000000000000
         C            1.932224441865     1.236560853527     0.017696533222    12.000000000000
         C            0.535239441865     1.226010853527    -0.053852466778    12.000000000000
         C            0.544810441865    -1.217437146473    -0.040245466778    12.000000000000
         C            2.612104441865     0.013182853527     0.064066533222    12.000000000000
         C            2.707632441865    -2.512737146473     0.042090533222    12.000000000000
         C            2.689353441865     2.538615853527    -0.001685466778    12.000000000000
         H           -0.030183558135     2.153481853527    -0.103821466778     1.007825032230
         H           -0.012803558135    -2.150260146473    -0.076753466778     1.007825032230
         H            3.700378441865     0.017649853527     0.128492533222     1.007825032230
         H            2.121412441865    -3.313700146473     0.500127533222     1.007825032230
         H            2.956188441865    -2.822592146473    -0.978473466778     1.007825032230
         H            3.643819441865    -2.412489146473     0.598025533222     1.007825032230
         H            2.934029441865     2.832118853527    -1.028006466778     1.007825032230
         H            2.098548441865     3.343907853527     0.442917533222     1.007825032230
         H            3.627282441865     2.455175853527     0.554112533222     1.007825032230
         H           -2.712692558135     0.668356853527     1.728389533222     1.007825032230

  Basis Set: AUG-CC-PVTZ
    Blend: AUG-CC-PVTZ
  Basis Set: (AUG-CC-PVTZ AUX)
    Blend: AUG-CC-PVTZ-JKFIT
	 Reference Energy          =    -931.0574311835158596 [Eh]
	 Singles Energy            =      -0.0000000000000000 [Eh]
	 Same-Spin Energy          =      -0.6212978485867693 [Eh]
	 Opposite-Spin Energy      =      -1.8676784769016332 [Eh]
	 Correlation Energy        =      -2.4889763254884025 [Eh]
	 Total Energy              =    -933.5464075090042115 [Eh]

	 ================> DF-SCS-MP2 Energies <==================
	-----------------------------------------------------------
	 SCS Same-Spin Scale       =       0.3333333333333333 [-]
	 SCS Opposite-Spin Scale   =       1.2000000000000000 [-]
	 SCS Same-Spin Energy      =      -0.2070992828622564 [Eh]
	 SCS Opposite-Spin Energy  =      -2.2412141722819596 [Eh]
	 SCS Correlation Energy    =      -2.4483134551442158 [Eh]
	 SCS Total Energy          =    -933.5057446386600759 [Eh]
	-----------------------------------------------------------

  Dipole Moment: [D]
     X:     4.4282      Y:     1.0033      Z:     1.8898     Total:     4.9180

*** Psi4 exiting successfully. Buy a developer a beer!
