                               Psi4 1.4a3.dev225

  ==> Input File <==

--------------------------------------------------------------------------
#psi4
#
memory 32 gb

molecule  {
0 1
  S       -1.9906940    -0.0125100    -0.1365530
  O       -2.3617000    -0.1700640     1.4590810
  O       -2.4286150    -1.2343840    -0.7923790
  O       -2.4725380     1.3090340    -0.5392830
  C       -0.2242900    -0.0021990    -0.0874500
  C        1.8486770    -1.2201060     0.0278510
  C        1.8399080     1.2326580     0.0087760
  C        0.4429230     1.2221080    -0.0627730
  C        0.4524940    -1.2213400    -0.0491660
  C        2.5197880     0.0092800     0.0551460
  C        2.6153160    -2.5166400     0.0331700
  C        2.5970370     2.5347130    -0.0106060
  H       -0.1225000     2.1495790    -0.1127420
  H       -0.1051200    -2.1541630    -0.0856740
  H        3.6080620     0.0137470     0.1195720
  H        2.0290960    -3.3176030     0.4912070
  H        2.8638720    -2.8264950    -0.9873940
  H        3.5515030    -2.4163920     0.5891050
  H        2.8417130     2.8282160    -1.0369270
  H        2.0062320     3.3400050     0.4339970
  H        3.5349660     2.4512730     0.5451920
  H       -2.7823953     0.6218842     1.7061863
units angstrom
no_reorient  #important for SAPT in psi4, default
symmetry c1  #important for SAPT in psi4, default
}

set PROPERTIES_ORIGIN ["COM"]
properties('MP2/aug-cc-pvtz', properties = ['dipole'])
--------------------------------------------------------------------------

    Molecular point group: c1
  Charge       = 0
  Multiplicity = 1
  Basis Set: AUG-CC-PVTZ
    Blend: AUG-CC-PVTZ
  Basis Set: (AUG-CC-PVTZ AUX)
    Blend: AUG-CC-PVTZ-JKFIT

    Orbital Energies [Eh]
    ---------------------

    Doubly Occupied:

       1A    -92.229719     2A    -20.625173     3A    -20.565823
       4A    -20.561369     5A    -11.286449     6A    -11.267718
       7A    -11.267409     8A    -11.263129     9A    -11.262414
      10A    -11.257421    11A    -11.241650    12A    -11.240578
      13A     -9.192613    14A     -6.878247    15A     -6.876927
      16A     -6.876687    17A     -1.497005    18A     -1.388346
      19A     -1.352107    20A     -1.188241    21A     -1.081900
      22A     -1.076083    23A     -0.962885    24A     -0.954024
      25A     -0.927304    26A     -0.823898    27A     -0.810187
      28A     -0.746712    29A     -0.723990    30A     -0.692247
      31A     -0.684271    32A     -0.672077    33A     -0.629988
      34A     -0.602764    35A     -0.601120    36A     -0.592075
      37A     -0.585532    38A     -0.576009    39A     -0.569758
      40A     -0.548273    41A     -0.538010    42A     -0.524589
      43A     -0.508795    44A     -0.507487    45A     -0.501526
      46A     -0.484932    47A     -0.474260    48A     -0.363689
      49A     -0.345336

  @DF-RHF Final Energy:  -931.05816567978468

   => Energetics <=

    Nuclear Repulsion Energy =            830.8290987996475678
    One-Electron Energy =               -2926.9170348524103247
    Two-Electron Energy =                1165.0297703729781915
    Total Energy =                       -931.0581656797846790
  Basis Set: (AUG-CC-PVTZ AUX)
    Blend: AUG-CC-PVTZ-RI
    Molecular point group: c1

    Geometry (in Angstrom), charge = 0, multiplicity = 1:

       Center              X                  Y                   Z               Mass
    ------------   -----------------  -----------------  -----------------  -----------------
         S           -1.898500065432    -0.008376529143    -0.127560509174    31.972071174400
         O           -2.269506065432    -0.165930529143     1.468073490826    15.994914619570
         O           -2.336421065432    -1.230250529143    -0.783386509174    15.994914619570
         O           -2.380344065432     1.313167470857    -0.530290509174    15.994914619570
         C           -0.132096065432     0.001934470857    -0.078457509174    12.000000000000
         C            1.940870934568    -1.215972529143     0.036843490826    12.000000000000
         C            1.932101934568     1.236791470857     0.017768490826    12.000000000000
         C            0.535116934568     1.226241470857    -0.053780509174    12.000000000000
         C            0.544687934568    -1.217206529143    -0.040173509174    12.000000000000
         C            2.611981934568     0.013413470857     0.064138490826    12.000000000000
         C            2.707509934568    -2.512506529143     0.042162490826    12.000000000000
         C            2.689230934568     2.538846470857    -0.001613509174    12.000000000000
         H           -0.030306065432     2.153712470857    -0.103749509174     1.007825032230
         H           -0.012926065432    -2.150029529143    -0.076681509174     1.007825032230
         H            3.700255934568     0.017880470857     0.128564490826     1.007825032230
         H            2.121289934568    -3.313469529143     0.500199490826     1.007825032230
         H            2.956065934568    -2.822361529143    -0.978401509174     1.007825032230
         H            3.643696934568    -2.412258529143     0.598097490826     1.007825032230
         H            2.933906934568     2.832349470857    -1.027934509174     1.007825032230
         H            2.098425934568     3.344138470857     0.442989490826     1.007825032230
         H            3.627159934568     2.455406470857     0.554184490826     1.007825032230
         H           -2.690201365432     0.626017670857     1.715178790826     1.007825032230

  Basis Set: AUG-CC-PVTZ
    Blend: AUG-CC-PVTZ
  Basis Set: (AUG-CC-PVTZ AUX)
    Blend: AUG-CC-PVTZ-JKFIT
	 Reference Energy          =    -931.0581656797846790 [Eh]
	 Singles Energy            =      -0.0000000000000000 [Eh]
	 Same-Spin Energy          =      -0.6206556657771887 [Eh]
	 Opposite-Spin Energy      =      -1.8662560426183556 [Eh]
	 Correlation Energy        =      -2.4869117083955441 [Eh]
	 Total Energy              =    -933.5450773881801751 [Eh]

	 ================> DF-SCS-MP2 Energies <==================
	-----------------------------------------------------------
	 SCS Same-Spin Scale       =       0.3333333333333333 [-]
	 SCS Opposite-Spin Scale   =       1.2000000000000000 [-]
	 SCS Same-Spin Energy      =      -0.2068852219257296 [Eh]
	 SCS Opposite-Spin Energy  =      -2.2395072511420269 [Eh]
	 SCS Correlation Energy    =      -2.4463924730677564 [Eh]
	 SCS Total Energy          =    -933.5045581528523826 [Eh]
	-----------------------------------------------------------

  Dipole Moment: [D]
     X:     4.4786      Y:     0.9549      Z:     1.8446     Total:     4.9369

*** Psi4 exiting successfully. Buy a developer a beer!
