                               Psi4 1.3.2 release

  ==> Input File <==

--------------------------------------------------------------------------
#psi4
#
memory 32 gb

molecule  {
0 1
  O       -0.5230660    -0.8124530    -0.0079950
  O        0.1289150     1.3564030    -0.0013430
  O       -1.8621010    -0.2365450     0.0068560
  C        1.7946690    -0.4246496    -0.1963745
  C        0.4181520     0.1698940    -0.0073790
  H        2.2615610    -0.2048250     0.9659560
  H        1.7606640    -1.5032570    -0.1498870
  H        2.3854820     0.0509630    -0.7800310
  H       -1.6289270     0.7283940     0.0063510
units angstrom
no_reorient  #important for SAPT in psi4, default
symmetry c1  #important for SAPT in psi4, default
}

set PROPERTIES_ORIGIN ["COM"]
properties('MP2/aug-cc-pvtz', properties = ['dipole'])
--------------------------------------------------------------------------

    Molecular point group: c1
  Charge       = 0
  Multiplicity = 1
  Basis Set: AUG-CC-PVTZ
    Blend: AUG-CC-PVTZ
  Basis Set: (AUG-CC-PVTZ AUX)
    Blend: AUG-CC-PVTZ-JKFIT

    Orbital Energies [Eh]
    ---------------------

    Doubly Occupied:

       1A    -20.676465     2A    -20.650724     3A    -20.577398
       4A    -11.418030     5A    -11.272420     6A     -1.531804
       7A     -1.405586     8A     -1.266591     9A     -1.037117
      10A     -0.836620    11A     -0.740861    12A     -0.708895
      13A     -0.693820    14A     -0.642304    15A     -0.606037
      16A     -0.593473    17A     -0.570259    18A     -0.508314
      19A     -0.485294    20A     -0.478202

  @DF-RHF Final Energy:  -302.64273939590782

   => Energetics <=

    Nuclear Repulsion Energy =            180.1926478080916638
    One-Electron Energy =                -772.2703422313429655
    Two-Electron Energy =                 289.4349550273434488
    Total Energy =                       -302.6427393959078245
  Basis Set: (AUG-CC-PVTZ AUX)
    Blend: AUG-CC-PVTZ-RI
    Molecular point group: c1

    Geometry (in Angstrom), charge = 0, multiplicity = 1:

       Center              X                  Y                   Z               Mass
    ------------   -----------------  -----------------  -----------------  -----------------
         O           -0.460993156621    -0.824606450471     0.024130069323    15.994914619570
         O            0.190987843379     1.344249549529     0.030782069323    15.994914619570
         O           -1.800028156621    -0.248698450471     0.038981069323    15.994914619570
         C            1.856741843379    -0.436803050471    -0.164249430677    12.000000000000
         C            0.480224843379     0.157740549529     0.024746069323    12.000000000000
         H            2.323633843379    -0.216978450471     0.998081069323     1.007825032230
         H            1.822736843379    -1.515410450471    -0.117761930677     1.007825032230
         H            2.447554843379     0.038809549529    -0.747905930677     1.007825032230
         H           -1.566854156621     0.716240549529     0.038476069323     1.007825032230

  Basis Set: AUG-CC-PVTZ
    Blend: AUG-CC-PVTZ
  Basis Set: (AUG-CC-PVTZ AUX)
    Blend: AUG-CC-PVTZ-JKFIT
	 Reference Energy          =    -302.6427393959078245 [Eh]
	 Singles Energy            =      -0.0000000000000000 [Eh]
	 Same-Spin Energy          =      -0.2842277150483660 [Eh]
	 Opposite-Spin Energy      =      -0.8677976642583798 [Eh]
	 Correlation Energy        =      -1.1520253793067456 [Eh]
	 Total Energy              =    -303.7947647752145599 [Eh]

	 ================> DF-SCS-MP2 Energies <==================
	-----------------------------------------------------------
	 SCS Same-Spin Scale       =       0.3333333333333333 [-]
	 SCS Opposite-Spin Scale   =       1.2000000000000000 [-]
	 SCS Same-Spin Energy      =      -0.0947425716827887 [Eh]
	 SCS Opposite-Spin Energy  =      -1.0413571971100557 [Eh]
	 SCS Correlation Energy    =      -1.1360997687928442 [Eh]
	 SCS Total Energy          =    -303.7788391647006847 [Eh]
	-----------------------------------------------------------

  Dipole Moment: [D]
     X:     2.4029      Y:    -0.5209      Z:    -0.0148     Total:     2.4587

*** Psi4 exiting successfully. Buy a developer a beer!
