                               Psi4 1.3.2 release

  ==> Input File <==

--------------------------------------------------------------------------
#psi4
#
memory 32 gb

molecule  {
0 1
  O       -0.5230660    -0.8124530    -0.0079950
  O        0.1289150     1.3564030    -0.0013430
  O       -1.8621010    -0.2365450     0.0068560
  C        1.7937210    -0.4249780     0.0036230
  C        0.4181520     0.1698940    -0.0073790
  H        2.2615610    -0.2048250     0.9659560
  H        1.7606640    -1.5032570    -0.1498870
  H        2.3854820     0.0509630    -0.7800310
  H       -1.6289270     0.7283940     0.0063510
units angstrom
no_reorient  #important for SAPT in psi4, default
symmetry c1  #important for SAPT in psi4, default
}

set PROPERTIES_ORIGIN ["COM"]
properties('MP2/aug-cc-pvtz', properties = ['dipole'])
--------------------------------------------------------------------------

    Molecular point group: c1
  Charge       = 0
  Multiplicity = 1
  Basis Set: AUG-CC-PVTZ
    Blend: AUG-CC-PVTZ
  Basis Set: (AUG-CC-PVTZ AUX)
    Blend: AUG-CC-PVTZ-JKFIT

    Orbital Energies [Eh]
    ---------------------

    Doubly Occupied:

       1A    -20.676535     2A    -20.649866     3A    -20.578260
       4A    -11.415428     5A    -11.266020     6A     -1.531582
       7A     -1.405850     8A     -1.266307     9A     -1.035439
      10A     -0.833853    11A     -0.738989    12A     -0.697039
      13A     -0.696284    14A     -0.618570    15A     -0.610944
      16A     -0.596003    17A     -0.571675    18A     -0.536189
      19A     -0.487537    20A     -0.477654

  @DF-RHF Final Energy:  -302.68003547781768

   => Energetics <=

    Nuclear Repulsion Energy =            180.3622655972622510
    One-Electron Energy =                -772.7045549602099754
    Two-Electron Energy =                 289.6622538851299851
    Total Energy =                       -302.6800354778176825
  Basis Set: (AUG-CC-PVTZ AUX)
    Blend: AUG-CC-PVTZ-RI
    Molecular point group: c1

    Geometry (in Angstrom), charge = 0, multiplicity = 1:

       Center              X                  Y                   Z               Mass
    ------------   -----------------  -----------------  -----------------  -----------------
         O           -0.460843504003    -0.824554608783    -0.007441818322    15.994914619570
         O            0.191137495997     1.344301391217    -0.000789818322    15.994914619570
         O           -1.799878504003    -0.248646608783     0.007409181678    15.994914619570
         C            1.855943495997    -0.437079608783     0.004176181678    12.000000000000
         C            0.480374495997     0.157792391217    -0.006825818322    12.000000000000
         H            2.323783495997    -0.216926608783     0.966509181678     1.007825032230
         H            1.822886495997    -1.515358608783    -0.149333818322     1.007825032230
         H            2.447704495997     0.038861391217    -0.779477818322     1.007825032230
         H           -1.566704504003     0.716292391217     0.006904181678     1.007825032230

  Basis Set: AUG-CC-PVTZ
    Blend: AUG-CC-PVTZ
  Basis Set: (AUG-CC-PVTZ AUX)
    Blend: AUG-CC-PVTZ-JKFIT
	 Reference Energy          =    -302.6800354778176825 [Eh]
	 Singles Energy            =      -0.0000000000000000 [Eh]
	 Same-Spin Energy          =      -0.2838331301323399 [Eh]
	 Opposite-Spin Energy      =      -0.8664107017363044 [Eh]
	 Correlation Energy        =      -1.1502438318686443 [Eh]
	 Total Energy              =    -303.8302793096863184 [Eh]

	 ================> DF-SCS-MP2 Energies <==================
	-----------------------------------------------------------
	 SCS Same-Spin Scale       =       0.3333333333333333 [-]
	 SCS Opposite-Spin Scale   =       1.2000000000000000 [-]
	 SCS Same-Spin Energy      =      -0.0946110433774466 [Eh]
	 SCS Opposite-Spin Energy  =      -1.0396928420835652 [Eh]
	 SCS Correlation Energy    =      -1.1343038854610117 [Eh]
	 SCS Total Energy          =    -303.8143393632786911 [Eh]
	-----------------------------------------------------------

  Dipole Moment: [D]
     X:     2.4067      Y:    -0.4990      Z:     0.0149     Total:     2.4580

*** Psi4 exiting successfully. Buy a developer a beer!
