                               Psi4 1.3.2 release

  ==> Input File <==

--------------------------------------------------------------------------
#psi4
#
memory 32 gb

molecule  {
0 1
  O       -0.5230660    -0.8124530    -0.0079950
  O        0.1289150     1.3564030    -0.0013430
  O       -1.8621010    -0.2365450     0.0068560
  C        1.7939580    -0.4248959    -0.0463764
  C        0.4181520     0.1698940    -0.0073790
  H        2.2615610    -0.2048250     0.9659560
  H        1.7606640    -1.5032570    -0.1498870
  H        2.3854820     0.0509630    -0.7800310
  H       -1.6289270     0.7283940     0.0063510
units angstrom
no_reorient  #important for SAPT in psi4, default
symmetry c1  #important for SAPT in psi4, default
}

set PROPERTIES_ORIGIN ["COM"]
properties('MP2/aug-cc-pvtz', properties = ['dipole'])
--------------------------------------------------------------------------

    Molecular point group: c1
  Charge       = 0
  Multiplicity = 1
  Basis Set: AUG-CC-PVTZ
    Blend: AUG-CC-PVTZ
  Basis Set: (AUG-CC-PVTZ AUX)
    Blend: AUG-CC-PVTZ-JKFIT

    Orbital Energies [Eh]
    ---------------------

    Doubly Occupied:

       1A    -20.676447     2A    -20.649929     3A    -20.578024
       4A    -11.415581     5A    -11.266572     6A     -1.531549
       7A     -1.405736     8A     -1.266303     9A     -1.035579
      10A     -0.834018    11A     -0.739179    12A     -0.698305
      13A     -0.695253    14A     -0.623046    15A     -0.607220
      16A     -0.596293    17A     -0.573213    18A     -0.532942
      19A     -0.487397    20A     -0.477691

  @DF-RHF Final Energy:  -302.67765049822253

   => Energetics <=

    Nuclear Repulsion Energy =            180.3513243682608334
    One-Electron Energy =                -772.6773936427430272
    Two-Electron Energy =                 289.6484187762596321
    Total Energy =                       -302.6776504982225333
  Basis Set: (AUG-CC-PVTZ AUX)
    Blend: AUG-CC-PVTZ-RI
    Molecular point group: c1

    Geometry (in Angstrom), charge = 0, multiplicity = 1:

       Center              X                  Y                   Z               Mass
    ------------   -----------------  -----------------  -----------------  -----------------
         O           -0.460880917158    -0.824567569205     0.000451157536    15.994914619570
         O            0.191100082842     1.344288430795     0.007103157536    15.994914619570
         O           -1.799915917158    -0.248659569205     0.015302157536    15.994914619570
         C            1.856143082842    -0.437010469205    -0.037930242464    12.000000000000
         C            0.480337082842     0.157779430795     0.001067157536    12.000000000000
         H            2.323746082842    -0.216939569205     0.974402157536     1.007825032230
         H            1.822849082842    -1.515371569205    -0.141440842464     1.007825032230
         H            2.447667082842     0.038848430795    -0.771584842464     1.007825032230
         H           -1.566741917158     0.716279430795     0.014797157536     1.007825032230

  Basis Set: AUG-CC-PVTZ
    Blend: AUG-CC-PVTZ
  Basis Set: (AUG-CC-PVTZ AUX)
    Blend: AUG-CC-PVTZ-JKFIT
	 Reference Energy          =    -302.6776504982225333 [Eh]
	 Singles Energy            =      -0.0000000000000000 [Eh]
	 Same-Spin Energy          =      -0.2838474321774032 [Eh]
	 Opposite-Spin Energy      =      -0.8664438166979929 [Eh]
	 Correlation Energy        =      -1.1502912488753960 [Eh]
	 Total Energy              =    -303.8279417470979524 [Eh]

	 ================> DF-SCS-MP2 Energies <==================
	-----------------------------------------------------------
	 SCS Same-Spin Scale       =       0.3333333333333333 [-]
	 SCS Opposite-Spin Scale   =       1.2000000000000000 [-]
	 SCS Same-Spin Energy      =      -0.0946158107258011 [Eh]
	 SCS Opposite-Spin Energy  =      -1.0397325800375914 [Eh]
	 SCS Correlation Energy    =      -1.1343483907633924 [Eh]
	 SCS Total Energy          =    -303.8119988889859542 [Eh]
	-----------------------------------------------------------

  Dipole Moment: [D]
     X:     2.4118      Y:    -0.5040      Z:     0.0080     Total:     2.4640

*** Psi4 exiting successfully. Buy a developer a beer!
