                               Psi4 1.3.2 release

  ==> Input File <==

--------------------------------------------------------------------------
#psi4
#
memory 32 gb

molecule  {
0 1
  O       -0.5230660    -0.8124530    -0.0079950
  O        0.1289150     1.3564030    -0.0013430
  O       -1.8621010    -0.2365450     0.0068560
  C        1.7941950    -0.4248138    -0.0963757
  C        0.4181520     0.1698940    -0.0073790
  H        2.2615610    -0.2048250     0.9659560
  H        1.7606640    -1.5032570    -0.1498870
  H        2.3854820     0.0509630    -0.7800310
  H       -1.6289270     0.7283940     0.0063510
units angstrom
no_reorient  #important for SAPT in psi4, default
symmetry c1  #important for SAPT in psi4, default
}

set PROPERTIES_ORIGIN ["COM"]
properties('MP2/aug-cc-pvtz', properties = ['dipole'])
--------------------------------------------------------------------------

    Molecular point group: c1
  Charge       = 0
  Multiplicity = 1
  Basis Set: AUG-CC-PVTZ
    Blend: AUG-CC-PVTZ
  Basis Set: (AUG-CC-PVTZ AUX)
    Blend: AUG-CC-PVTZ-JKFIT

    Orbital Energies [Eh]
    ---------------------

    Doubly Occupied:

       1A    -20.676410     2A    -20.650097     3A    -20.577804
       4A    -11.416079     5A    -11.267824     6A     -1.531579
       7A     -1.405656     8A     -1.266353     9A     -1.035908
      10A     -0.834548    11A     -0.739550    12A     -0.700901
      13A     -0.694407    14A     -0.629440    15A     -0.605778
      16A     -0.595441    17A     -0.572880    18A     -0.526726
      19A     -0.487040    20A     -0.477800

  @DF-RHF Final Energy:  -302.67044943870468

   => Energetics <=

    Nuclear Repulsion Energy =            180.3200285325151810
    One-Electron Energy =                -772.5965137192799830
    Two-Electron Energy =                 289.6060357480601510
    Total Energy =                       -302.6704494387046793
  Basis Set: (AUG-CC-PVTZ AUX)
    Blend: AUG-CC-PVTZ-RI
    Molecular point group: c1

    Geometry (in Angstrom), charge = 0, multiplicity = 1:

       Center              X                  Y                   Z               Mass
    ------------   -----------------  -----------------  -----------------  -----------------
         O           -0.460918330312    -0.824580529627     0.008344117608    15.994914619570
         O            0.191062669688     1.344275470373     0.014996117608    15.994914619570
         O           -1.799953330312    -0.248672529627     0.023195117608    15.994914619570
         C            1.856342669688    -0.436941329627    -0.080036582392    12.000000000000
         C            0.480299669688     0.157766470373     0.008960117608    12.000000000000
         H            2.323708669688    -0.216952529627     0.982295117608     1.007825032230
         H            1.822811669688    -1.515384529627    -0.133547882392     1.007825032230
         H            2.447629669688     0.038835470373    -0.763691882392     1.007825032230
         H           -1.566779330312     0.716266470373     0.022690117608     1.007825032230

  Basis Set: AUG-CC-PVTZ
    Blend: AUG-CC-PVTZ
  Basis Set: (AUG-CC-PVTZ AUX)
    Blend: AUG-CC-PVTZ-JKFIT
	 Reference Energy          =    -302.6704494387046793 [Eh]
	 Singles Energy            =      -0.0000000000000000 [Eh]
	 Same-Spin Energy          =      -0.2839181503453210 [Eh]
	 Opposite-Spin Energy      =      -0.8666842356024878 [Eh]
	 Correlation Energy        =      -1.1506023859478087 [Eh]
	 Total Energy              =    -303.8210518246524998 [Eh]

	 ================> DF-SCS-MP2 Energies <==================
	-----------------------------------------------------------
	 SCS Same-Spin Scale       =       0.3333333333333333 [-]
	 SCS Opposite-Spin Scale   =       1.2000000000000000 [-]
	 SCS Same-Spin Energy      =      -0.0946393834484403 [Eh]
	 SCS Opposite-Spin Energy  =      -1.0400210827229852 [Eh]
	 SCS Correlation Energy    =      -1.1346604661714255 [Eh]
	 SCS Total Energy          =    -303.8051099048761330 [Eh]
	-----------------------------------------------------------

  Dipole Moment: [D]
     X:     2.4125      Y:    -0.5094      Z:     0.0004     Total:     2.4657

*** Psi4 exiting successfully. Buy a developer a beer!
