                               Psi4 1.3.2 release

  ==> Input File <==

--------------------------------------------------------------------------
#psi4
#
memory 32 gb

molecule  {
0 1
  O       -0.5230660    -0.8124530    -0.0079950
  O        0.1289150     1.3564030    -0.0013430
  O       -1.8621010    -0.2365450     0.0068560
  C        1.7951430    -0.4244854    -0.2963732
  C        0.4181520     0.1698940    -0.0073790
  H        2.2615610    -0.2048250     0.9659560
  H        1.7606640    -1.5032570    -0.1498870
  H        2.3854820     0.0509630    -0.7800310
  H       -1.6289270     0.7283940     0.0063510
units angstrom
no_reorient  #important for SAPT in psi4, default
symmetry c1  #important for SAPT in psi4, default
}

set PROPERTIES_ORIGIN ["COM"]
properties('MP2/aug-cc-pvtz', properties = ['dipole'])
--------------------------------------------------------------------------

    Molecular point group: c1
  Charge       = 0
  Multiplicity = 1
  Basis Set: AUG-CC-PVTZ
    Blend: AUG-CC-PVTZ
  Basis Set: (AUG-CC-PVTZ AUX)
    Blend: AUG-CC-PVTZ-JKFIT

    Orbital Energies [Eh]
    ---------------------

    Doubly Occupied:

       1A    -20.676642     2A    -20.651670     3A    -20.577026
       4A    -11.421057     5A    -11.279664     6A     -1.532192
       7A     -1.405595     8A     -1.266963     9A     -1.039148
      10A     -0.839923    11A     -0.744161    12A     -0.718083
      13A     -0.693955    14A     -0.650080    15A     -0.606752
      16A     -0.592221    17A     -0.568181    18A     -0.491187
      19A     -0.479186    20A     -0.477688

  @DF-RHF Final Energy:  -302.59907342648972

   => Energetics <=

    Nuclear Repulsion Energy =            179.9739006548744271
    One-Electron Energy =                -771.7232047903560215
    Two-Electron Energy =                 289.1502307089918418
    Total Energy =                       -302.5990734264897242
  Basis Set: (AUG-CC-PVTZ AUX)
    Blend: AUG-CC-PVTZ-RI
    Molecular point group: c1

    Geometry (in Angstrom), charge = 0, multiplicity = 1:

       Center              X                  Y                   Z               Mass
    ------------   -----------------  -----------------  -----------------  -----------------
         O           -0.461067982930    -0.824632371314     0.039916005253    15.994914619570
         O            0.190913017070     1.344223628686     0.046568005253    15.994914619570
         O           -1.800102982930    -0.248724371314     0.054767005253    15.994914619570
         C            1.857141017070    -0.436664771314    -0.248462194747    12.000000000000
         C            0.480150017070     0.157714628686     0.040532005253    12.000000000000
         H            2.323559017070    -0.217004371314     1.013867005253     1.007825032230
         H            1.822662017070    -1.515436371314    -0.101975994747     1.007825032230
         H            2.447480017070     0.038783628686    -0.732119994747     1.007825032230
         H           -1.566928982930     0.716214628686     0.054262005253     1.007825032230

  Basis Set: AUG-CC-PVTZ
    Blend: AUG-CC-PVTZ
  Basis Set: (AUG-CC-PVTZ AUX)
    Blend: AUG-CC-PVTZ-JKFIT
	 Reference Energy          =    -302.5990734264897242 [Eh]
	 Singles Energy            =      -0.0000000000000000 [Eh]
	 Same-Spin Energy          =      -0.2847696962433874 [Eh]
	 Opposite-Spin Energy      =      -0.8698049890407685 [Eh]
	 Correlation Energy        =      -1.1545746852841559 [Eh]
	 Total Energy              =    -303.7536481117738845 [Eh]

	 ================> DF-SCS-MP2 Energies <==================
	-----------------------------------------------------------
	 SCS Same-Spin Scale       =       0.3333333333333333 [-]
	 SCS Opposite-Spin Scale   =       1.2000000000000000 [-]
	 SCS Same-Spin Energy      =      -0.0949232320811291 [Eh]
	 SCS Opposite-Spin Energy  =      -1.0437659868489222 [Eh]
	 SCS Correlation Energy    =      -1.1386892189300513 [Eh]
	 SCS Total Energy          =    -303.7377626454197639 [Eh]
	-----------------------------------------------------------

  Dipole Moment: [D]
     X:     2.3846      Y:    -0.5303      Z:    -0.0237     Total:     2.4430

*** Psi4 exiting successfully. Buy a developer a beer!
