                               Psi4 1.3.2 release

  ==> Input File <==

--------------------------------------------------------------------------
#psi4
#
memory 32 gb

molecule  {
0 1
  O       -0.5230660    -0.8124530    -0.0079950
  O        0.1289150     1.3564030    -0.0013430
  O       -1.8621010    -0.2365450     0.0068560
  C        1.7944320    -0.4247317    -0.1463751
  C        0.4181520     0.1698940    -0.0073790
  H        2.2615610    -0.2048250     0.9659560
  H        1.7606640    -1.5032570    -0.1498870
  H        2.3854820     0.0509630    -0.7800310
  H       -1.6289270     0.7283940     0.0063510
units angstrom
no_reorient  #important for SAPT in psi4, default
symmetry c1  #important for SAPT in psi4, default
}

set PROPERTIES_ORIGIN ["COM"]
properties('MP2/aug-cc-pvtz', properties = ['dipole'])
--------------------------------------------------------------------------

    Molecular point group: c1
  Charge       = 0
  Multiplicity = 1
  Basis Set: AUG-CC-PVTZ
    Blend: AUG-CC-PVTZ
  Basis Set: (AUG-CC-PVTZ AUX)
    Blend: AUG-CC-PVTZ-JKFIT

    Orbital Energies [Eh]
    ---------------------

    Doubly Occupied:

       1A    -20.676418     2A    -20.650365     3A    -20.577596
       4A    -11.416904     5A    -11.269776     6A     -1.531667
       7A     -1.405608     8A     -1.266451     9A     -1.036418
      10A     -0.835420    11A     -0.740080    12A     -0.704469
      13A     -0.693978    14A     -0.636246    15A     -0.605722
      16A     -0.594332    17A     -0.571620    18A     -0.518187
      19A     -0.486399    20A     -0.477973

  @DF-RHF Final Energy:  -302.65872535405111

   => Energetics <=

    Nuclear Repulsion Energy =            180.2674101671219091
    One-Electron Energy =                -772.4610100720261698
    Two-Electron Energy =                 289.5348745508530897
    Total Energy =                       -302.6587253540511142
  Basis Set: (AUG-CC-PVTZ AUX)
    Blend: AUG-CC-PVTZ-RI
    Molecular point group: c1

    Geometry (in Angstrom), charge = 0, multiplicity = 1:

       Center              X                  Y                   Z               Mass
    ------------   -----------------  -----------------  -----------------  -----------------
         O           -0.460955743467    -0.824593490049     0.016237093466    15.994914619570
         O            0.191025256533     1.344262509951     0.022889093466    15.994914619570
         O           -1.799990743467    -0.248685490049     0.031088093466    15.994914619570
         C            1.856542256533    -0.436872190049    -0.122143006534    12.000000000000
         C            0.480262256533     0.157753509951     0.016853093466    12.000000000000
         H            2.323671256533    -0.216965490049     0.990188093466     1.007825032230
         H            1.822774256533    -1.515397490049    -0.125654906534     1.007825032230
         H            2.447592256533     0.038822509951    -0.755798906534     1.007825032230
         H           -1.566816743467     0.716253509951     0.030583093466     1.007825032230

  Basis Set: AUG-CC-PVTZ
    Blend: AUG-CC-PVTZ
  Basis Set: (AUG-CC-PVTZ AUX)
    Blend: AUG-CC-PVTZ-JKFIT
	 Reference Energy          =    -302.6587253540511142 [Eh]
	 Singles Energy            =      -0.0000000000000000 [Eh]
	 Same-Spin Energy          =      -0.2840447357157665 [Eh]
	 Opposite-Spin Energy      =      -0.8671338806734390 [Eh]
	 Correlation Energy        =      -1.1511786163892055 [Eh]
	 Total Energy              =    -303.8099039704403026 [Eh]

	 ================> DF-SCS-MP2 Energies <==================
	-----------------------------------------------------------
	 SCS Same-Spin Scale       =       0.3333333333333333 [-]
	 SCS Opposite-Spin Scale   =       1.2000000000000000 [-]
	 SCS Same-Spin Energy      =      -0.0946815785719222 [Eh]
	 SCS Opposite-Spin Energy  =      -1.0405606568081267 [Eh]
	 SCS Correlation Energy    =      -1.1352422353800489 [Eh]
	 SCS Total Energy          =    -303.7939675894311904 [Eh]
	-----------------------------------------------------------

  Dipole Moment: [D]
     X:     2.4092      Y:    -0.5151      Z:    -0.0075     Total:     2.4637

*** Psi4 exiting successfully. Buy a developer a beer!
