                               Psi4 1.3.2 release

  ==> Input File <==

--------------------------------------------------------------------------
#psi4
#
memory 32 gb

molecule  {
0 1
  O       -0.5230660    -0.8124530    -0.0079950
  O        0.1289150     1.3564030    -0.0013430
  O       -1.8621010    -0.2365450     0.0068560
  C        1.7949060    -0.4245675    -0.2463739
  C        0.4181520     0.1698940    -0.0073790
  H        2.2615610    -0.2048250     0.9659560
  H        1.7606640    -1.5032570    -0.1498870
  H        2.3854820     0.0509630    -0.7800310
  H       -1.6289270     0.7283940     0.0063510
units angstrom
no_reorient  #important for SAPT in psi4, default
symmetry c1  #important for SAPT in psi4, default
}

set PROPERTIES_ORIGIN ["COM"]
properties('MP2/aug-cc-pvtz', properties = ['dipole'])
--------------------------------------------------------------------------

    Molecular point group: c1
  Charge       = 0
  Multiplicity = 1
  Basis Set: AUG-CC-PVTZ
    Blend: AUG-CC-PVTZ
  Basis Set: (AUG-CC-PVTZ AUX)
    Blend: AUG-CC-PVTZ-JKFIT

    Orbital Energies [Eh]
    ---------------------

    Doubly Occupied:

       1A    -20.676543     2A    -20.651164     3A    -20.577209
       4A    -11.419428     5A    -11.275731     6A     -1.531983
       7A     -1.405584     8A     -1.266765     9A     -1.038021
      10A     -0.838132    11A     -0.742116    12A     -0.713705
      13A     -0.693834    14A     -0.646970    15A     -0.606405
      16A     -0.592810    17A     -0.569106    18A     -0.498511
      19A     -0.483137    20A     -0.478459

  @DF-RHF Final Energy:  -302.62275456222881

   => Energetics <=

    Nuclear Repulsion Energy =            180.0950284458744193
    One-Electron Energy =                -772.0243418925823562
    Two-Electron Energy =                 289.3065588844791591
    Total Energy =                       -302.6227545622288062
  Basis Set: (AUG-CC-PVTZ AUX)
    Blend: AUG-CC-PVTZ-RI
    Molecular point group: c1

    Geometry (in Angstrom), charge = 0, multiplicity = 1:

       Center              X                  Y                   Z               Mass
    ------------   -----------------  -----------------  -----------------  -----------------
         O           -0.461030569776    -0.824619410892     0.032023045181    15.994914619570
         O            0.190950430224     1.344236589108     0.038675045181    15.994914619570
         O           -1.800065569776    -0.248711410892     0.046874045181    15.994914619570
         C            1.856941430224    -0.436733910892    -0.206355854819    12.000000000000
         C            0.480187430224     0.157727589108     0.032639045181    12.000000000000
         H            2.323596430224    -0.216991410892     1.005974045181     1.007825032230
         H            1.822699430224    -1.515423410892    -0.109868954819     1.007825032230
         H            2.447517430224     0.038796589108    -0.740012954819     1.007825032230
         H           -1.566891569776     0.716227589108     0.046369045181     1.007825032230

  Basis Set: AUG-CC-PVTZ
    Blend: AUG-CC-PVTZ
  Basis Set: (AUG-CC-PVTZ AUX)
    Blend: AUG-CC-PVTZ-JKFIT
	 Reference Energy          =    -302.6227545622288062 [Eh]
	 Singles Energy            =      -0.0000000000000000 [Eh]
	 Same-Spin Energy          =      -0.2844685817420880 [Eh]
	 Opposite-Spin Energy      =      -0.8686839726108644 [Eh]
	 Correlation Energy        =      -1.1531525543529524 [Eh]
	 Total Energy              =    -303.7759071165817772 [Eh]

	 ================> DF-SCS-MP2 Energies <==================
	-----------------------------------------------------------
	 SCS Same-Spin Scale       =       0.3333333333333333 [-]
	 SCS Opposite-Spin Scale   =       1.2000000000000000 [-]
	 SCS Same-Spin Energy      =      -0.0948228605806960 [Eh]
	 SCS Opposite-Spin Energy  =      -1.0424207671330372 [Eh]
	 SCS Correlation Energy    =      -1.1372436277137332 [Eh]
	 SCS Total Energy          =    -303.7599981899425643 [Eh]
	-----------------------------------------------------------

  Dipole Moment: [D]
     X:     2.3943      Y:    -0.5262      Z:    -0.0206     Total:     2.4515

*** Psi4 exiting successfully. Buy a developer a beer!
