                               Psi4 1.4a2.dev612

  ==> Input File <==

--------------------------------------------------------------------------
#psi4
#
memory 32 gb

molecule  {
0 1
  N       -0.8580750     2.1650740    -0.5094440
  C       -0.6634250    -0.2127650     0.0691530
  C        0.8157840    -0.1537790     0.0420590
  C       -1.4510140     0.9181800    -0.2423400
  C       -1.3025160    -1.4250040     0.3687340
  C        1.5441380    -1.0912920    -0.7082460
  C        1.5175140     0.8066950     0.7907500
  C       -2.8472491     0.7733256    -0.3437731
  C       -2.6918610    -1.5288690     0.3976690
  C       -3.4646370    -0.4031430     0.1053440
  C        2.9393010    -1.0716050    -0.7093040
  C        2.9130560     0.8267600     0.7846130
  C        3.6278980    -0.1122400     0.0369440
  H       -0.6848640    -2.2871190     0.6142040
  H        1.0058700    -1.8278860    -1.3015600
  H        0.9614050     1.5295600     1.3833290
  H       -3.4548610     1.6831510    -0.4309120
  H       -3.1654310    -2.4765660     0.6404150
  H       -4.5504850    -0.4615560     0.1267090
  H        3.4898150    -1.8022040    -1.2977600
  H        3.4438080     1.5707970     1.3744420
  H        4.7151610    -0.0954640     0.0345500
  H        0.0736060     2.0855870    -0.9073830
  H       -1.4416920     2.7564150    -1.0941350
units angstrom
no_reorient  #important for SAPT in psi4, default
symmetry c1  #important for SAPT in psi4, default
}

set PROPERTIES_ORIGIN ["COM"]
properties('MP2/aug-cc-pvtz', properties = ['dipole'])
--------------------------------------------------------------------------

    Molecular point group: c1
  Charge       = 0
  Multiplicity = 1
  Basis Set: AUG-CC-PVTZ
    Blend: AUG-CC-PVTZ
  Basis Set: (AUG-CC-PVTZ AUX)
    Blend: AUG-CC-PVTZ-JKFIT

    Orbital Energies [Eh]
    ---------------------

    Doubly Occupied:

       1A    -15.564606     2A    -11.281943     3A    -11.246876
       4A    -11.239310     5A    -11.239083     6A    -11.238872
       7A    -11.237908     8A    -11.237138     9A    -11.236809
      10A    -11.236037    11A    -11.235458    12A    -11.228355
      13A    -11.223144    14A     -1.225244    15A     -1.156384
      16A     -1.125346    17A     -1.051228    18A     -1.015280
      19A     -0.993275    20A     -0.974179    21A     -0.852254
      22A     -0.834694    23A     -0.811140    24A     -0.788892
      25A     -0.711806    26A     -0.686135    27A     -0.685308
      28A     -0.655603    29A     -0.626125    30A     -0.622303
      31A     -0.594836    32A     -0.591668    33A     -0.586397
      34A     -0.578029    35A     -0.536442    36A     -0.522093
      37A     -0.507221    38A     -0.500489    39A     -0.489664
      40A     -0.479083    41A     -0.446953    42A     -0.360243
      43A     -0.338866    44A     -0.318804    45A     -0.290398

  @DF-RHF Final Energy:  -515.44642851648598

   => Energetics <=

    Nuclear Repulsion Energy =            708.8255074327207694
    One-Electron Energy =               -2103.7400376635487191
    Two-Electron Energy =                 879.4681017143419695
    Total Energy =                       -515.4464285164859803
  Basis Set: (AUG-CC-PVTZ AUX)
    Blend: AUG-CC-PVTZ-RI
    Molecular point group: c1

    Geometry (in Angstrom), charge = 0, multiplicity = 1:

       Center              X                  Y                   Z               Mass
    ------------   -----------------  -----------------  -----------------  -----------------
         N           -0.855848843459     2.171503452691    -0.504125131791    14.003074004430
         C           -0.661198843459    -0.206335547309     0.074471868209    12.000000000000
         C            0.818010156541    -0.147349547309     0.047377868209    12.000000000000
         C           -1.448787843459     0.924609452691    -0.237021131791    12.000000000000
         C           -1.300289843459    -1.418574547309     0.374052868209    12.000000000000
         C            1.546364156541    -1.084862547309    -0.702927131791    12.000000000000
         C            1.519740156541     0.813124452691     0.796068868209    12.000000000000
         C           -2.845022943459     0.779755052691    -0.338454231791    12.000000000000
         C           -2.689634843459    -1.522439547309     0.402987868209    12.000000000000
         C           -3.462410843459    -0.396713547309     0.110662868209    12.000000000000
         C            2.941527156541    -1.065175547309    -0.703985131791    12.000000000000
         C            2.915282156541     0.833189452691     0.789931868209    12.000000000000
         C            3.630124156541    -0.105810547309     0.042262868209    12.000000000000
         H           -0.682637843459    -2.280689547309     0.619522868209     1.007825032230
         H            1.008096156541    -1.821456547309    -1.296241131791     1.007825032230
         H            0.963631156541     1.535989452691     1.388647868209     1.007825032230
         H           -3.452634843459     1.689580452691    -0.425593131791     1.007825032230
         H           -3.163204843459    -2.470136547309     0.645733868209     1.007825032230
         H           -4.548258843459    -0.455126547309     0.132027868209     1.007825032230
         H            3.492041156541    -1.795774547309    -1.292441131791     1.007825032230
         H            3.446034156541     1.577226452691     1.379760868209     1.007825032230
         H            4.717387156541    -0.089034547309     0.039868868209     1.007825032230
         H            0.075832156541     2.092016452691    -0.902064131791     1.007825032230
         H           -1.439465843459     2.762844452691    -1.088816131791     1.007825032230

  Basis Set: AUG-CC-PVTZ
    Blend: AUG-CC-PVTZ
  Basis Set: (AUG-CC-PVTZ AUX)
    Blend: AUG-CC-PVTZ-JKFIT
	 Reference Energy          =    -515.4464285164859803 [Eh]
	 Singles Energy            =      -0.0000000000000000 [Eh]
	 Same-Spin Energy          =      -0.5831572781544698 [Eh]
	 Opposite-Spin Energy      =      -1.8018927282198227 [Eh]
	 Correlation Energy        =      -2.3850500063742928 [Eh]
	 Total Energy              =    -517.8314785228602659 [Eh]

	 ================> DF-SCS-MP2 Energies <==================
	-----------------------------------------------------------
	 SCS Same-Spin Scale       =       0.3333333333333333 [-]
	 SCS Opposite-Spin Scale   =       1.2000000000000000 [-]
	 SCS Same-Spin Energy      =      -0.1943857593848233 [Eh]
	 SCS Opposite-Spin Energy  =      -2.1622712738637873 [Eh]
	 SCS Correlation Energy    =      -2.3566570332486103 [Eh]
	 SCS Total Energy          =    -517.8030855497346465 [Eh]
	-----------------------------------------------------------

  Dipole Moment: [D]
     X:     0.4875      Y:     0.5299      Z:    -1.0138     Total:     1.2435

*** Psi4 exiting successfully. Buy a developer a beer!
