                               Psi4 1.4a2.dev612

  ==> Input File <==

--------------------------------------------------------------------------
#psi4
#
memory 32 gb

molecule  {
0 1
  N       -0.8580750     2.1650740    -0.5094440
  C       -0.6634250    -0.2127650     0.0691530
  C        0.8157840    -0.1537790     0.0420590
  C       -1.4510140     0.9181800    -0.2423400
  C       -1.3025160    -1.4250040     0.3687340
  C        1.5441380    -1.0912920    -0.7082460
  C        1.5175140     0.8066950     0.7907500
  C       -2.8468188     0.7615377    -0.3923618
  C       -2.6918610    -1.5288690     0.3976690
  C       -3.4646370    -0.4031430     0.1053440
  C        2.9393010    -1.0716050    -0.7093040
  C        2.9130560     0.8267600     0.7846130
  C        3.6278980    -0.1122400     0.0369440
  H       -0.6848640    -2.2871190     0.6142040
  H        1.0058700    -1.8278860    -1.3015600
  H        0.9614050     1.5295600     1.3833290
  H       -3.4548610     1.6831510    -0.4309120
  H       -3.1654310    -2.4765660     0.6404150
  H       -4.5504850    -0.4615560     0.1267090
  H        3.4898150    -1.8022040    -1.2977600
  H        3.4438080     1.5707970     1.3744420
  H        4.7151610    -0.0954640     0.0345500
  H        0.0736060     2.0855870    -0.9073830
  H       -1.4416920     2.7564150    -1.0941350
units angstrom
no_reorient  #important for SAPT in psi4, default
symmetry c1  #important for SAPT in psi4, default
}

set PROPERTIES_ORIGIN ["COM"]
properties('MP2/aug-cc-pvtz', properties = ['dipole'])
--------------------------------------------------------------------------

    Molecular point group: c1
  Charge       = 0
  Multiplicity = 1
  Basis Set: AUG-CC-PVTZ
    Blend: AUG-CC-PVTZ
  Basis Set: (AUG-CC-PVTZ AUX)
    Blend: AUG-CC-PVTZ-JKFIT

    Orbital Energies [Eh]
    ---------------------

    Doubly Occupied:

       1A    -15.564896     2A    -11.283437     3A    -11.247050
       4A    -11.240568     5A    -11.239407     6A    -11.238964
       7A    -11.238854     8A    -11.237207     9A    -11.236881
      10A    -11.236186    11A    -11.235514    12A    -11.229488
      13A    -11.223152    14A     -1.225340    15A     -1.156509
      16A     -1.125143    17A     -1.051003    18A     -1.015369
      19A     -0.992661    20A     -0.974183    21A     -0.852062
      22A     -0.834638    23A     -0.810992    24A     -0.788486
      25A     -0.711539    26A     -0.686360    27A     -0.685136
      28A     -0.655380    29A     -0.626319    30A     -0.622123
      31A     -0.594588    32A     -0.591077    33A     -0.586473
      34A     -0.576984    35A     -0.535961    36A     -0.521533
      37A     -0.507333    38A     -0.500494    39A     -0.489776
      40A     -0.478412    41A     -0.446088    42A     -0.360145
      43A     -0.338968    44A     -0.319161    45A     -0.290458

  @DF-RHF Final Energy:  -515.44169255053248

   => Energetics <=

    Nuclear Repulsion Energy =            708.6333314991217094
    One-Electron Energy =               -2103.3454528712973115
    Two-Electron Energy =                 879.2704288216432360
    Total Energy =                       -515.4416925505324798
  Basis Set: (AUG-CC-PVTZ AUX)
    Blend: AUG-CC-PVTZ-RI
    Molecular point group: c1

    Geometry (in Angstrom), charge = 0, multiplicity = 1:

       Center              X                  Y                   Z               Mass
    ------------   -----------------  -----------------  -----------------  -----------------
         N           -0.855879381196     2.172340022042    -0.500676865582    14.003074004430
         C           -0.661229381196    -0.205498977958     0.077920134418    12.000000000000
         C            0.817979618804    -0.146512977958     0.050826134418    12.000000000000
         C           -1.448818381196     0.925446022042    -0.233572865582    12.000000000000
         C           -1.300320381196    -1.417737977958     0.377501134418    12.000000000000
         C            1.546333618804    -1.084025977958    -0.699478865582    12.000000000000
         C            1.519709618804     0.813961022042     0.799517134418    12.000000000000
         C           -2.844623181196     0.768803722042    -0.383594665582    12.000000000000
         C           -2.689665381196    -1.521602977958     0.406436134418    12.000000000000
         C           -3.462441381196    -0.395876977958     0.114111134418    12.000000000000
         C            2.941496618804    -1.064338977958    -0.700536865582    12.000000000000
         C            2.915251618804     0.834026022042     0.793380134418    12.000000000000
         C            3.630093618804    -0.104973977958     0.045711134418    12.000000000000
         H           -0.682668381196    -2.279852977958     0.622971134418     1.007825032230
         H            1.008065618804    -1.820619977958    -1.292792865582     1.007825032230
         H            0.963600618804     1.536826022042     1.392096134418     1.007825032230
         H           -3.452665381196     1.690417022042    -0.422144865582     1.007825032230
         H           -3.163235381196    -2.469299977958     0.649182134418     1.007825032230
         H           -4.548289381196    -0.454289977958     0.135476134418     1.007825032230
         H            3.492010618804    -1.794937977958    -1.288992865582     1.007825032230
         H            3.446003618804     1.578063022042     1.383209134418     1.007825032230
         H            4.717356618804    -0.088197977958     0.043317134418     1.007825032230
         H            0.075801618804     2.092853022042    -0.898615865582     1.007825032230
         H           -1.439496381196     2.763681022042    -1.085367865582     1.007825032230

  Basis Set: AUG-CC-PVTZ
    Blend: AUG-CC-PVTZ
  Basis Set: (AUG-CC-PVTZ AUX)
    Blend: AUG-CC-PVTZ-JKFIT
	 Reference Energy          =    -515.4416925505324798 [Eh]
	 Singles Energy            =      -0.0000000000000000 [Eh]
	 Same-Spin Energy          =      -0.5833400596744982 [Eh]
	 Opposite-Spin Energy      =      -1.8025460995416958 [Eh]
	 Correlation Energy        =      -2.3858861592161942 [Eh]
	 Total Energy              =    -517.8275787097486500 [Eh]

	 ================> DF-SCS-MP2 Energies <==================
	-----------------------------------------------------------
	 SCS Same-Spin Scale       =       0.3333333333333333 [-]
	 SCS Opposite-Spin Scale   =       1.2000000000000000 [-]
	 SCS Same-Spin Energy      =      -0.1944466865581660 [Eh]
	 SCS Opposite-Spin Energy  =      -2.1630553194500348 [Eh]
	 SCS Correlation Energy    =      -2.3575020060082008 [Eh]
	 SCS Total Energy          =    -517.7991945565406695 [Eh]
	-----------------------------------------------------------

  Dipole Moment: [D]
     X:     0.5208      Y:     0.5111      Z:    -0.9691     Total:     1.2131

*** Psi4 exiting successfully. Buy a developer a beer!
