                               Psi4 1.4a2.dev612

  ==> Input File <==

--------------------------------------------------------------------------
#psi4
#
memory 32 gb

molecule  {
0 1
  N       -0.8580750     2.1650740    -0.5094440
  C       -0.6634250    -0.2127650     0.0691530
  C        0.8157840    -0.1537790     0.0420590
  C       -1.4510140     0.9181800    -0.2423400
  C       -1.3025160    -1.4250040     0.3687340
  C        1.5441380    -1.0912920    -0.7082460
  C        1.5175140     0.8066950     0.7907500
  C       -2.8463885     0.7497499    -0.4409505
  C       -2.6918610    -1.5288690     0.3976690
  C       -3.4646370    -0.4031430     0.1053440
  C        2.9393010    -1.0716050    -0.7093040
  C        2.9130560     0.8267600     0.7846130
  C        3.6278980    -0.1122400     0.0369440
  H       -0.6848640    -2.2871190     0.6142040
  H        1.0058700    -1.8278860    -1.3015600
  H        0.9614050     1.5295600     1.3833290
  H       -3.4548610     1.6831510    -0.4309120
  H       -3.1654310    -2.4765660     0.6404150
  H       -4.5504850    -0.4615560     0.1267090
  H        3.4898150    -1.8022040    -1.2977600
  H        3.4438080     1.5707970     1.3744420
  H        4.7151610    -0.0954640     0.0345500
  H        0.0736060     2.0855870    -0.9073830
  H       -1.4416920     2.7564150    -1.0941350
units angstrom
no_reorient  #important for SAPT in psi4, default
symmetry c1  #important for SAPT in psi4, default
}

set PROPERTIES_ORIGIN ["COM"]
properties('MP2/aug-cc-pvtz', properties = ['dipole'])
--------------------------------------------------------------------------

    Molecular point group: c1
  Charge       = 0
  Multiplicity = 1
  Basis Set: AUG-CC-PVTZ
    Blend: AUG-CC-PVTZ
  Basis Set: (AUG-CC-PVTZ AUX)
    Blend: AUG-CC-PVTZ-JKFIT

    Orbital Energies [Eh]
    ---------------------

    Doubly Occupied:

       1A    -15.565316     2A    -11.285321     3A    -11.247261
       4A    -11.242393     5A    -11.240104     6A    -11.239537
       7A    -11.239088     8A    -11.237309     9A    -11.236975
      10A    -11.236321    11A    -11.235600    12A    -11.230937
      13A    -11.223165    14A     -1.225466    15A     -1.156675
      16A     -1.124909    17A     -1.050724    18A     -1.015490
      19A     -0.991829    20A     -0.974197    21A     -0.851817
      22A     -0.834584    23A     -0.810806    24A     -0.787982
      25A     -0.711244    26A     -0.686649    27A     -0.684931
      28A     -0.655123    29A     -0.626540    30A     -0.621944
      31A     -0.594222    32A     -0.590367    33A     -0.586543
      34A     -0.575607    35A     -0.535381    36A     -0.520881
      37A     -0.507289    38A     -0.500521    39A     -0.489879
      40A     -0.477415    41A     -0.445114    42A     -0.360047
      43A     -0.339104    44A     -0.319617    45A     -0.290515

  @DF-RHF Final Energy:  -515.43544698391929

   => Energetics <=

    Nuclear Repulsion Energy =            708.3871875820827881
    One-Electron Energy =               -2102.8397881354412675
    Two-Electron Energy =                 879.0171535694391878
    Total Energy =                       -515.4354469839192916
  Basis Set: (AUG-CC-PVTZ AUX)
    Blend: AUG-CC-PVTZ-RI
    Molecular point group: c1

    Geometry (in Angstrom), charge = 0, multiplicity = 1:

       Center              X                  Y                   Z               Mass
    ------------   -----------------  -----------------  -----------------  -----------------
         N           -0.855909918934     2.173176584297    -0.497228599373    14.003074004430
         C           -0.661259918934    -0.204662415703     0.081368400627    12.000000000000
         C            0.817949081066    -0.145676415703     0.054274400627    12.000000000000
         C           -1.448848918934     0.926282584297    -0.230124599373    12.000000000000
         C           -1.300350918934    -1.416901415703     0.380949400627    12.000000000000
         C            1.546303081066    -1.083189415703    -0.696030599373    12.000000000000
         C            1.519679081066     0.814797584297     0.802965400627    12.000000000000
         C           -2.844223418934     0.757852484297    -0.428735099373    12.000000000000
         C           -2.689695918934    -1.520766415703     0.409884400627    12.000000000000
         C           -3.462471918934    -0.395040415703     0.117559400627    12.000000000000
         C            2.941466081066    -1.063502415703    -0.697088599373    12.000000000000
         C            2.915221081066     0.834862584297     0.796828400627    12.000000000000
         C            3.630063081066    -0.104137415703     0.049159400627    12.000000000000
         H           -0.682698918934    -2.279016415703     0.626419400627     1.007825032230
         H            1.008035081066    -1.819783415703    -1.289344599373     1.007825032230
         H            0.963570081066     1.537662584297     1.395544400627     1.007825032230
         H           -3.452695918934     1.691253584297    -0.418696599373     1.007825032230
         H           -3.163265918934    -2.468463415703     0.652630400627     1.007825032230
         H           -4.548319918934    -0.453453415703     0.138924400627     1.007825032230
         H            3.491980081066    -1.794101415703    -1.285544599373     1.007825032230
         H            3.445973081066     1.578899584297     1.386657400627     1.007825032230
         H            4.717326081066    -0.087361415703     0.046765400627     1.007825032230
         H            0.075771081066     2.093689584297    -0.895167599373     1.007825032230
         H           -1.439526918934     2.764517584297    -1.081919599373     1.007825032230

  Basis Set: AUG-CC-PVTZ
    Blend: AUG-CC-PVTZ
  Basis Set: (AUG-CC-PVTZ AUX)
    Blend: AUG-CC-PVTZ-JKFIT
	 Reference Energy          =    -515.4354469839192916 [Eh]
	 Singles Energy            =      -0.0000000000000000 [Eh]
	 Same-Spin Energy          =      -0.5835736743173450 [Eh]
	 Opposite-Spin Energy      =      -1.8034002007052665 [Eh]
	 Correlation Energy        =      -2.3869738750226115 [Eh]
	 Total Energy              =    -517.8224208589418822 [Eh]

	 ================> DF-SCS-MP2 Energies <==================
	-----------------------------------------------------------
	 SCS Same-Spin Scale       =       0.3333333333333333 [-]
	 SCS Opposite-Spin Scale   =       1.2000000000000000 [-]
	 SCS Same-Spin Energy      =      -0.1945245581057816 [Eh]
	 SCS Opposite-Spin Energy  =      -2.1640802408463196 [Eh]
	 SCS Correlation Energy    =      -2.3586047989521011 [Eh]
	 SCS Total Energy          =    -517.7940517828714064 [Eh]
	-----------------------------------------------------------

  Dipole Moment: [D]
     X:     0.5647      Y:     0.4868      Z:    -0.9211     Total:     1.1850

*** Psi4 exiting successfully. Buy a developer a beer!
