                               Psi4 1.4a2.dev612

  ==> Input File <==

--------------------------------------------------------------------------
#psi4
#
memory 32 gb

molecule  {
0 1
  N       -0.8580750     2.1650740    -0.5094440
  C       -0.6634250    -0.2127650     0.0691530
  C        0.8157840    -0.1537790     0.0420590
  C       -1.4510140     0.9181800    -0.2423400
  C       -1.3025160    -1.4250040     0.3687340
  C        1.5441380    -1.0912920    -0.7082460
  C        1.5175140     0.8066950     0.7907500
  C       -2.8476794     0.7851134    -0.2951844
  C       -2.6918610    -1.5288690     0.3976690
  C       -3.4646370    -0.4031430     0.1053440
  C        2.9393010    -1.0716050    -0.7093040
  C        2.9130560     0.8267600     0.7846130
  C        3.6278980    -0.1122400     0.0369440
  H       -0.6848640    -2.2871190     0.6142040
  H        1.0058700    -1.8278860    -1.3015600
  H        0.9614050     1.5295600     1.3833290
  H       -3.4548610     1.6831510    -0.4309120
  H       -3.1654310    -2.4765660     0.6404150
  H       -4.5504850    -0.4615560     0.1267090
  H        3.4898150    -1.8022040    -1.2977600
  H        3.4438080     1.5707970     1.3744420
  H        4.7151610    -0.0954640     0.0345500
  H        0.0736060     2.0855870    -0.9073830
  H       -1.4416920     2.7564150    -1.0941350
units angstrom
no_reorient  #important for SAPT in psi4, default
symmetry c1  #important for SAPT in psi4, default
}

set PROPERTIES_ORIGIN ["COM"]
properties('MP2/aug-cc-pvtz', properties = ['dipole'])
--------------------------------------------------------------------------

    Molecular point group: c1
  Charge       = 0
  Multiplicity = 1
  Basis Set: AUG-CC-PVTZ
    Blend: AUG-CC-PVTZ
  Basis Set: (AUG-CC-PVTZ AUX)
    Blend: AUG-CC-PVTZ-JKFIT

    Orbital Energies [Eh]
    ---------------------

    Doubly Occupied:

       1A    -15.564445     2A    -11.280862     3A    -11.246737
       4A    -11.239242     5A    -11.238809     6A    -11.237967
       7A    -11.237272     8A    -11.237099     9A    -11.236758
      10A    -11.235858    11A    -11.235430    12A    -11.227562
      13A    -11.223132    14A     -1.225174    15A     -1.156297
      16A     -1.125504    17A     -1.051392    18A     -1.015221
      19A     -0.993682    20A     -0.974175    21A     -0.852377
      22A     -0.834743    23A     -0.811241    24A     -0.789185
      25A     -0.712013    26A     -0.685964    27A     -0.685429
      28A     -0.655764    29A     -0.625958    30A     -0.622453
      31A     -0.594885    32A     -0.592152    33A     -0.586335
      34A     -0.578755    35A     -0.536804    36A     -0.522559
      37A     -0.506975    38A     -0.500502    39A     -0.489545
      40A     -0.479482    41A     -0.447706    42A     -0.360334
      43A     -0.338795    44A     -0.318529    45A     -0.290329

  @DF-RHF Final Energy:  -515.44968070700770

   => Energetics <=

    Nuclear Repulsion Energy =            708.9619273741088818
    One-Electron Energy =               -2104.0203586637076114
    Two-Electron Energy =                 879.6087505825910284
    Total Energy =                       -515.4496807070077011
  Basis Set: (AUG-CC-PVTZ AUX)
    Blend: AUG-CC-PVTZ-RI
    Molecular point group: c1

    Geometry (in Angstrom), charge = 0, multiplicity = 1:

       Center              X                  Y                   Z               Mass
    ------------   -----------------  -----------------  -----------------  -----------------
         N           -0.855818305722     2.170666890436    -0.507573397999    14.003074004430
         C           -0.661168305722    -0.207172109564     0.071023602001    12.000000000000
         C            0.818040694278    -0.148186109564     0.043929602001    12.000000000000
         C           -1.448757305722     0.923772890436    -0.240469397999    12.000000000000
         C           -1.300259305722    -1.419411109564     0.370604602001    12.000000000000
         C            1.546394694278    -1.085699109564    -0.706375397999    12.000000000000
         C            1.519770694278     0.812287890436     0.792620602001    12.000000000000
         C           -2.845422705722     0.790706290436    -0.293313797999    12.000000000000
         C           -2.689604305722    -1.523276109564     0.399539602001    12.000000000000
         C           -3.462380305722    -0.397550109564     0.107214602001    12.000000000000
         C            2.941557694278    -1.066012109564    -0.707433397999    12.000000000000
         C            2.915312694278     0.832352890436     0.786483602001    12.000000000000
         C            3.630154694278    -0.106647109564     0.038814602001    12.000000000000
         H           -0.682607305722    -2.281526109564     0.616074602001     1.007825032230
         H            1.008126694278    -1.822293109564    -1.299689397999     1.007825032230
         H            0.963661694278     1.535152890436     1.385199602001     1.007825032230
         H           -3.452604305722     1.688743890436    -0.429041397999     1.007825032230
         H           -3.163174305722    -2.470973109564     0.642285602001     1.007825032230
         H           -4.548228305722    -0.455963109564     0.128579602001     1.007825032230
         H            3.492071694278    -1.796611109564    -1.295889397999     1.007825032230
         H            3.446064694278     1.576389890436     1.376312602001     1.007825032230
         H            4.717417694278    -0.089871109564     0.036420602001     1.007825032230
         H            0.075862694278     2.091179890436    -0.905512397999     1.007825032230
         H           -1.439435305722     2.762007890436    -1.092264397999     1.007825032230

  Basis Set: AUG-CC-PVTZ
    Blend: AUG-CC-PVTZ
  Basis Set: (AUG-CC-PVTZ AUX)
    Blend: AUG-CC-PVTZ-JKFIT
	 Reference Energy          =    -515.4496807070077011 [Eh]
	 Singles Energy            =      -0.0000000000000000 [Eh]
	 Same-Spin Energy          =      -0.5830305779313523 [Eh]
	 Opposite-Spin Energy      =      -1.8014616686257234 [Eh]
	 Correlation Energy        =      -2.3844922465570759 [Eh]
	 Total Energy              =    -517.8341729535648028 [Eh]

	 ================> DF-SCS-MP2 Energies <==================
	-----------------------------------------------------------
	 SCS Same-Spin Scale       =       0.3333333333333333 [-]
	 SCS Opposite-Spin Scale   =       1.2000000000000000 [-]
	 SCS Same-Spin Energy      =      -0.1943435259771174 [Eh]
	 SCS Opposite-Spin Energy  =      -2.1617540023508681 [Eh]
	 SCS Correlation Energy    =      -2.3560975283279855 [Eh]
	 SCS Total Energy          =    -517.8057782353356515 [Eh]
	-----------------------------------------------------------

  Dipole Moment: [D]
     X:     0.4650      Y:     0.5428      Z:    -1.0552     Total:     1.2745

*** Psi4 exiting successfully. Buy a developer a beer!
