                               Psi4 1.4a2.dev612

  ==> Input File <==

--------------------------------------------------------------------------
#psi4
#
memory 32 gb

molecule  {
0 1
  N       -0.8580750     2.1650740    -0.5094440
  C       -0.6634250    -0.2127650     0.0691530
  C        0.8157840    -0.1537790     0.0420590
  C       -1.4510140     0.9181800    -0.2423400
  C       -1.3025160    -1.4250040     0.3687340
  C        1.5441380    -1.0912920    -0.7082460
  C        1.5175140     0.8066950     0.7907500
  C       -2.8481097     0.7969012    -0.2465957
  C       -2.6918610    -1.5288690     0.3976690
  C       -3.4646370    -0.4031430     0.1053440
  C        2.9393010    -1.0716050    -0.7093040
  C        2.9130560     0.8267600     0.7846130
  C        3.6278980    -0.1122400     0.0369440
  H       -0.6848640    -2.2871190     0.6142040
  H        1.0058700    -1.8278860    -1.3015600
  H        0.9614050     1.5295600     1.3833290
  H       -3.4548610     1.6831510    -0.4309120
  H       -3.1654310    -2.4765660     0.6404150
  H       -4.5504850    -0.4615560     0.1267090
  H        3.4898150    -1.8022040    -1.2977600
  H        3.4438080     1.5707970     1.3744420
  H        4.7151610    -0.0954640     0.0345500
  H        0.0736060     2.0855870    -0.9073830
  H       -1.4416920     2.7564150    -1.0941350
units angstrom
no_reorient  #important for SAPT in psi4, default
symmetry c1  #important for SAPT in psi4, default
}

set PROPERTIES_ORIGIN ["COM"]
properties('MP2/aug-cc-pvtz', properties = ['dipole'])
--------------------------------------------------------------------------

    Molecular point group: c1
  Charge       = 0
  Multiplicity = 1
  Basis Set: AUG-CC-PVTZ
    Blend: AUG-CC-PVTZ
  Basis Set: (AUG-CC-PVTZ AUX)
    Blend: AUG-CC-PVTZ-JKFIT

    Orbital Energies [Eh]
    ---------------------

    Doubly Occupied:

       1A    -15.564409     2A    -11.280210     3A    -11.246629
       4A    -11.239202     5A    -11.238773     6A    -11.237243
       7A    -11.237090     8A    -11.236909     9A    -11.236727
      10A    -11.235675    11A    -11.235426    12A    -11.227126
      13A    -11.223108    14A     -1.225127    15A     -1.156247
      16A     -1.125609    17A     -1.051491    18A     -1.015190
      19A     -0.993895    20A     -0.974166    21A     -0.852418
      22A     -0.834777    23A     -0.811289    24A     -0.789353
      25A     -0.712134    26A     -0.685843    27A     -0.685482
      28A     -0.655837    29A     -0.625819    30A     -0.622542
      31A     -0.594696    32A     -0.592532    33A     -0.586296
      34A     -0.579180    35A     -0.537030    36A     -0.522934
      37A     -0.506612    38A     -0.500529    39A     -0.489416
      40A     -0.479649    41A     -0.448340    42A     -0.360414
      43A     -0.338754    44A     -0.318325    45A     -0.290249

  @DF-RHF Final Energy:  -515.45147092292996

   => Energetics <=

    Nuclear Repulsion Energy =            709.0412969519370563
    One-Electron Energy =               -2104.1841338653298408
    Two-Electron Energy =                 879.6913659904628275
    Total Energy =                       -515.4514709229299569
  Basis Set: (AUG-CC-PVTZ AUX)
    Blend: AUG-CC-PVTZ-RI
    Molecular point group: c1

    Geometry (in Angstrom), charge = 0, multiplicity = 1:

       Center              X                  Y                   Z               Mass
    ------------   -----------------  -----------------  -----------------  -----------------
         N           -0.855787767985     2.169830328182    -0.511021664208    14.003074004430
         C           -0.661137767985    -0.208008671818     0.067575335792    12.000000000000
         C            0.818071232015    -0.149022671818     0.040481335792    12.000000000000
         C           -1.448726767985     0.922936328182    -0.243917664208    12.000000000000
         C           -1.300228767985    -1.420247671818     0.367156335792    12.000000000000
         C            1.546425232015    -1.086535671818    -0.709823664208    12.000000000000
         C            1.519801232015     0.811451328182     0.789172335792    12.000000000000
         C           -2.845822467985     0.801657528182    -0.248173364208    12.000000000000
         C           -2.689573767985    -1.524112671818     0.396091335792    12.000000000000
         C           -3.462349767985    -0.398386671818     0.103766335792    12.000000000000
         C            2.941588232015    -1.066848671818    -0.710881664208    12.000000000000
         C            2.915343232015     0.831516328182     0.783035335792    12.000000000000
         C            3.630185232015    -0.107483671818     0.035366335792    12.000000000000
         H           -0.682576767985    -2.282362671818     0.612626335792     1.007825032230
         H            1.008157232015    -1.823129671818    -1.303137664208     1.007825032230
         H            0.963692232015     1.534316328182     1.381751335792     1.007825032230
         H           -3.452573767985     1.687907328182    -0.432489664208     1.007825032230
         H           -3.163143767985    -2.471809671818     0.638837335792     1.007825032230
         H           -4.548197767985    -0.456799671818     0.125131335792     1.007825032230
         H            3.492102232015    -1.797447671818    -1.299337664208     1.007825032230
         H            3.446095232015     1.575553328182     1.372864335792     1.007825032230
         H            4.717448232015    -0.090707671818     0.032972335792     1.007825032230
         H            0.075893232015     2.090343328182    -0.908960664208     1.007825032230
         H           -1.439404767985     2.761171328182    -1.095712664208     1.007825032230

  Basis Set: AUG-CC-PVTZ
    Blend: AUG-CC-PVTZ
  Basis Set: (AUG-CC-PVTZ AUX)
    Blend: AUG-CC-PVTZ-JKFIT
	 Reference Energy          =    -515.4514709229299569 [Eh]
	 Singles Energy            =      -0.0000000000000000 [Eh]
	 Same-Spin Energy          =      -0.5829639473770971 [Eh]
	 Opposite-Spin Energy      =      -1.8012581829872403 [Eh]
	 Correlation Energy        =      -2.3842221303643374 [Eh]
	 Total Energy              =    -517.8356930532943352 [Eh]

	 ================> DF-SCS-MP2 Energies <==================
	-----------------------------------------------------------
	 SCS Same-Spin Scale       =       0.3333333333333333 [-]
	 SCS Opposite-Spin Scale   =       1.2000000000000000 [-]
	 SCS Same-Spin Energy      =      -0.1943213157923657 [Eh]
	 SCS Opposite-Spin Energy  =      -2.1615098195846882 [Eh]
	 SCS Correlation Energy    =      -2.3558311353770538 [Eh]
	 SCS Total Energy          =    -517.8073020583069592 [Eh]
	-----------------------------------------------------------

  Dipole Moment: [D]
     X:     0.4532      Y:     0.5492      Z:    -1.0936     Total:     1.3050

*** Psi4 exiting successfully. Buy a developer a beer!
