                               Psi4 1.4a2.dev612

  ==> Input File <==

--------------------------------------------------------------------------
#psi4
#
memory 32 gb

molecule  {
0 1
  N       -0.8580750     2.1650740    -0.5094440
  C       -0.6634250    -0.2127650     0.0691530
  C        0.8157840    -0.1537790     0.0420590
  C       -1.4510140     0.9181800    -0.2423400
  C       -1.3025160    -1.4250040     0.3687340
  C        1.5441380    -1.0912920    -0.7082460
  C        1.5175140     0.8066950     0.7907500
  C       -2.8459582     0.7379621    -0.4895392
  C       -2.6918610    -1.5288690     0.3976690
  C       -3.4646370    -0.4031430     0.1053440
  C        2.9393010    -1.0716050    -0.7093040
  C        2.9130560     0.8267600     0.7846130
  C        3.6278980    -0.1122400     0.0369440
  H       -0.6848640    -2.2871190     0.6142040
  H        1.0058700    -1.8278860    -1.3015600
  H        0.9614050     1.5295600     1.3833290
  H       -3.4548610     1.6831510    -0.4309120
  H       -3.1654310    -2.4765660     0.6404150
  H       -4.5504850    -0.4615560     0.1267090
  H        3.4898150    -1.8022040    -1.2977600
  H        3.4438080     1.5707970     1.3744420
  H        4.7151610    -0.0954640     0.0345500
  H        0.0736060     2.0855870    -0.9073830
  H       -1.4416920     2.7564150    -1.0941350
units angstrom
no_reorient  #important for SAPT in psi4, default
symmetry c1  #important for SAPT in psi4, default
}

set PROPERTIES_ORIGIN ["COM"]
properties('MP2/aug-cc-pvtz', properties = ['dipole'])
--------------------------------------------------------------------------

    Molecular point group: c1
  Charge       = 0
  Multiplicity = 1
  Basis Set: AUG-CC-PVTZ
    Blend: AUG-CC-PVTZ
  Basis Set: (AUG-CC-PVTZ AUX)
    Blend: AUG-CC-PVTZ-JKFIT

    Orbital Energies [Eh]
    ---------------------

    Doubly Occupied:

       1A    -15.565873     2A    -11.287565     3A    -11.247512
       4A    -11.244520     5A    -11.241645     6A    -11.239701
       7A    -11.239247     8A    -11.237448     9A    -11.237095
      10A    -11.236462    11A    -11.235720    12A    -11.232673
      13A    -11.223195    14A     -1.225629    15A     -1.156886
      16A     -1.124661    17A     -1.050401    18A     -1.015645
      19A     -0.990761    20A     -0.974228    21A     -0.851536
      22A     -0.834543    23A     -0.810591    24A     -0.787402
      25A     -0.710957    26A     -0.687013    27A     -0.684713
      28A     -0.654867    29A     -0.626788    30A     -0.621803
      31A     -0.593849    32A     -0.589551    33A     -0.586541
      34A     -0.573903    35A     -0.534728    36A     -0.520143
      37A     -0.507066    38A     -0.500572    39A     -0.489968
      40A     -0.476015    41A     -0.444031    42A     -0.359958
      43A     -0.339277    44A     -0.320191    45A     -0.290574

  @DF-RHF Final Energy:  -515.42766796163869

   => Energetics <=

    Nuclear Repulsion Energy =            708.0893076865759213
    One-Electron Energy =               -2102.2270571947929056
    Two-Electron Energy =                 878.7100815465782944
    Total Energy =                       -515.4276679616386900
  Basis Set: (AUG-CC-PVTZ AUX)
    Blend: AUG-CC-PVTZ-RI
    Molecular point group: c1

    Geometry (in Angstrom), charge = 0, multiplicity = 1:

       Center              X                  Y                   Z               Mass
    ------------   -----------------  -----------------  -----------------  -----------------
         N           -0.855940456671     2.174013146551    -0.493780333164    14.003074004430
         C           -0.661290456671    -0.203825853449     0.084816666836    12.000000000000
         C            0.817918543329    -0.144839853449     0.057722666836    12.000000000000
         C           -1.448879456671     0.927119146551    -0.226676333164    12.000000000000
         C           -1.300381456671    -1.416064853449     0.384397666836    12.000000000000
         C            1.546272543329    -1.082352853449    -0.692582333164    12.000000000000
         C            1.519648543329     0.815634146551     0.806413666836    12.000000000000
         C           -2.843823656671     0.746901246551    -0.473875533164    12.000000000000
         C           -2.689726456671    -1.519929853449     0.413332666836    12.000000000000
         C           -3.462502456671    -0.394203853449     0.121007666836    12.000000000000
         C            2.941435543329    -1.062665853449    -0.693640333164    12.000000000000
         C            2.915190543329     0.835699146551     0.800276666836    12.000000000000
         C            3.630032543329    -0.103300853449     0.052607666836    12.000000000000
         H           -0.682729456671    -2.278179853449     0.629867666836     1.007825032230
         H            1.008004543329    -1.818946853449    -1.285896333164     1.007825032230
         H            0.963539543329     1.538499146551     1.398992666836     1.007825032230
         H           -3.452726456671     1.692090146551    -0.415248333164     1.007825032230
         H           -3.163296456671    -2.467626853449     0.656078666836     1.007825032230
         H           -4.548350456671    -0.452616853449     0.142372666836     1.007825032230
         H            3.491949543329    -1.793264853449    -1.282096333164     1.007825032230
         H            3.445942543329     1.579736146551     1.390105666836     1.007825032230
         H            4.717295543329    -0.086524853449     0.050213666836     1.007825032230
         H            0.075740543329     2.094526146551    -0.891719333164     1.007825032230
         H           -1.439557456671     2.765354146551    -1.078471333164     1.007825032230

  Basis Set: AUG-CC-PVTZ
    Blend: AUG-CC-PVTZ
  Basis Set: (AUG-CC-PVTZ AUX)
    Blend: AUG-CC-PVTZ-JKFIT
	 Reference Energy          =    -515.4276679616386900 [Eh]
	 Singles Energy            =      -0.0000000000000000 [Eh]
	 Same-Spin Energy          =      -0.5838506347988928 [Eh]
	 Opposite-Spin Energy      =      -1.8044351284189728 [Eh]
	 Correlation Energy        =      -2.3882857632178656 [Eh]
	 Total Energy              =    -517.8159537248565130 [Eh]

	 ================> DF-SCS-MP2 Energies <==================
	-----------------------------------------------------------
	 SCS Same-Spin Scale       =       0.3333333333333333 [-]
	 SCS Opposite-Spin Scale   =       1.2000000000000000 [-]
	 SCS Same-Spin Energy      =      -0.1946168782662976 [Eh]
	 SCS Opposite-Spin Energy  =      -2.1653221541027672 [Eh]
	 SCS Correlation Energy    =      -2.3599390323690645 [Eh]
	 SCS Total Energy          =    -517.7876069940077741 [Eh]
	-----------------------------------------------------------

  Dipole Moment: [D]
     X:     0.6189      Y:     0.4575      Z:    -0.8700     Total:     1.1616

*** Psi4 exiting successfully. Buy a developer a beer!
