                               Psi4 1.4a3.dev225

  ==> Input File <==

--------------------------------------------------------------------------
#psi4
#
memory 32 gb

molecule  {
0 1
 Cl        2.7008340    -1.2489210     0.0016850
 Cl       -2.7008440    -1.2489040     0.0016850
  C        0.0000030     1.7216440    -0.0170270
  C       -1.2072320     1.0139100    -0.0094880
  C        1.2072370     1.0139020    -0.0094890
  C        0.0000180     3.2280150     0.0131190
  C        1.1926239    -0.4297963     0.0000700
  C       -1.1931340    -0.3797940    -0.0002610
  C       -0.0000050    -1.1002640     0.0063140
  H       -2.1570970     1.5426200    -0.0181830
  H        2.1571050     1.5426070    -0.0181850
  H        0.0002870     3.5975410     1.0439770
  H        0.8855000     3.6300440    -0.4862980
  H       -0.8857170     3.6300520    -0.4858430
  H       -0.0000070    -2.1855250     0.0098050
units angstrom
no_reorient  #important for SAPT in psi4, default
symmetry c1  #important for SAPT in psi4, default
}

set PROPERTIES_ORIGIN ["COM"]
properties('MP2/aug-cc-pvtz', properties = ['dipole'])
--------------------------------------------------------------------------

    Molecular point group: c1
  Charge       = 0
  Multiplicity = 1
  Basis Set: AUG-CC-PVTZ
    Blend: AUG-CC-PVTZ
  Basis Set: (AUG-CC-PVTZ AUX)
    Blend: AUG-CC-PVTZ-JKFIT

    Orbital Energies [Eh]
    ---------------------

    Doubly Occupied:

       1A   -104.851940     2A   -104.849122     3A    -11.318372
       4A    -11.317795     5A    -11.269524     6A    -11.258307
       7A    -11.257191     8A    -11.254819     9A    -11.241016
      10A    -10.576061    11A    -10.572877    12A     -8.043024
      13A     -8.041019    14A     -8.041005    15A     -8.039781
      16A     -8.037853    17A     -8.037849    18A     -1.211964
      19A     -1.163840    20A     -1.118434    21A     -1.046407
      22A     -0.992198    23A     -0.956930    24A     -0.827088
      25A     -0.810797    26A     -0.705621    27A     -0.680527
      28A     -0.630352    29A     -0.597511    30A     -0.595844
      31A     -0.589373    32A     -0.563835    33A     -0.556676
      34A     -0.522826    35A     -0.521144    36A     -0.512360
      37A     -0.464970    38A     -0.458829    39A     -0.451364
      40A     -0.349340    41A     -0.335380

  @DF-RHF Final Energy: -1187.69692060245575

   => Energetics <=

    Nuclear Repulsion Energy =            542.7881658515674417
    One-Electron Energy =               -2711.6278435062840799
    Two-Electron Energy =                 981.1427570522607766
    Total Energy =                      -1187.6969206024557479
  Basis Set: (AUG-CC-PVTZ AUX)
    Blend: AUG-CC-PVTZ-RI
    Molecular point group: c1

    Geometry (in Angstrom), charge = 0, multiplicity = 1:

       Center              X                  Y                   Z               Mass
    ------------   -----------------  -----------------  -----------------  -----------------
         CL           2.700872424516    -1.157128862544     0.001920470731    34.968852682000
         CL          -2.700805575484    -1.157111862544     0.001920470731    34.968852682000
         C            0.000041424516     1.813436137456    -0.016791529269    12.000000000000
         C           -1.207193575484     1.105702137456    -0.009252529269    12.000000000000
         C            1.207275424516     1.105694137456    -0.009253529269    12.000000000000
         C            0.000056424516     3.319807137456     0.013354470731    12.000000000000
         C            1.192662324516    -0.338004162544     0.000305470731    12.000000000000
         C           -1.193095575484    -0.288001862544    -0.000025529269    12.000000000000
         C            0.000033424516    -1.008471862544     0.006549470731    12.000000000000
         H           -2.157058575484     1.634412137456    -0.017947529269     1.007825032230
         H            2.157143424516     1.634399137456    -0.017949529269     1.007825032230
         H            0.000325424516     3.689333137456     1.044212470731     1.007825032230
         H            0.885538424516     3.721836137456    -0.486062529269     1.007825032230
         H           -0.885678575484     3.721844137456    -0.485607529269     1.007825032230
         H            0.000031424516    -2.093732862544     0.010040470731     1.007825032230

  Basis Set: AUG-CC-PVTZ
    Blend: AUG-CC-PVTZ
  Basis Set: (AUG-CC-PVTZ AUX)
    Blend: AUG-CC-PVTZ-JKFIT
	 Reference Energy          =   -1187.6969206024557479 [Eh]
	 Singles Energy            =      -0.0000000000000000 [Eh]
	 Same-Spin Energy          =      -0.4300351402516484 [Eh]
	 Opposite-Spin Energy      =      -1.3004639582101594 [Eh]
	 Correlation Energy        =      -1.7304990984618076 [Eh]
	 Total Energy              =   -1189.4274197009176532 [Eh]

	 ================> DF-SCS-MP2 Energies <==================
	-----------------------------------------------------------
	 SCS Same-Spin Scale       =       0.3333333333333333 [-]
	 SCS Opposite-Spin Scale   =       1.2000000000000000 [-]
	 SCS Same-Spin Energy      =      -0.1433450467505494 [Eh]
	 SCS Opposite-Spin Energy  =      -1.5605567498521913 [Eh]
	 SCS Correlation Energy    =      -1.7039017966027408 [Eh]
	 SCS Total Energy          =   -1189.4008223990585975 [Eh]
	-----------------------------------------------------------

  Dipole Moment: [D]
     X:     0.1020      Y:     2.0509      Z:     0.0357     Total:     2.0537

*** Psi4 exiting successfully. Buy a developer a beer!
