                               Psi4 1.4a3.dev225

  ==> Input File <==

--------------------------------------------------------------------------
#psi4
#
memory 32 gb

molecule  {
0 1
 Cl        2.7008340    -1.2489210     0.0016850
 Cl       -2.7008440    -1.2489040     0.0016850
  C        0.0000030     1.7216440    -0.0170270
  C       -1.2072320     1.0139100    -0.0094880
  C        1.2072370     1.0139020    -0.0094890
  C        0.0000180     3.2280150     0.0131190
  C        1.1931300    -0.3798000    -0.0002610
  C       -1.1931340    -0.3797940    -0.0002610
  C       -0.0000050    -1.1002640     0.0063140
  H       -2.1570970     1.5426200    -0.0181830
  H        2.1571050     1.5426070    -0.0181850
  H       -0.0159750     3.6069377     1.0404357
  H        0.8855000     3.6300440    -0.4862980
  H       -0.8857170     3.6300520    -0.4858430
  H       -0.0000070    -2.1855250     0.0098050
units angstrom
no_reorient  #important for SAPT in psi4, default
symmetry c1  #important for SAPT in psi4, default
}

set PROPERTIES_ORIGIN ["COM"]
properties('MP2/aug-cc-pvtz', properties = ['dipole'])
--------------------------------------------------------------------------

    Molecular point group: c1
  Charge       = 0
  Multiplicity = 1
  Basis Set: AUG-CC-PVTZ
    Blend: AUG-CC-PVTZ
  Basis Set: (AUG-CC-PVTZ AUX)
    Blend: AUG-CC-PVTZ-JKFIT

    Orbital Energies [Eh]
    ---------------------

    Doubly Occupied:

       1A   -104.849264     2A   -104.849259     3A    -11.318230
       4A    -11.318221     5A    -11.271195     6A    -11.260487
       7A    -11.255030     8A    -11.254976     9A    -11.241788
      10A    -10.573050    11A    -10.573044    12A     -8.039953
      13A     -8.039947    14A     -8.038026    15A     -8.038020
      16A     -8.038019    17A     -8.038013    18A     -1.212096
      19A     -1.160838    20A     -1.118522    21A     -1.043610
      22A     -0.998207    23A     -0.958730    24A     -0.823085
      25A     -0.816059    26A     -0.707534    27A     -0.682320
      28A     -0.626862    29A     -0.597958    30A     -0.594730
      31A     -0.593943    32A     -0.563557    33A     -0.555762
      34A     -0.525979    35A     -0.517467    36A     -0.510754
      37A     -0.466065    38A     -0.457849    39A     -0.452110
      40A     -0.346077    41A     -0.341886

  @DF-RHF Final Energy: -1187.70021737713387

   => Energetics <=

    Nuclear Repulsion Energy =            542.8105048398621193
    One-Electron Energy =               -2711.6844044341301014
    Two-Electron Energy =                 981.1736822171343420
    Total Energy =                      -1187.7002173771338676
  Basis Set: (AUG-CC-PVTZ AUX)
    Blend: AUG-CC-PVTZ-RI
    Molecular point group: c1

    Geometry (in Angstrom), charge = 0, multiplicity = 1:

       Center              X                  Y                   Z               Mass
    ------------   -----------------  -----------------  -----------------  -----------------
         CL           2.700936906017    -1.160938139298     0.001967606569    34.968852682000
         CL          -2.700741093983    -1.160921139298     0.001967606569    34.968852682000
         C            0.000105906017     1.809626860702    -0.016744393431    12.000000000000
         C           -1.207129093983     1.101892860702    -0.009205393431    12.000000000000
         C            1.207339906017     1.101884860702    -0.009206393431    12.000000000000
         C            0.000120906017     3.315997860702     0.013401606569    12.000000000000
         C            1.193232906017    -0.291817139298     0.000021606569    12.000000000000
         C           -1.193031093983    -0.291811139298     0.000021606569    12.000000000000
         C            0.000097906017    -1.012281139298     0.006596606569    12.000000000000
         H           -2.156994093983     1.630602860702    -0.017900393431     1.007825032230
         H            2.157207906017     1.630589860702    -0.017902393431     1.007825032230
         H           -0.015872093983     3.694920560702     1.040718306569     1.007825032230
         H            0.885602906017     3.718026860702    -0.486015393431     1.007825032230
         H           -0.885614093983     3.718034860702    -0.485560393431     1.007825032230
         H            0.000095906017    -2.097542139298     0.010087606569     1.007825032230

  Basis Set: AUG-CC-PVTZ
    Blend: AUG-CC-PVTZ
  Basis Set: (AUG-CC-PVTZ AUX)
    Blend: AUG-CC-PVTZ-JKFIT
	 Reference Energy          =   -1187.7002173771338676 [Eh]
	 Singles Energy            =      -0.0000000000000000 [Eh]
	 Same-Spin Energy          =      -0.4298856843166148 [Eh]
	 Opposite-Spin Energy      =      -1.3000171343233644 [Eh]
	 Correlation Energy        =      -1.7299028186399792 [Eh]
	 Total Energy              =   -1189.4301201957739522 [Eh]

	 ================> DF-SCS-MP2 Energies <==================
	-----------------------------------------------------------
	 SCS Same-Spin Scale       =       0.3333333333333333 [-]
	 SCS Opposite-Spin Scale   =       1.2000000000000000 [-]
	 SCS Same-Spin Energy      =      -0.1432952281055383 [Eh]
	 SCS Opposite-Spin Energy  =      -1.5600205611880373 [Eh]
	 SCS Correlation Energy    =      -1.7033157892935755 [Eh]
	 SCS Total Energy          =   -1189.4035331664274509 [Eh]
	-----------------------------------------------------------

  Dipole Moment: [D]
     X:    -0.0063      Y:     2.1366      Z:     0.0356     Total:     2.1369

*** Psi4 exiting successfully. Buy a developer a beer!
