                               Psi4 1.4a3.dev225

  ==> Input File <==

--------------------------------------------------------------------------
#psi4
#
memory 32 gb

molecule  {
0 1
 Cl        2.7008340    -1.2489210     0.0016850
 Cl       -2.7008440    -1.2489040     0.0016850
  C        0.0000030     1.7216440    -0.0170270
  C       -1.2072320     1.0139100    -0.0094880
  C        1.2072370     1.0139020    -0.0094890
  C        0.0000180     3.2280150     0.0131190
  C        1.1803739    -0.3590875    -0.0004500
  C       -1.1931340    -0.3797940    -0.0002610
  C       -0.0000050    -1.1002640     0.0063140
  H       -2.1570970     1.5426200    -0.0181830
  H        2.1571050     1.5426070    -0.0181850
  H        0.0002870     3.5975410     1.0439770
  H        0.8855000     3.6300440    -0.4862980
  H       -0.8857170     3.6300520    -0.4858430
  H       -0.0000070    -2.1855250     0.0098050
units angstrom
no_reorient  #important for SAPT in psi4, default
symmetry c1  #important for SAPT in psi4, default
}

set PROPERTIES_ORIGIN ["COM"]
properties('MP2/aug-cc-pvtz', properties = ['dipole'])
--------------------------------------------------------------------------

    Molecular point group: c1
  Charge       = 0
  Multiplicity = 1
  Basis Set: AUG-CC-PVTZ
    Blend: AUG-CC-PVTZ
  Basis Set: (AUG-CC-PVTZ AUX)
    Blend: AUG-CC-PVTZ-JKFIT

    Orbital Energies [Eh]
    ---------------------

    Doubly Occupied:

       1A   -104.849608     2A   -104.846696     3A    -11.318867
       4A    -11.317805     5A    -11.272089     6A    -11.261172
       7A    -11.255319     8A    -11.253723     9A    -11.242402
      10A    -10.573407    11A    -10.570219    12A     -8.040309
      13A     -8.038383    14A     -8.038375    15A     -8.037072
      16A     -8.035208    17A     -8.035208    18A     -1.213029
      19A     -1.158472    20A     -1.117746    21A     -1.043917
      22A     -1.001150    23A     -0.960124    24A     -0.822395
      25A     -0.817821    26A     -0.709244    27A     -0.683834
      28A     -0.624417    29A     -0.599446    30A     -0.597021
      31A     -0.593615    32A     -0.563742    33A     -0.556241
      34A     -0.526754    35A     -0.514862    36A     -0.509203
      37A     -0.465807    38A     -0.457126    39A     -0.452417
      40A     -0.346201    41A     -0.345049

  @DF-RHF Final Energy: -1187.70020569292001

   => Energetics <=

    Nuclear Repulsion Energy =            542.9065644298516418
    One-Electron Energy =               -2711.8825505601339501
    Two-Electron Energy =                 981.2757804373623003
    Total Energy =                      -1187.7002056929200080
  Basis Set: (AUG-CC-PVTZ AUX)
    Blend: AUG-CC-PVTZ-RI
    Molecular point group: c1

    Geometry (in Angstrom), charge = 0, multiplicity = 1:

       Center              X                  Y                   Z               Mass
    ------------   -----------------  -----------------  -----------------  -----------------
         CL           2.701791262635    -1.162432531180     0.001959474471    34.968852682000
         CL          -2.699886737365    -1.162415531180     0.001959474471    34.968852682000
         C            0.000960262635     1.808132468820    -0.016752525529    12.000000000000
         C           -1.206274737365     1.100398468820    -0.009213525529    12.000000000000
         C            1.208194262635     1.100390468820    -0.009214525529    12.000000000000
         C            0.000975262635     3.314503468820     0.013393474471    12.000000000000
         C            1.181331162635    -0.272599031180    -0.000175525529    12.000000000000
         C           -1.192176737365    -0.293305531180     0.000013474471    12.000000000000
         C            0.000952262635    -1.013775531180     0.006588474471    12.000000000000
         H           -2.156139737365     1.629108468820    -0.017908525529     1.007825032230
         H            2.158062262635     1.629095468820    -0.017910525529     1.007825032230
         H            0.001244262635     3.684029468820     1.044251474471     1.007825032230
         H            0.886457262635     3.716532468820    -0.486023525529     1.007825032230
         H           -0.884759737365     3.716540468820    -0.485568525529     1.007825032230
         H            0.000950262635    -2.099036531180     0.010079474471     1.007825032230

  Basis Set: AUG-CC-PVTZ
    Blend: AUG-CC-PVTZ
  Basis Set: (AUG-CC-PVTZ AUX)
    Blend: AUG-CC-PVTZ-JKFIT
	 Reference Energy          =   -1187.7002056929200080 [Eh]
	 Singles Energy            =      -0.0000000000000000 [Eh]
	 Same-Spin Energy          =      -0.4297088709278676 [Eh]
	 Opposite-Spin Energy      =      -1.2997625138508049 [Eh]
	 Correlation Energy        =      -1.7294713847786725 [Eh]
	 Total Energy              =   -1189.4296770776986705 [Eh]

	 ================> DF-SCS-MP2 Energies <==================
	-----------------------------------------------------------
	 SCS Same-Spin Scale       =       0.3333333333333333 [-]
	 SCS Opposite-Spin Scale   =       1.2000000000000000 [-]
	 SCS Same-Spin Energy      =      -0.1432362903092892 [Eh]
	 SCS Opposite-Spin Energy  =      -1.5597150166209659 [Eh]
	 SCS Correlation Energy    =      -1.7029513069302551 [Eh]
	 SCS Total Energy          =   -1189.4031569998503528 [Eh]
	-----------------------------------------------------------

  Dipole Moment: [D]
     X:    -0.0984      Y:     2.2039      Z:     0.0355     Total:     2.2063

*** Psi4 exiting successfully. Buy a developer a beer!
