                               Psi4 1.4a3.dev225

  ==> Input File <==

--------------------------------------------------------------------------
#psi4
#
memory 32 gb

molecule  {
0 1
 Cl        2.7008340    -1.2489210     0.0016850
 Cl       -2.7008440    -1.2489040     0.0016850
  C        0.0000030     1.7216440    -0.0170270
  C       -1.2072320     1.0139100    -0.0094880
  C        1.2072370     1.0139020    -0.0094890
  C        0.0000180     3.2280150     0.0131190
  C        1.1931300    -0.3798000    -0.0002610
  C       -1.1951570    -0.1798086    -0.0015850
  C       -0.0000050    -1.1002640     0.0063140
  H       -2.1570970     1.5426200    -0.0181830
  H        2.1571050     1.5426070    -0.0181850
  H        0.0002870     3.5975410     1.0439770
  H        0.8855000     3.6300440    -0.4862980
  H       -0.8857170     3.6300520    -0.4858430
  H       -0.0000070    -2.1855250     0.0098050
units angstrom
no_reorient  #important for SAPT in psi4, default
symmetry c1  #important for SAPT in psi4, default
}

set PROPERTIES_ORIGIN ["COM"]
properties('MP2/aug-cc-pvtz', properties = ['dipole'])
--------------------------------------------------------------------------

    Molecular point group: c1
  Charge       = 0
  Multiplicity = 1
  Basis Set: AUG-CC-PVTZ
    Blend: AUG-CC-PVTZ
  Basis Set: (AUG-CC-PVTZ AUX)
    Blend: AUG-CC-PVTZ-JKFIT

    Orbital Energies [Eh]
    ---------------------

    Doubly Occupied:

       1A   -104.849664     2A   -104.835801     3A    -11.319621
       4A    -11.312230     5A    -11.278381     6A    -11.272530
       7A    -11.256795     8A    -11.245809     9A    -11.235696
      10A    -10.573556    11A    -10.558625    12A     -8.040454
      13A     -8.038531    14A     -8.038518    15A     -8.025294
      16A     -8.023652    17A     -8.023632    18A     -1.222510
      19A     -1.161450    20A     -1.108851    21A     -1.036659
      22A     -1.030531    23A     -0.957999    24A     -0.836079
      25A     -0.805186    26A     -0.717346    27A     -0.686145
      28A     -0.620697    29A     -0.614873    30A     -0.604761
      31A     -0.585470    32A     -0.563375    33A     -0.558573
      34A     -0.535395    35A     -0.509744    36A     -0.491696
      37A     -0.465004    38A     -0.452569    39A     -0.446433
      40A     -0.373989    41A     -0.334902

  @DF-RHF Final Energy: -1187.64473724857021

   => Energetics <=

    Nuclear Repulsion Energy =            543.3349036887418606
    One-Electron Energy =               -2712.6612324236198219
    Two-Electron Energy =                 981.6815914863079797
    Total Energy =                      -1187.6447372485702090
  Basis Set: (AUG-CC-PVTZ AUX)
    Blend: AUG-CC-PVTZ-RI
    Molecular point group: c1

    Geometry (in Angstrom), charge = 0, multiplicity = 1:

       Center              X                  Y                   Z               Mass
    ------------   -----------------  -----------------  -----------------  -----------------
         CL           2.700986202928    -1.175879288262     0.002044607636    34.968852682000
         CL          -2.700691797072    -1.175862288262     0.002044607636    34.968852682000
         C            0.000155202928     1.794685711738    -0.016667392364    12.000000000000
         C           -1.207079797072     1.086951711738    -0.009128392364    12.000000000000
         C            1.207389202928     1.086943711738    -0.009129392364    12.000000000000
         C            0.000170202928     3.301056711738     0.013478607636    12.000000000000
         C            1.193282202928    -0.306758288262     0.000098607636    12.000000000000
         C           -1.195004797072    -0.106766888262    -0.001225392364    12.000000000000
         C            0.000147202928    -1.027222288262     0.006673607636    12.000000000000
         H           -2.156944797072     1.615661711738    -0.017823392364     1.007825032230
         H            2.157257202928     1.615648711738    -0.017825392364     1.007825032230
         H            0.000439202928     3.670582711738     1.044336607636     1.007825032230
         H            0.885652202928     3.703085711738    -0.485938392364     1.007825032230
         H           -0.885564797072     3.703093711738    -0.485483392364     1.007825032230
         H            0.000145202928    -2.112483288262     0.010164607636     1.007825032230

  Basis Set: AUG-CC-PVTZ
    Blend: AUG-CC-PVTZ
  Basis Set: (AUG-CC-PVTZ AUX)
    Blend: AUG-CC-PVTZ-JKFIT
	 Reference Energy          =   -1187.6447372485702090 [Eh]
	 Singles Energy            =      -0.0000000000000000 [Eh]
	 Same-Spin Energy          =      -0.4281708881351184 [Eh]
	 Opposite-Spin Energy      =      -1.3002139819719423 [Eh]
	 Correlation Energy        =      -1.7283848701070608 [Eh]
	 Total Energy              =   -1189.3731221186772018 [Eh]

	 ================> DF-SCS-MP2 Energies <==================
	-----------------------------------------------------------
	 SCS Same-Spin Scale       =       0.3333333333333333 [-]
	 SCS Opposite-Spin Scale   =       1.2000000000000000 [-]
	 SCS Same-Spin Energy      =      -0.1427236293783728 [Eh]
	 SCS Opposite-Spin Energy  =      -1.5602567783663306 [Eh]
	 SCS Correlation Energy    =      -1.7029804077447035 [Eh]
	 SCS Total Energy          =   -1189.3477176563148987 [Eh]
	-----------------------------------------------------------

  Dipole Moment: [D]
     X:     0.4197      Y:     2.5735      Z:     0.0340     Total:     2.6077

*** Psi4 exiting successfully. Buy a developer a beer!
