                               Psi4 1.4a3.dev225

  ==> Input File <==

--------------------------------------------------------------------------
#psi4
#
memory 32 gb

molecule  {
0 1
 Cl        2.7008340    -1.2489210     0.0016850
 Cl       -2.7008440    -1.2489040     0.0016850
  C        0.0000030     1.7216440    -0.0170270
  C       -1.2072320     1.0139100    -0.0094880
  C        1.2072370     1.0139020    -0.0094890
  C        0.0000190     3.3279950     0.0151198
  C        1.1931300    -0.3798000    -0.0002610
  C       -1.1931340    -0.3797940    -0.0002610
  C       -0.0000050    -1.1002640     0.0063140
  H       -2.1570970     1.5426200    -0.0181830
  H        2.1571050     1.5426070    -0.0181850
  H        0.0002870     3.5975410     1.0439770
  H        0.8855000     3.6300440    -0.4862980
  H       -0.8857170     3.6300520    -0.4858430
  H       -0.0000070    -2.1855250     0.0098050
units angstrom
no_reorient  #important for SAPT in psi4, default
symmetry c1  #important for SAPT in psi4, default
}

set PROPERTIES_ORIGIN ["COM"]
properties('MP2/aug-cc-pvtz', properties = ['dipole'])
--------------------------------------------------------------------------

    Molecular point group: c1
  Charge       = 0
  Multiplicity = 1
  Basis Set: AUG-CC-PVTZ
    Blend: AUG-CC-PVTZ
  Basis Set: (AUG-CC-PVTZ AUX)
    Blend: AUG-CC-PVTZ-JKFIT

    Orbital Energies [Eh]
    ---------------------

    Doubly Occupied:

       1A   -104.848917     2A   -104.848917     3A    -11.317831
       4A    -11.317824     5A    -11.274229     6A    -11.260108
       7A    -11.254839     8A    -11.254792     9A    -11.240853
      10A    -10.572709    11A    -10.572708    12A     -8.039612
      13A     -8.039612    14A     -8.037685    15A     -8.037685
      16A     -8.037679    17A     -8.037679    18A     -1.210836
      19A     -1.160472    20A     -1.112592    21A     -1.038423
      22A     -0.997330    23A     -0.961062    24A     -0.821565
      25A     -0.816781    26A     -0.706971    27A     -0.680181
      28A     -0.620577    29A     -0.607025    30A     -0.594824
      31A     -0.585715    32A     -0.581007    33A     -0.560209
      34A     -0.520223    35A     -0.510427    36A     -0.507216
      37A     -0.463014    38A     -0.457657    39A     -0.453544
      40A     -0.347396    41A     -0.341365

  @DF-RHF Final Energy: -1187.69315016819837

   => Energetics <=

    Nuclear Repulsion Energy =            541.0489500799307052
    One-Electron Energy =               -2708.1840079843605054
    Two-Electron Energy =                 979.4419077362313146
    Total Energy =                      -1187.6931501681983718
  Basis Set: (AUG-CC-PVTZ AUX)
    Blend: AUG-CC-PVTZ-RI
    Molecular point group: c1

    Geometry (in Angstrom), charge = 0, multiplicity = 1:

       Center              X                  Y                   Z               Mass
    ------------   -----------------  -----------------  -----------------  -----------------
         CL           2.700834388368    -1.168378163883     0.001795223719    34.968852682000
         CL          -2.700843611632    -1.168361163883     0.001795223719    34.968852682000
         C            0.000003388368     1.802186836117    -0.016916776281    12.000000000000
         C           -1.207231611632     1.094452836117    -0.009377776281    12.000000000000
         C            1.207237388368     1.094444836117    -0.009378776281    12.000000000000
         C            0.000019388368     3.408537836117     0.015230023719    12.000000000000
         C            1.193130388368    -0.299257163883    -0.000150776281    12.000000000000
         C           -1.193133611632    -0.299251163883    -0.000150776281    12.000000000000
         C           -0.000004611632    -1.019721163883     0.006424223719    12.000000000000
         H           -2.157096611632     1.623162836117    -0.018072776281     1.007825032230
         H            2.157105388368     1.623149836117    -0.018074776281     1.007825032230
         H            0.000287388368     3.678083836117     1.044087223719     1.007825032230
         H            0.885500388368     3.710586836117    -0.486187776281     1.007825032230
         H           -0.885716611632     3.710594836117    -0.485732776281     1.007825032230
         H           -0.000006611632    -2.104982163883     0.009915223719     1.007825032230

  Basis Set: AUG-CC-PVTZ
    Blend: AUG-CC-PVTZ
  Basis Set: (AUG-CC-PVTZ AUX)
    Blend: AUG-CC-PVTZ-JKFIT
	 Reference Energy          =   -1187.6931501681983718 [Eh]
	 Singles Energy            =      -0.0000000000000000 [Eh]
	 Same-Spin Energy          =      -0.4294230392332588 [Eh]
	 Opposite-Spin Energy      =      -1.2998897452064884 [Eh]
	 Correlation Energy        =      -1.7293127844397471 [Eh]
	 Total Energy              =   -1189.4224629526381705 [Eh]

	 ================> DF-SCS-MP2 Energies <==================
	-----------------------------------------------------------
	 SCS Same-Spin Scale       =       0.3333333333333333 [-]
	 SCS Opposite-Spin Scale   =       1.2000000000000000 [-]
	 SCS Same-Spin Energy      =      -0.1431410130777529 [Eh]
	 SCS Opposite-Spin Energy  =      -1.5598676942477860 [Eh]
	 SCS Correlation Energy    =      -1.7030087073255389 [Eh]
	 SCS Total Energy          =   -1189.3961588755239518 [Eh]
	-----------------------------------------------------------

  Dipole Moment: [D]
     X:     0.0000      Y:     2.1255      Z:     0.0319     Total:     2.1258

*** Psi4 exiting successfully. Buy a developer a beer!
