                               Psi4 1.4a3.dev225

  ==> Input File <==

--------------------------------------------------------------------------
#psi4
#
memory 32 gb

molecule  {
0 1
 Cl        2.7008340    -1.2489210     0.0016850
 Cl       -2.7008440    -1.2489040     0.0016850
  C        0.0000030     1.7216440    -0.0170270
  C       -1.2072320     1.0139100    -0.0094880
  C        1.2072370     1.0139020    -0.0094890
  C        0.0000180     3.2280150     0.0131190
  C        1.1931300    -0.3798000    -0.0002610
  C       -1.1931340    -0.3797940    -0.0002610
  C        0.0171156    -1.0899259     0.0062197
  H       -2.1570970     1.5426200    -0.0181830
  H        2.1571050     1.5426070    -0.0181850
  H        0.0002870     3.5975410     1.0439770
  H        0.8855000     3.6300440    -0.4862980
  H       -0.8857170     3.6300520    -0.4858430
  H       -0.0000070    -2.1855250     0.0098050
units angstrom
no_reorient  #important for SAPT in psi4, default
symmetry c1  #important for SAPT in psi4, default
}

set PROPERTIES_ORIGIN ["COM"]
properties('MP2/aug-cc-pvtz', properties = ['dipole'])
--------------------------------------------------------------------------

    Molecular point group: c1
  Charge       = 0
  Multiplicity = 1
  Basis Set: AUG-CC-PVTZ
    Blend: AUG-CC-PVTZ
  Basis Set: (AUG-CC-PVTZ AUX)
    Blend: AUG-CC-PVTZ-JKFIT

    Orbital Energies [Eh]
    ---------------------

    Doubly Occupied:

       1A   -104.850302     2A   -104.848714     3A    -11.319011
       4A    -11.315820     5A    -11.270768     6A    -11.259994
       7A    -11.255099     8A    -11.254691     9A    -11.241703
      10A    -10.574010    11A    -10.572530    12A     -8.040914
      13A     -8.039434    14A     -8.038986    15A     -8.038978
      16A     -8.037503    17A     -8.037499    18A     -1.212860
      19A     -1.161039    20A     -1.118525    21A     -1.044504
      22A     -0.998375    23A     -0.958385    24A     -0.824446
      25A     -0.815170    26A     -0.706267    27A     -0.682871
      28A     -0.626664    29A     -0.598093    30A     -0.595324
      31A     -0.591860    32A     -0.563583    33A     -0.556567
      34A     -0.524779    35A     -0.517746    36A     -0.510914
      37A     -0.466066    38A     -0.458291    39A     -0.452365
      40A     -0.347172    41A     -0.341383

  @DF-RHF Final Energy: -1187.69984416828470

   => Energetics <=

    Nuclear Repulsion Energy =            543.0008832867991941
    One-Electron Energy =               -2712.0630455478508338
    Two-Electron Energy =                 981.3623180927669409
    Total Energy =                      -1187.6998441682844714
  Basis Set: (AUG-CC-PVTZ AUX)
    Blend: AUG-CC-PVTZ-RI
    Molecular point group: c1

    Geometry (in Angstrom), charge = 0, multiplicity = 1:

       Center              X                  Y                   Z               Mass
    ------------   -----------------  -----------------  -----------------  -----------------
         CL           2.699550295220    -1.161654376553     0.001952371290    34.968852682000
         CL          -2.702127704780    -1.161637376553     0.001952371290    34.968852682000
         C           -0.001280704780     1.808910623447    -0.016759628710    12.000000000000
         C           -1.208515704780     1.101176623447    -0.009220628710    12.000000000000
         C            1.205953295220     1.101168623447    -0.009221628710    12.000000000000
         C           -0.001265704780     3.315281623447     0.013386371290    12.000000000000
         C            1.191846295220    -0.292533376553     0.000006371290    12.000000000000
         C           -1.194417704780    -0.292527376553     0.000006371290    12.000000000000
         C            0.015831895220    -1.002659276553     0.006487071290    12.000000000000
         H           -2.158380704780     1.629886623447    -0.017915628710     1.007825032230
         H            2.155821295220     1.629873623447    -0.017917628710     1.007825032230
         H           -0.000996704780     3.684807623447     1.044244371290     1.007825032230
         H            0.884216295220     3.717310623447    -0.486030628710     1.007825032230
         H           -0.887000704780     3.717318623447    -0.485575628710     1.007825032230
         H           -0.001290704780    -2.098258376553     0.010072371290     1.007825032230

  Basis Set: AUG-CC-PVTZ
    Blend: AUG-CC-PVTZ
  Basis Set: (AUG-CC-PVTZ AUX)
    Blend: AUG-CC-PVTZ-JKFIT
	 Reference Energy          =   -1187.6998441682846988 [Eh]
	 Singles Energy            =      -0.0000000000000000 [Eh]
	 Same-Spin Energy          =      -0.4298852070318558 [Eh]
	 Opposite-Spin Energy      =      -1.2999998619512911 [Eh]
	 Correlation Energy        =      -1.7298850689831471 [Eh]
	 Total Energy              =   -1189.4297292372677930 [Eh]

	 ================> DF-SCS-MP2 Energies <==================
	-----------------------------------------------------------
	 SCS Same-Spin Scale       =       0.3333333333333333 [-]
	 SCS Opposite-Spin Scale   =       1.2000000000000000 [-]
	 SCS Same-Spin Energy      =      -0.1432950690106186 [Eh]
	 SCS Opposite-Spin Energy  =      -1.5599998343415493 [Eh]
	 SCS Correlation Energy    =      -1.7032949033521678 [Eh]
	 SCS Total Energy          =   -1189.4031390716368151 [Eh]
	-----------------------------------------------------------

  Dipole Moment: [D]
     X:    -0.0385      Y:     2.1315      Z:     0.0355     Total:     2.1321

*** Psi4 exiting successfully. Buy a developer a beer!
