                               Psi4 1.4a3.dev225

  ==> Input File <==

--------------------------------------------------------------------------
#psi4
#
memory 32 gb

molecule  {
0 1
 Cl        2.7008340    -1.2489210     0.0016850
 Cl       -2.7008440    -1.2489040     0.0016850
  C        0.0000030     1.7216440    -0.0170270
  C       -1.2072320     1.0139100    -0.0094880
  C        1.2072370     1.0139020    -0.0094890
  C        0.0000180     3.2280150     0.0131190
  C        1.2404827    -0.4647804     0.0005145
  C       -1.1931340    -0.3797940    -0.0002610
  C       -0.0000050    -1.1002640     0.0063140
  H       -2.1570970     1.5426200    -0.0181830
  H        2.1571050     1.5426070    -0.0181850
  H        0.0002870     3.5975410     1.0439770
  H        0.8855000     3.6300440    -0.4862980
  H       -0.8857170     3.6300520    -0.4858430
  H       -0.0000070    -2.1855250     0.0098050
units angstrom
no_reorient  #important for SAPT in psi4, default
symmetry c1  #important for SAPT in psi4, default
}

set PROPERTIES_ORIGIN ["COM"]
properties('MP2/aug-cc-pvtz', properties = ['dipole'])
--------------------------------------------------------------------------

    Molecular point group: c1
  Charge       = 0
  Multiplicity = 1
  Basis Set: AUG-CC-PVTZ
    Blend: AUG-CC-PVTZ
  Basis Set: (AUG-CC-PVTZ AUX)
    Blend: AUG-CC-PVTZ-JKFIT

    Orbital Energies [Eh]
    ---------------------

    Doubly Occupied:

       1A   -104.858127     2A   -104.847944     3A    -11.320436
       4A    -11.315969     5A    -11.267677     6A    -11.259370
       7A    -11.257946     8A    -11.253479     9A    -11.239873
      10A    -10.583298    11A    -10.571673    12A     -8.050431
      13A     -8.048200    14A     -8.048165    15A     -8.038580
      16A     -8.036649    17A     -8.036648    18A     -1.213567
      19A     -1.173042    20A     -1.118133    21A     -1.042184
      22A     -0.988042    23A     -0.952402    24A     -0.825807
      25A     -0.808067    26A     -0.700808    27A     -0.677160
      28A     -0.640499    29A     -0.596436    30A     -0.594970
      31A     -0.583857    32A     -0.562540    33A     -0.557485
      34A     -0.527387    35A     -0.520035    36A     -0.517341
      37A     -0.463970    38A     -0.458036    39A     -0.449674
      40A     -0.345664    41A     -0.329492

  @DF-RHF Final Energy: -1187.68820034967462

   => Energetics <=

    Nuclear Repulsion Energy =            542.6278630950821480
    One-Electron Energy =               -2711.2700042776082228
    Two-Electron Energy =                 980.9539408328512309
    Total Energy =                      -1187.6882003496746165
  Basis Set: (AUG-CC-PVTZ AUX)
    Blend: AUG-CC-PVTZ-RI
    Molecular point group: c1

    Geometry (in Angstrom), charge = 0, multiplicity = 1:

       Center              X                  Y                   Z               Mass
    ------------   -----------------  -----------------  -----------------  -----------------
         CL           2.697282670249    -1.154504803389     0.001887130033    34.968852682000
         CL          -2.704395329751    -1.154487803389     0.001887130033    34.968852682000
         C           -0.003548329751     1.816060196611    -0.016824869967    12.000000000000
         C           -1.210783329751     1.108326196611    -0.009285869967    12.000000000000
         C            1.203685670249     1.108318196611    -0.009286869967    12.000000000000
         C           -0.003533329751     3.322431196611     0.013321130033    12.000000000000
         C            1.236931370249    -0.370364203389     0.000716630033    12.000000000000
         C           -1.196685329751    -0.285377803389    -0.000058869967    12.000000000000
         C           -0.003556329751    -1.005847803389     0.006516130033    12.000000000000
         H           -2.160648329751     1.637036196611    -0.017980869967     1.007825032230
         H            2.153553670249     1.637023196611    -0.017982869967     1.007825032230
         H           -0.003264329751     3.691957196611     1.044179130033     1.007825032230
         H            0.881948670249     3.724460196611    -0.486095869967     1.007825032230
         H           -0.889268329751     3.724468196611    -0.485640869967     1.007825032230
         H           -0.003558329751    -2.091108803389     0.010007130033     1.007825032230

  Basis Set: AUG-CC-PVTZ
    Blend: AUG-CC-PVTZ
  Basis Set: (AUG-CC-PVTZ AUX)
    Blend: AUG-CC-PVTZ-JKFIT
	 Reference Energy          =   -1187.6882003496746165 [Eh]
	 Singles Energy            =      -0.0000000000000000 [Eh]
	 Same-Spin Energy          =      -0.4308722677582655 [Eh]
	 Opposite-Spin Energy      =      -1.3018046541926886 [Eh]
	 Correlation Energy        =      -1.7326769219509541 [Eh]
	 Total Energy              =   -1189.4208772716256135 [Eh]

	 ================> DF-SCS-MP2 Energies <==================
	-----------------------------------------------------------
	 SCS Same-Spin Scale       =       0.3333333333333333 [-]
	 SCS Opposite-Spin Scale   =       1.2000000000000000 [-]
	 SCS Same-Spin Energy      =      -0.1436240892527552 [Eh]
	 SCS Opposite-Spin Energy  =      -1.5621655850312264 [Eh]
	 SCS Correlation Energy    =      -1.7057896742839815 [Eh]
	 SCS Total Energy          =   -1189.3939900239586223 [Eh]
	-----------------------------------------------------------

  Dipole Moment: [D]
     X:     0.3798      Y:     1.8930      Z:     0.0353     Total:     1.9310

*** Psi4 exiting successfully. Buy a developer a beer!
