                               Psi4 1.4a3.dev225

  ==> Input File <==

--------------------------------------------------------------------------
#psi4
#
memory 32 gb

molecule  {
0 1
 Cl        2.7008340    -1.2489210     0.0016850
 Cl       -2.7008440    -1.2489040     0.0016850
  C        0.0000030     1.7216440    -0.0170270
  C       -1.2072320     1.0139100    -0.0094880
  C        1.2072370     1.0139020    -0.0094890
  C        0.0000180     3.2280150     0.0131190
  C        1.1931300    -0.3798000    -0.0002610
  C       -1.1931340    -0.3797940    -0.0002610
  C       -0.0000050    -1.1002640     0.0063140
  H       -2.1570970     1.5426200    -0.0181830
  H        2.1571050     1.5426070    -0.0181850
  H        0.0002821     3.5907922     1.0251501
  H        0.8855000     3.6300440    -0.4862980
  H       -0.8857170     3.6300520    -0.4858430
  H       -0.0000070    -2.1855250     0.0098050
units angstrom
no_reorient  #important for SAPT in psi4, default
symmetry c1  #important for SAPT in psi4, default
}

set PROPERTIES_ORIGIN ["COM"]
properties('MP2/aug-cc-pvtz', properties = ['dipole'])
--------------------------------------------------------------------------

    Molecular point group: c1
  Charge       = 0
  Multiplicity = 1
  Basis Set: AUG-CC-PVTZ
    Blend: AUG-CC-PVTZ
  Basis Set: (AUG-CC-PVTZ AUX)
    Blend: AUG-CC-PVTZ-JKFIT

    Orbital Energies [Eh]
    ---------------------

    Doubly Occupied:

       1A   -104.849210     2A   -104.849210     3A    -11.318170
       4A    -11.318163     5A    -11.270994     6A    -11.260357
       7A    -11.254888     8A    -11.254833     9A    -11.239465
      10A    -10.572995    11A    -10.572995    12A     -8.039898
      13A     -8.039898    14A     -8.037972    15A     -8.037971
      16A     -8.037965    17A     -8.037965    18A     -1.212026
      19A     -1.160778    20A     -1.118636    21A     -1.043934
      22A     -0.998119    23A     -0.959992    24A     -0.822998
      25A     -0.816401    26A     -0.707491    27A     -0.682212
      28A     -0.626784    29A     -0.601285    30A     -0.594650
      31A     -0.593968    32A     -0.563357    33A     -0.556864
      34A     -0.525774    35A     -0.517373    36A     -0.510699
      37A     -0.465988    38A     -0.457793    39A     -0.452254
      40A     -0.346117    41A     -0.341825

  @DF-RHF Final Energy: -1187.70028479771850

   => Energetics <=

    Nuclear Repulsion Energy =            542.9172361842488499
    One-Electron Energy =               -2711.8945124457686688
    Two-Electron Energy =                 981.2769914638012096
    Total Energy =                      -1187.7002847977187230
  Basis Set: (AUG-CC-PVTZ AUX)
    Blend: AUG-CC-PVTZ-RI
    Molecular point group: c1

    Geometry (in Angstrom), charge = 0, multiplicity = 1:

       Center              X                  Y                   Z               Mass
    ------------   -----------------  -----------------  -----------------  -----------------
         CL           2.700834494243    -1.160836430550     0.002063898368    34.968852682000
         CL          -2.700843505757    -1.160819430550     0.002063898368    34.968852682000
         C            0.000003494243     1.809728569450    -0.016648101632    12.000000000000
         C           -1.207231505757     1.101994569450    -0.009109101632    12.000000000000
         C            1.207237494243     1.101986569450    -0.009110101632    12.000000000000
         C            0.000018494243     3.316099569450     0.013497898368    12.000000000000
         C            1.193130494243    -0.291715430550     0.000117898368    12.000000000000
         C           -1.193133505757    -0.291709430550     0.000117898368    12.000000000000
         C           -0.000004505757    -1.012179430550     0.006692898368    12.000000000000
         H           -2.157096505757     1.630704569450    -0.017804101632     1.007825032230
         H            2.157105494243     1.630691569450    -0.017806101632     1.007825032230
         H            0.000282594243     3.678876769450     1.025528998368     1.007825032230
         H            0.885500494243     3.718128569450    -0.485919101632     1.007825032230
         H           -0.885716505757     3.718136569450    -0.485464101632     1.007825032230
         H           -0.000006505757    -2.097440430550     0.010183898368     1.007825032230

  Basis Set: AUG-CC-PVTZ
    Blend: AUG-CC-PVTZ
  Basis Set: (AUG-CC-PVTZ AUX)
    Blend: AUG-CC-PVTZ-JKFIT
	 Reference Energy          =   -1187.7002847977184956 [Eh]
	 Singles Energy            =      -0.0000000000000000 [Eh]
	 Same-Spin Energy          =      -0.4298883184996509 [Eh]
	 Opposite-Spin Energy      =      -1.2999086116593257 [Eh]
	 Correlation Energy        =      -1.7297969301589766 [Eh]
	 Total Energy              =   -1189.4300817278774502 [Eh]

	 ================> DF-SCS-MP2 Energies <==================
	-----------------------------------------------------------
	 SCS Same-Spin Scale       =       0.3333333333333333 [-]
	 SCS Opposite-Spin Scale   =       1.2000000000000000 [-]
	 SCS Same-Spin Energy      =      -0.1432961061665503 [Eh]
	 SCS Opposite-Spin Energy  =      -1.5598903339911907 [Eh]
	 SCS Correlation Energy    =      -1.7031864401577410 [Eh]
	 SCS Total Energy          =   -1189.4034712378761469 [Eh]
	-----------------------------------------------------------

  Dipole Moment: [D]
     X:     0.0000      Y:     2.1446      Z:     0.0407     Total:     2.1449

*** Psi4 exiting successfully. Buy a developer a beer!
