                               Psi4 1.4a3.dev225

  ==> Input File <==

--------------------------------------------------------------------------
#psi4
#
memory 32 gb

molecule  {
0 1
 Cl        2.7008340    -1.2489210     0.0016850
 Cl       -2.7008440    -1.2489040     0.0016850
  C        0.0000030     1.7216440    -0.0170270
  C       -1.2072320     1.0139100    -0.0094880
  C        1.2072370     1.0139020    -0.0094890
  C        0.0000180     3.2280150     0.0131190
  C        1.1931300    -0.3798000    -0.0002610
  C       -1.1931340    -0.3797940    -0.0002610
  C       -0.0000050    -1.1002640     0.0063140
  H       -2.1570970     1.5426200    -0.0181830
  H        2.1571050     1.5426070    -0.0181850
  H        0.0002624     3.5637970     0.9498423
  H        0.8855000     3.6300440    -0.4862980
  H       -0.8857170     3.6300520    -0.4858430
  H       -0.0000070    -2.1855250     0.0098050
units angstrom
no_reorient  #important for SAPT in psi4, default
symmetry c1  #important for SAPT in psi4, default
}

set PROPERTIES_ORIGIN ["COM"]
properties('MP2/aug-cc-pvtz', properties = ['dipole'])
--------------------------------------------------------------------------

    Molecular point group: c1
  Charge       = 0
  Multiplicity = 1
  Basis Set: AUG-CC-PVTZ
    Blend: AUG-CC-PVTZ
  Basis Set: (AUG-CC-PVTZ AUX)
    Blend: AUG-CC-PVTZ-JKFIT

    Orbital Energies [Eh]
    ---------------------

    Doubly Occupied:

       1A   -104.849108     2A   -104.849108     3A    -11.318037
       4A    -11.318030     5A    -11.270552     6A    -11.260190
       7A    -11.254675     8A    -11.254620     9A    -11.229727
      10A    -10.572894    11A    -10.572894    12A     -8.039798
      13A     -8.039797    14A     -8.037871    15A     -8.037871
      16A     -8.037865    17A     -8.037864    18A     -1.211921
      19A     -1.160666    20A     -1.119240    21A     -1.045596
      22A     -0.997955    23A     -0.965978    24A     -0.822829
      25A     -0.818770    26A     -0.707699    27A     -0.681960
      28A     -0.627785    29A     -0.613819    30A     -0.594499
      31A     -0.593677    32A     -0.562687    33A     -0.559359
      34A     -0.525774    35A     -0.517125    36A     -0.510593
      37A     -0.465886    38A     -0.457689    39A     -0.452800
      40A     -0.346528    41A     -0.341688

  @DF-RHF Final Energy: -1187.69427098707843

   => Energetics <=

    Nuclear Repulsion Energy =            543.3004294774470964
    One-Electron Energy =               -2712.6225502425359082
    Two-Electron Energy =                 981.6278497780101588
    Total Energy =                      -1187.6942709870784256
  Basis Set: (AUG-CC-PVTZ AUX)
    Blend: AUG-CC-PVTZ-RI
    Molecular point group: c1

    Geometry (in Angstrom), charge = 0, multiplicity = 1:

       Center              X                  Y                   Z               Mass
    ------------   -----------------  -----------------  -----------------  -----------------
         CL           2.700834618343    -1.160666374002     0.002538300652    34.968852682000
         CL          -2.700843381657    -1.160649374002     0.002538300652    34.968852682000
         C            0.000003618343     1.809898625998    -0.016173699348    12.000000000000
         C           -1.207231381657     1.102164625998    -0.008634699348    12.000000000000
         C            1.207237618343     1.102156625998    -0.008635699348    12.000000000000
         C            0.000018618343     3.316269625998     0.013972300652    12.000000000000
         C            1.193130618343    -0.291545374002     0.000592300652    12.000000000000
         C           -1.193133381657    -0.291539374002     0.000592300652    12.000000000000
         C           -0.000004381657    -1.012009374002     0.007167300652    12.000000000000
         H           -2.157096381657     1.630874625998    -0.017329699348     1.007825032230
         H            2.157105618343     1.630861625998    -0.017331699348     1.007825032230
         H            0.000263018343     3.652051625998     0.950695600652     1.007825032230
         H            0.885500618343     3.718298625998    -0.485444699348     1.007825032230
         H           -0.885716381657     3.718306625998    -0.484989699348     1.007825032230
         H           -0.000006381657    -2.097270374002     0.010658300652     1.007825032230

  Basis Set: AUG-CC-PVTZ
    Blend: AUG-CC-PVTZ
  Basis Set: (AUG-CC-PVTZ AUX)
    Blend: AUG-CC-PVTZ-JKFIT
	 Reference Energy          =   -1187.6942709870784256 [Eh]
	 Singles Energy            =      -0.0000000000000000 [Eh]
	 Same-Spin Energy          =      -0.4299124539371232 [Eh]
	 Opposite-Spin Energy      =      -1.2995598521670546 [Eh]
	 Correlation Energy        =      -1.7294723061041779 [Eh]
	 Total Energy              =   -1189.4237432931824969 [Eh]

	 ================> DF-SCS-MP2 Energies <==================
	-----------------------------------------------------------
	 SCS Same-Spin Scale       =       0.3333333333333333 [-]
	 SCS Opposite-Spin Scale   =       1.2000000000000000 [-]
	 SCS Same-Spin Energy      =      -0.1433041513123744 [Eh]
	 SCS Opposite-Spin Energy  =      -1.5594718226004656 [Eh]
	 SCS Correlation Energy    =      -1.7027759739128399 [Eh]
	 SCS Total Energy          =   -1189.3970469609912470 [Eh]
	-----------------------------------------------------------

  Dipole Moment: [D]
     X:     0.0000      Y:     2.1648      Z:     0.0564     Total:     2.1655

*** Psi4 exiting successfully. Buy a developer a beer!
