                               Psi4 1.4a3.dev225

  ==> Input File <==

--------------------------------------------------------------------------
#psi4
#
memory 32 gb

molecule  {
0 1
 Cl        2.7008340    -1.2489210     0.0016850
 Cl       -2.7008440    -1.2489040     0.0016850
  C        0.0000030     1.7216440    -0.0170270
  C       -1.2072320     1.0139100    -0.0094880
  C        1.2072370     1.0139020    -0.0094890
  C        0.0000180     3.2280150     0.0131190
  C        1.1931300    -0.3798000    -0.0002610
  C       -1.1929317    -0.3997925    -0.0001286
  C       -0.0000050    -1.1002640     0.0063140
  H       -2.1570970     1.5426200    -0.0181830
  H        2.1571050     1.5426070    -0.0181850
  H        0.0002870     3.5975410     1.0439770
  H        0.8855000     3.6300440    -0.4862980
  H       -0.8857170     3.6300520    -0.4858430
  H       -0.0000070    -2.1855250     0.0098050
units angstrom
no_reorient  #important for SAPT in psi4, default
symmetry c1  #important for SAPT in psi4, default
}

set PROPERTIES_ORIGIN ["COM"]
properties('MP2/aug-cc-pvtz', properties = ['dipole'])
--------------------------------------------------------------------------

    Molecular point group: c1
  Charge       = 0
  Multiplicity = 1
  Basis Set: AUG-CC-PVTZ
    Blend: AUG-CC-PVTZ
  Basis Set: (AUG-CC-PVTZ AUX)
    Blend: AUG-CC-PVTZ-JKFIT

    Orbital Energies [Eh]
    ---------------------

    Doubly Occupied:

       1A   -104.850341     2A   -104.849197     3A    -11.318330
       4A    -11.318047     5A    -11.270474     6A    -11.259130
       7A    -11.256360     8A    -11.254874     9A    -11.241509
      10A    -10.574258    11A    -10.572971    12A     -8.041186
      13A     -8.039874    14A     -8.039228    15A     -8.039218
      16A     -8.037947    17A     -8.037941    18A     -1.211931
      19A     -1.161942    20A     -1.118580    21A     -1.044712
      22A     -0.995563    23A     -0.958142    24A     -0.824668
      25A     -0.813875    26A     -0.706712    27A     -0.681595
      28A     -0.628065    29A     -0.597805    30A     -0.595117
      31A     -0.592387    32A     -0.563677    33A     -0.556216
      34A     -0.524579    35A     -0.519056    36A     -0.511356
      37A     -0.465717    38A     -0.458312    39A     -0.451818
      40A     -0.347297    41A     -0.339214

  @DF-RHF Final Energy: -1187.69955118453504

   => Energetics <=

    Nuclear Repulsion Energy =            542.8087505419003946
    One-Electron Energy =               -2711.6781608659330232
    Two-Electron Energy =                 981.1698591394977029
    Total Energy =                      -1187.6995511845350393
  Basis Set: (AUG-CC-PVTZ AUX)
    Blend: AUG-CC-PVTZ-RI
    Molecular point group: c1

    Geometry (in Angstrom), charge = 0, multiplicity = 1:

       Center              X                  Y                   Z               Mass
    ------------   -----------------  -----------------  -----------------  -----------------
         CL           2.700819289420    -1.159378913330     0.001935367160    34.968852682000
         CL          -2.700858710580    -1.159361913330     0.001935367160    34.968852682000
         C           -0.000011710580     1.811186086670    -0.016776632840    12.000000000000
         C           -1.207246710580     1.103452086670    -0.009237632840    12.000000000000
         C            1.207222289420     1.103444086670    -0.009238632840    12.000000000000
         C            0.000003289420     3.317557086670     0.013369367160    12.000000000000
         C            1.193115289420    -0.290257913330    -0.000010632840    12.000000000000
         C           -1.192946410580    -0.310250413330     0.000121767160    12.000000000000
         C           -0.000019710580    -1.010721913330     0.006564367160    12.000000000000
         H           -2.157111710580     1.632162086670    -0.017932632840     1.007825032230
         H            2.157090289420     1.632149086670    -0.017934632840     1.007825032230
         H            0.000272289420     3.687083086670     1.044227367160     1.007825032230
         H            0.885485289420     3.719586086670    -0.486047632840     1.007825032230
         H           -0.885731710580     3.719594086670    -0.485592632840     1.007825032230
         H           -0.000021710580    -2.095982913330     0.010055367160     1.007825032230

  Basis Set: AUG-CC-PVTZ
    Blend: AUG-CC-PVTZ
  Basis Set: (AUG-CC-PVTZ AUX)
    Blend: AUG-CC-PVTZ-JKFIT
	 Reference Energy          =   -1187.6995511845350393 [Eh]
	 Singles Energy            =      -0.0000000000000000 [Eh]
	 Same-Spin Energy          =      -0.4299608171351686 [Eh]
	 Opposite-Spin Energy      =      -1.3001716575935462 [Eh]
	 Correlation Energy        =      -1.7301324747287148 [Eh]
	 Total Energy              =   -1189.4296836592636737 [Eh]

	 ================> DF-SCS-MP2 Energies <==================
	-----------------------------------------------------------
	 SCS Same-Spin Scale       =       0.3333333333333333 [-]
	 SCS Opposite-Spin Scale   =       1.2000000000000000 [-]
	 SCS Same-Spin Energy      =      -0.1433202723783895 [Eh]
	 SCS Opposite-Spin Energy  =      -1.5602059891122555 [Eh]
	 SCS Correlation Energy    =      -1.7035262614906450 [Eh]
	 SCS Total Energy          =   -1189.4030774460256907 [Eh]
	-----------------------------------------------------------

  Dipole Moment: [D]
     X:    -0.0408      Y:     2.1025      Z:     0.0355     Total:     2.1032

*** Psi4 exiting successfully. Buy a developer a beer!
