                               Psi4 1.4a3.dev225

  ==> Input File <==

--------------------------------------------------------------------------
#psi4
#
memory 32 gb

molecule  {
0 1
 Cl        2.7008340    -1.2489210     0.0016850
 Cl       -2.7008440    -1.2489040     0.0016850
  C        0.0000030     1.7216440    -0.0170270
  C       -1.2072320     1.0139100    -0.0094880
  C        1.2072370     1.0139020    -0.0094890
  C        0.0000180     3.2280150     0.0131190
  C        1.1931300    -0.3798000    -0.0002610
  C       -1.1931340    -0.3797940    -0.0002610
  C       -0.0000050    -1.1002640     0.0063140
  H       -2.1570970     1.5426200    -0.0181830
  H        2.1571050     1.5426070    -0.0181850
  H        0.0165489     3.5880317     1.0472043
  H        0.8855000     3.6300440    -0.4862980
  H       -0.8857170     3.6300520    -0.4858430
  H       -0.0000070    -2.1855250     0.0098050
units angstrom
no_reorient  #important for SAPT in psi4, default
symmetry c1  #important for SAPT in psi4, default
}

set PROPERTIES_ORIGIN ["COM"]
properties('MP2/aug-cc-pvtz', properties = ['dipole'])
--------------------------------------------------------------------------

    Molecular point group: c1
  Charge       = 0
  Multiplicity = 1
  Basis Set: AUG-CC-PVTZ
    Blend: AUG-CC-PVTZ
  Basis Set: (AUG-CC-PVTZ AUX)
    Blend: AUG-CC-PVTZ-JKFIT

    Orbital Energies [Eh]
    ---------------------

    Doubly Occupied:

       1A   -104.849228     2A   -104.849222     3A    -11.318198
       4A    -11.318189     5A    -11.271048     6A    -11.260346
       7A    -11.254890     8A    -11.254836     9A    -11.241913
      10A    -10.573014    11A    -10.573008    12A     -8.039917
      13A     -8.039911    14A     -8.037990    15A     -8.037984
      16A     -8.037983    17A     -8.037977    18A     -1.212040
      19A     -1.160793    20A     -1.118560    21A     -1.043655
      22A     -0.998140    23A     -0.958714    24A     -0.823025
      25A     -0.815736    26A     -0.707409    27A     -0.682272
      28A     -0.626609    29A     -0.598688    30A     -0.594666
      31A     -0.594070    32A     -0.563645    33A     -0.556093
      34A     -0.525531    35A     -0.517428    36A     -0.510713
      37A     -0.465980    38A     -0.457808    39A     -0.452084
      40A     -0.345952    41A     -0.341853

  @DF-RHF Final Energy: -1187.70023027242269

   => Energetics <=

    Nuclear Repulsion Energy =            542.8444251127177722
    One-Electron Energy =               -2711.7550769760046023
    Two-Electron Energy =                 981.2104215908644846
    Total Energy =                      -1187.7002302724226865
  Basis Set: (AUG-CC-PVTZ AUX)
    Blend: AUG-CC-PVTZ-RI
    Molecular point group: c1

    Geometry (in Angstrom), charge = 0, multiplicity = 1:

       Center              X                  Y                   Z               Mass
    ------------   -----------------  -----------------  -----------------  -----------------
         CL           2.700732021364    -1.160819040751     0.001924967701    34.968852682000
         CL          -2.700945978636    -1.160802040751     0.001924967701    34.968852682000
         C           -0.000098978636     1.809745959249    -0.016787032299    12.000000000000
         C           -1.207333978636     1.102011959249    -0.009248032299    12.000000000000
         C            1.207135021364     1.102003959249    -0.009249032299    12.000000000000
         C           -0.000083978636     3.316116959249     0.013358967701    12.000000000000
         C            1.193028021364    -0.291698040751    -0.000021032299    12.000000000000
         C           -1.193235978636    -0.291692040751    -0.000021032299    12.000000000000
         C           -0.000106978636    -1.012162040751     0.006553967701    12.000000000000
         H           -2.157198978636     1.630721959249    -0.017943032299     1.007825032230
         H            2.157003021364     1.630708959249    -0.017945032299     1.007825032230
         H            0.016446921364     3.676133659249     1.047444267701     1.007825032230
         H            0.885398021364     3.718145959249    -0.486058032299     1.007825032230
         H           -0.885818978636     3.718153959249    -0.485603032299     1.007825032230
         H           -0.000108978636    -2.097423040751     0.010044967701     1.007825032230

  Basis Set: AUG-CC-PVTZ
    Blend: AUG-CC-PVTZ
  Basis Set: (AUG-CC-PVTZ AUX)
    Blend: AUG-CC-PVTZ-JKFIT
	 Reference Energy          =   -1187.7002302724226865 [Eh]
	 Singles Energy            =      -0.0000000000000000 [Eh]
	 Same-Spin Energy          =      -0.4298905076263779 [Eh]
	 Opposite-Spin Energy      =      -1.3000321633158416 [Eh]
	 Correlation Energy        =      -1.7299226709422195 [Eh]
	 Total Energy              =   -1189.4301529433648739 [Eh]

	 ================> DF-SCS-MP2 Energies <==================
	-----------------------------------------------------------
	 SCS Same-Spin Scale       =       0.3333333333333333 [-]
	 SCS Opposite-Spin Scale   =       1.2000000000000000 [-]
	 SCS Same-Spin Energy      =      -0.1432968358754593 [Eh]
	 SCS Opposite-Spin Energy  =      -1.5600385959790100 [Eh]
	 SCS Correlation Energy    =      -1.7033354318544693 [Eh]
	 SCS Total Energy          =   -1189.4035657042770708 [Eh]
	-----------------------------------------------------------

  Dipole Moment: [D]
     X:     0.0062      Y:     2.1393      Z:     0.0351     Total:     2.1396

*** Psi4 exiting successfully. Buy a developer a beer!
