                               Psi4 1.4a3.dev225

  ==> Input File <==

--------------------------------------------------------------------------
#psi4
#
memory 32 gb

molecule  {
0 1
 Cl        2.7008340    -1.2489210     0.0016850
 Cl       -2.7008440    -1.2489040     0.0016850
  C        0.0000030     1.7216440    -0.0170270
  C       -1.2072320     1.0139100    -0.0094880
  C        1.2072370     1.0139020    -0.0094890
  C        0.0000180     3.2280150     0.0131190
  C        1.1931300    -0.3798000    -0.0002610
  C       -1.1931340    -0.3797940    -0.0002610
  C       -0.1712109    -1.2036451     0.0072575
  H       -2.1570970     1.5426200    -0.0181830
  H        2.1571050     1.5426070    -0.0181850
  H        0.0002870     3.5975410     1.0439770
  H        0.8855000     3.6300440    -0.4862980
  H       -0.8857170     3.6300520    -0.4858430
  H       -0.0000070    -2.1855250     0.0098050
units angstrom
no_reorient  #important for SAPT in psi4, default
symmetry c1  #important for SAPT in psi4, default
}

set PROPERTIES_ORIGIN ["COM"]
properties('MP2/aug-cc-pvtz', properties = ['dipole'])
--------------------------------------------------------------------------

    Molecular point group: c1
  Charge       = 0
  Multiplicity = 1
  Basis Set: AUG-CC-PVTZ
    Blend: AUG-CC-PVTZ
  Basis Set: (AUG-CC-PVTZ AUX)
    Blend: AUG-CC-PVTZ-JKFIT

    Orbital Energies [Eh]
    ---------------------

    Doubly Occupied:

       1A   -104.853155     2A   -104.838862     3A    -11.334458
       4A    -11.312240     5A    -11.275490     6A    -11.264618
       7A    -11.256410     8A    -11.253514     9A    -11.243597
      10A    -10.576696    11A    -10.563523    12A     -8.043580
      13A     -8.041692    14A     -8.041658    15A     -8.030406
      16A     -8.028486    17A     -8.028457    18A     -1.209582
      19A     -1.160318    20A     -1.119507    21A     -1.037402
      22A     -0.996181    23A     -0.964459    24A     -0.824014
      25A     -0.811390    26A     -0.722324    27A     -0.681718
      28A     -0.631169    29A     -0.607463    30A     -0.598133
      31A     -0.588903    32A     -0.561865    33A     -0.553547
      34A     -0.536768    35A     -0.510655    36A     -0.502146
      37A     -0.464309    38A     -0.449114    39A     -0.444743
      40A     -0.358650    41A     -0.328808

  @DF-RHF Final Energy: -1187.65861517009807

   => Energetics <=

    Nuclear Repulsion Energy =            541.4221665993505894
    One-Electron Energy =               -2708.8615404963129549
    Two-Electron Energy =                 979.7807587268644056
    Total Energy =                      -1187.6586151700980736
  Basis Set: (AUG-CC-PVTZ AUX)
    Blend: AUG-CC-PVTZ-RI
    Molecular point group: c1

    Geometry (in Angstrom), charge = 0, multiplicity = 1:

       Center              X                  Y                   Z               Mass
    ------------   -----------------  -----------------  -----------------  -----------------
         CL           2.713676137427    -1.153124618526     0.001874528825    34.968852682000
         CL          -2.688001862573    -1.153107618526     0.001874528825    34.968852682000
         C            0.012845137427     1.817440381474    -0.016837471175    12.000000000000
         C           -1.194389862573     1.109706381474    -0.009298471175    12.000000000000
         C            1.220079137427     1.109698381474    -0.009299471175    12.000000000000
         C            0.012860137427     3.323811381474     0.013308528825    12.000000000000
         C            1.205972137427    -0.284003618526    -0.000071471175    12.000000000000
         C           -1.180291862573    -0.283997618526    -0.000071471175    12.000000000000
         C           -0.158368762573    -1.107848718526     0.007447028825    12.000000000000
         H           -2.144254862573     1.638416381474    -0.017993471175     1.007825032230
         H            2.169947137427     1.638403381474    -0.017995471175     1.007825032230
         H            0.013129137427     3.693337381474     1.044166528825     1.007825032230
         H            0.898342137427     3.725840381474    -0.486108471175     1.007825032230
         H           -0.872874862573     3.725848381474    -0.485653471175     1.007825032230
         H            0.012835137427    -2.089728618526     0.009994528825     1.007825032230

  Basis Set: AUG-CC-PVTZ
    Blend: AUG-CC-PVTZ
  Basis Set: (AUG-CC-PVTZ AUX)
    Blend: AUG-CC-PVTZ-JKFIT
	 Reference Energy          =   -1187.6586151700980736 [Eh]
	 Singles Energy            =      -0.0000000000000000 [Eh]
	 Same-Spin Energy          =      -0.4296349176791247 [Eh]
	 Opposite-Spin Energy      =      -1.3022600306880510 [Eh]
	 Correlation Energy        =      -1.7318949483671757 [Eh]
	 Total Energy              =   -1189.3905101184652722 [Eh]

	 ================> DF-SCS-MP2 Energies <==================
	-----------------------------------------------------------
	 SCS Same-Spin Scale       =       0.3333333333333333 [-]
	 SCS Opposite-Spin Scale   =       1.2000000000000000 [-]
	 SCS Same-Spin Energy      =      -0.1432116392263749 [Eh]
	 SCS Opposite-Spin Energy  =      -1.5627120368256611 [Eh]
	 SCS Correlation Energy    =      -1.7059236760520360 [Eh]
	 SCS Total Energy          =   -1189.3645388461500261 [Eh]
	-----------------------------------------------------------

  Dipole Moment: [D]
     X:     0.3300      Y:     2.2155      Z:     0.0357     Total:     2.2402

*** Psi4 exiting successfully. Buy a developer a beer!
