                               Psi4 1.4a3.dev225

  ==> Input File <==

--------------------------------------------------------------------------
#psi4
#
memory 32 gb

molecule  {
0 1
 Cl        2.7008340    -1.2489210     0.0016850
 Cl       -2.7008440    -1.2489040     0.0016850
  C        0.0000030     1.7216440    -0.0170270
  C       -1.2072320     1.0139100    -0.0094880
  C        1.2072370     1.0139020    -0.0094890
  C        0.0000180     3.2280150     0.0131190
  C        1.1931300    -0.3798000    -0.0002610
  C       -1.1931340    -0.3797940    -0.0002610
  C       -0.0000050    -1.1002640     0.0063140
  H       -2.1570970     1.5426200    -0.0181830
  H        2.1571050     1.5426070    -0.0181850
  H        0.0652848     3.5588575     1.0549929
  H        0.8855000     3.6300440    -0.4862980
  H       -0.8857170     3.6300520    -0.4858430
  H       -0.0000070    -2.1855250     0.0098050
units angstrom
no_reorient  #important for SAPT in psi4, default
symmetry c1  #important for SAPT in psi4, default
}

set PROPERTIES_ORIGIN ["COM"]
properties('MP2/aug-cc-pvtz', properties = ['dipole'])
--------------------------------------------------------------------------

    Molecular point group: c1
  Charge       = 0
  Multiplicity = 1
  Basis Set: AUG-CC-PVTZ
    Blend: AUG-CC-PVTZ
  Basis Set: (AUG-CC-PVTZ AUX)
    Blend: AUG-CC-PVTZ-JKFIT

    Orbital Energies [Eh]
    ---------------------

    Doubly Occupied:

       1A   -104.849183     2A   -104.849157     3A    -11.318163
       4A    -11.318138     5A    -11.270869     6A    -11.260111
       7A    -11.254668     8A    -11.254614     9A    -11.242133
      10A    -10.572969    11A    -10.572943    12A     -8.039873
      13A     -8.039846    14A     -8.037946    15A     -8.037939
      16A     -8.037919    17A     -8.037912    18A     -1.211954
      19A     -1.160724    20A     -1.118639    21A     -1.043747
      22A     -0.998039    23A     -0.958754    24A     -0.822945
      25A     -0.815271    26A     -0.707220    27A     -0.682262
      28A     -0.626314    29A     -0.600652    30A     -0.594554
      31A     -0.593757    32A     -0.564241    33A     -0.555659
      34A     -0.524808    35A     -0.517312    36A     -0.510650
      37A     -0.465850    38A     -0.457747    39A     -0.451974
      40A     -0.345703    41A     -0.341805

  @DF-RHF Final Energy: -1187.69973671260959

   => Energetics <=

    Nuclear Repulsion Energy =            542.8987931673134426
    One-Electron Energy =               -2711.8671249716153397
    Two-Electron Energy =                 981.2685950916920774
    Total Energy =                      -1187.6997367126095924
  Basis Set: (AUG-CC-PVTZ AUX)
    Blend: AUG-CC-PVTZ-RI
    Molecular point group: c1

    Geometry (in Angstrom), charge = 0, multiplicity = 1:

       Center              X                  Y                   Z               Mass
    ------------   -----------------  -----------------  -----------------  -----------------
         CL           2.700425009046    -1.160635257569     0.001875903333    34.968852682000
         CL          -2.701252990954    -1.160618257569     0.001875903333    34.968852682000
         C           -0.000405990954     1.809929742431    -0.016836096667    12.000000000000
         C           -1.207640990954     1.102195742431    -0.009297096667    12.000000000000
         C            1.206828009046     1.102187742431    -0.009298096667    12.000000000000
         C           -0.000390990954     3.316300742431     0.013309903333    12.000000000000
         C            1.192721009046    -0.291514257569    -0.000070096667    12.000000000000
         C           -1.193542990954    -0.291508257569    -0.000070096667    12.000000000000
         C           -0.000413990954    -1.011978257569     0.006504903333    12.000000000000
         H           -2.157505990954     1.630905742431    -0.017992096667     1.007825032230
         H            2.156696009046     1.630892742431    -0.017994096667     1.007825032230
         H            0.064875809046     3.647143242431     1.055183803333     1.007825032230
         H            0.885091009046     3.718329742431    -0.486107096667     1.007825032230
         H           -0.886125990954     3.718337742431    -0.485652096667     1.007825032230
         H           -0.000415990954    -2.097239257569     0.009995903333     1.007825032230

  Basis Set: AUG-CC-PVTZ
    Blend: AUG-CC-PVTZ
  Basis Set: (AUG-CC-PVTZ AUX)
    Blend: AUG-CC-PVTZ-JKFIT
	 Reference Energy          =   -1187.6997367126095924 [Eh]
	 Singles Energy            =      -0.0000000000000000 [Eh]
	 Same-Spin Energy          =      -0.4299233713448021 [Eh]
	 Opposite-Spin Energy      =      -1.3000870793950545 [Eh]
	 Correlation Energy        =      -1.7300104507398566 [Eh]
	 Total Energy              =   -1189.4297471633494752 [Eh]

	 ================> DF-SCS-MP2 Energies <==================
	-----------------------------------------------------------
	 SCS Same-Spin Scale       =       0.3333333333333333 [-]
	 SCS Opposite-Spin Scale   =       1.2000000000000000 [-]
	 SCS Same-Spin Energy      =      -0.1433077904482674 [Eh]
	 SCS Opposite-Spin Energy  =      -1.5601044952740655 [Eh]
	 SCS Correlation Energy    =      -1.7034122857223328 [Eh]
	 SCS Total Energy          =   -1189.4031489983319716 [Eh]
	-----------------------------------------------------------

  Dipole Moment: [D]
     X:     0.0243      Y:     2.1447      Z:     0.0330     Total:     2.1451

*** Psi4 exiting successfully. Buy a developer a beer!
