                               Psi4 1.4a3.dev225

  ==> Input File <==

--------------------------------------------------------------------------
#psi4
#
memory 32 gb

molecule  {
0 1
 Cl        2.7008340    -1.2489210     0.0016850
 Cl       -2.7008440    -1.2489040     0.0016850
  C        0.0000030     1.7216440    -0.0170270
  C       -1.2072320     1.0139100    -0.0094880
  C        1.3044244     1.0095220    -0.0096080
  C        0.0000180     3.2280150     0.0131190
  C        1.1931300    -0.3798000    -0.0002610
  C       -1.1931340    -0.3797940    -0.0002610
  C       -0.0000050    -1.1002640     0.0063140
  H       -2.1570970     1.5426200    -0.0181830
  H        2.1571050     1.5426070    -0.0181850
  H        0.0002870     3.5975410     1.0439770
  H        0.8855000     3.6300440    -0.4862980
  H       -0.8857170     3.6300520    -0.4858430
  H       -0.0000070    -2.1855250     0.0098050
units angstrom
no_reorient  #important for SAPT in psi4, default
symmetry c1  #important for SAPT in psi4, default
}

set PROPERTIES_ORIGIN ["COM"]
properties('MP2/aug-cc-pvtz', properties = ['dipole'])
--------------------------------------------------------------------------

    Molecular point group: c1
  Charge       = 0
  Multiplicity = 1
  Basis Set: AUG-CC-PVTZ
    Blend: AUG-CC-PVTZ
  Basis Set: (AUG-CC-PVTZ AUX)
    Blend: AUG-CC-PVTZ-JKFIT

    Orbital Energies [Eh]
    ---------------------

    Doubly Occupied:

       1A   -104.850785     2A   -104.844496     3A    -11.321252
       4A    -11.320238     5A    -11.281620     6A    -11.260403
       7A    -11.257461     8A    -11.254942     9A    -11.242181
      10A    -10.574566    11A    -10.568652    12A     -8.041465
      13A     -8.039542    14A     -8.039526    15A     -8.035546
      16A     -8.033628    17A     -8.033626    18A     -1.209333
      19A     -1.161718    20A     -1.111011    21A     -1.042337
      22A     -0.999407    23A     -0.958814    24A     -0.828399
      25A     -0.807351    26A     -0.717977    27A     -0.678910
      28A     -0.631487    29A     -0.603255    30A     -0.596711
      31A     -0.593576    32A     -0.566971    33A     -0.555555
      34A     -0.531239    35A     -0.510549    36A     -0.507679
      37A     -0.464295    38A     -0.455706    39A     -0.447932
      40A     -0.345812    41A     -0.338027

  @DF-RHF Final Energy: -1187.68707177949523

   => Energetics <=

    Nuclear Repulsion Energy =            541.6018138658807857
    One-Electron Energy =               -2709.2498121153585089
    Two-Electron Energy =                 979.9609264699822688
    Total Energy =                      -1187.6870717794952270
  Basis Set: (AUG-CC-PVTZ AUX)
    Blend: AUG-CC-PVTZ-RI
    Molecular point group: c1

    Geometry (in Angstrom), charge = 0, multiplicity = 1:

       Center              X                  Y                   Z               Mass
    ------------   -----------------  -----------------  -----------------  -----------------
         CL           2.693544709268    -1.160550413180     0.001954223968    34.968852682000
         CL          -2.708133290732    -1.160533413180     0.001954223968    34.968852682000
         C           -0.007286290732     1.810014586820    -0.016757776032    12.000000000000
         C           -1.214521290732     1.102280586820    -0.009218776032    12.000000000000
         C            1.297135109268     1.097892586820    -0.009338776032    12.000000000000
         C           -0.007271290732     3.316385586820     0.013388223968    12.000000000000
         C            1.185840709268    -0.291429413180     0.000008223968    12.000000000000
         C           -1.200423290732    -0.291423413180     0.000008223968    12.000000000000
         C           -0.007294290732    -1.011893413180     0.006583223968    12.000000000000
         H           -2.164386290732     1.630990586820    -0.017913776032     1.007825032230
         H            2.149815709268     1.630977586820    -0.017915776032     1.007825032230
         H           -0.007002290732     3.685911586820     1.044246223968     1.007825032230
         H            0.878210709268     3.718414586820    -0.486028776032     1.007825032230
         H           -0.893006290732     3.718422586820    -0.485573776032     1.007825032230
         H           -0.007296290732    -2.097154413180     0.010074223968     1.007825032230

  Basis Set: AUG-CC-PVTZ
    Blend: AUG-CC-PVTZ
  Basis Set: (AUG-CC-PVTZ AUX)
    Blend: AUG-CC-PVTZ-JKFIT
	 Reference Energy          =   -1187.6870717794952270 [Eh]
	 Singles Energy            =      -0.0000000000000000 [Eh]
	 Same-Spin Energy          =      -0.4299116898474676 [Eh]
	 Opposite-Spin Energy      =      -1.3008083715243708 [Eh]
	 Correlation Energy        =      -1.7307200613718383 [Eh]
	 Total Energy              =   -1189.4177918408670394 [Eh]

	 ================> DF-SCS-MP2 Energies <==================
	-----------------------------------------------------------
	 SCS Same-Spin Scale       =       0.3333333333333333 [-]
	 SCS Opposite-Spin Scale   =       1.2000000000000000 [-]
	 SCS Same-Spin Energy      =      -0.1433038966158225 [Eh]
	 SCS Opposite-Spin Energy  =      -1.5609700458292448 [Eh]
	 SCS Correlation Energy    =      -1.7042739424450672 [Eh]
	 SCS Total Energy          =   -1189.3913457219402972 [Eh]
	-----------------------------------------------------------

  Dipole Moment: [D]
     X:    -0.1049      Y:     2.2122      Z:     0.0373     Total:     2.2150

*** Psi4 exiting successfully. Buy a developer a beer!
