                               Psi4 1.4a3.dev225

  ==> Input File <==

--------------------------------------------------------------------------
#psi4
#
memory 32 gb

molecule  {
0 1
 Cl        2.7008340    -1.2489210     0.0016850
 Cl       -2.7008440    -1.2489040     0.0016850
  C        0.0000030     1.7216440    -0.0170270
  C       -1.2072320     1.0139100    -0.0094880
  C        1.2558689     1.0125602    -0.0095541
  C        0.0000180     3.2280150     0.0131190
  C        1.1931300    -0.3798000    -0.0002610
  C       -1.1931340    -0.3797940    -0.0002610
  C       -0.0000050    -1.1002640     0.0063140
  H       -2.1570970     1.5426200    -0.0181830
  H        2.1571050     1.5426070    -0.0181850
  H        0.0002870     3.5975410     1.0439770
  H        0.8855000     3.6300440    -0.4862980
  H       -0.8857170     3.6300520    -0.4858430
  H       -0.0000070    -2.1855250     0.0098050
units angstrom
no_reorient  #important for SAPT in psi4, default
symmetry c1  #important for SAPT in psi4, default
}

set PROPERTIES_ORIGIN ["COM"]
properties('MP2/aug-cc-pvtz', properties = ['dipole'])
--------------------------------------------------------------------------

    Molecular point group: c1
  Charge       = 0
  Multiplicity = 1
  Basis Set: AUG-CC-PVTZ
    Blend: AUG-CC-PVTZ
  Basis Set: (AUG-CC-PVTZ AUX)
    Blend: AUG-CC-PVTZ-JKFIT

    Orbital Energies [Eh]
    ---------------------

    Doubly Occupied:

       1A   -104.849975     2A   -104.846873     3A    -11.319686
       4A    -11.319065     5A    -11.276534     6A    -11.260356
       7A    -11.256141     8A    -11.254900     9A    -11.241983
      10A    -10.573759    11A    -10.570841    12A     -8.040659
      13A     -8.038735    14A     -8.038723    15A     -8.037740
      16A     -8.035818    17A     -8.035814    18A     -1.210506
      19A     -1.161223    20A     -1.114554    21A     -1.042885
      22A     -0.998805    23A     -0.958616    24A     -0.824989
      25A     -0.811805    26A     -0.712359    27A     -0.680419
      28A     -0.628533    29A     -0.599659    30A     -0.597292
      31A     -0.593759    32A     -0.565647    33A     -0.555713
      34A     -0.528319    35A     -0.513617    36A     -0.510598
      37A     -0.465071    38A     -0.457123    39A     -0.449873
      40A     -0.344756    41A     -0.340928

  @DF-RHF Final Energy: -1187.69679395776461

   => Energetics <=

    Nuclear Repulsion Energy =            542.1939617352079495
    One-Electron Energy =               -2710.4522125246071482
    Two-Electron Energy =                 980.5614568316348141
    Total Energy =                      -1187.6967939577646121
  Basis Set: (AUG-CC-PVTZ AUX)
    Blend: AUG-CC-PVTZ-RI
    Molecular point group: c1

    Geometry (in Angstrom), charge = 0, multiplicity = 1:

       Center              X                  Y                   Z               Mass
    ------------   -----------------  -----------------  -----------------  -----------------
         CL           2.697186721047    -1.160778300035     0.001950181080    34.968852682000
         CL          -2.704491278953    -1.160761300035     0.001950181080    34.968852682000
         C           -0.003644278953     1.809786699965    -0.016761818920    12.000000000000
         C           -1.210879278953     1.102052699965    -0.009222818920    12.000000000000
         C            1.252221621047     1.100702899965    -0.009288918920    12.000000000000
         C           -0.003629278953     3.316157699965     0.013384181080    12.000000000000
         C            1.189482721047    -0.291657300035     0.000004181080    12.000000000000
         C           -1.196781278953    -0.291651300035     0.000004181080    12.000000000000
         C           -0.003652278953    -1.012121300035     0.006579181080    12.000000000000
         H           -2.160744278953     1.630762699965    -0.017917818920     1.007825032230
         H            2.153457721047     1.630749699965    -0.017919818920     1.007825032230
         H           -0.003360278953     3.685683699965     1.044242181080     1.007825032230
         H            0.881852721047     3.718186699965    -0.486032818920     1.007825032230
         H           -0.889364278953     3.718194699965    -0.485577818920     1.007825032230
         H           -0.003654278953    -2.097382300035     0.010070181080     1.007825032230

  Basis Set: AUG-CC-PVTZ
    Blend: AUG-CC-PVTZ
  Basis Set: (AUG-CC-PVTZ AUX)
    Blend: AUG-CC-PVTZ-JKFIT
	 Reference Energy          =   -1187.6967939577646121 [Eh]
	 Singles Energy            =      -0.0000000000000000 [Eh]
	 Same-Spin Energy          =      -0.4298624130043684 [Eh]
	 Opposite-Spin Energy      =      -1.3002451507646513 [Eh]
	 Correlation Energy        =      -1.7301075637690198 [Eh]
	 Total Energy              =   -1189.4269015215336367 [Eh]

	 ================> DF-SCS-MP2 Energies <==================
	-----------------------------------------------------------
	 SCS Same-Spin Scale       =       0.3333333333333333 [-]
	 SCS Opposite-Spin Scale   =       1.2000000000000000 [-]
	 SCS Same-Spin Energy      =      -0.1432874710014561 [Eh]
	 SCS Opposite-Spin Energy  =      -1.5602941809175814 [Eh]
	 SCS Correlation Energy    =      -1.7035816519190377 [Eh]
	 SCS Total Energy          =   -1189.4003756096835787 [Eh]
	-----------------------------------------------------------

  Dipole Moment: [D]
     X:    -0.0487      Y:     2.1777      Z:     0.0363     Total:     2.1785

*** Psi4 exiting successfully. Buy a developer a beer!
