                               Psi4 1.4a3.dev225

  ==> Input File <==

--------------------------------------------------------------------------
#psi4
#
memory 32 gb

molecule  {
0 1
 Cl        2.7008340    -1.2489210     0.0016850
 Cl       -2.7008440    -1.2489040     0.0016850
  C        0.0000030     1.7216440    -0.0170270
  C       -1.2072320     1.0139100    -0.0094880
  C        1.1818159     0.9722118    -0.0107803
  C        0.0000180     3.2280150     0.0131190
  C        1.1931300    -0.3798000    -0.0002610
  C       -1.1931340    -0.3797940    -0.0002610
  C       -0.0000050    -1.1002640     0.0063140
  H       -2.1570970     1.5426200    -0.0181830
  H        2.1571050     1.5426070    -0.0181850
  H        0.0002870     3.5975410     1.0439770
  H        0.8855000     3.6300440    -0.4862980
  H       -0.8857170     3.6300520    -0.4858430
  H       -0.0000070    -2.1855250     0.0098050
units angstrom
no_reorient  #important for SAPT in psi4, default
symmetry c1  #important for SAPT in psi4, default
}

set PROPERTIES_ORIGIN ["COM"]
properties('MP2/aug-cc-pvtz', properties = ['dipole'])
--------------------------------------------------------------------------

    Molecular point group: c1
  Charge       = 0
  Multiplicity = 1
  Basis Set: AUG-CC-PVTZ
    Blend: AUG-CC-PVTZ
  Basis Set: (AUG-CC-PVTZ AUX)
    Blend: AUG-CC-PVTZ-JKFIT

    Orbital Energies [Eh]
    ---------------------

    Doubly Occupied:

       1A   -104.849486     2A   -104.848639     3A    -11.317003
       4A    -11.313100     5A    -11.271166     6A    -11.260217
       7A    -11.254884     8A    -11.253847     9A    -11.243381
      10A    -10.573241    11A    -10.572425    12A     -8.040147
      13A     -8.039331    14A     -8.038208    15A     -8.038206
      16A     -8.037401    17A     -8.037398    18A     -1.215171
      19A     -1.161628    20A     -1.118855    21A     -1.044235
      22A     -1.000623    23A     -0.959909    24A     -0.823157
      25A     -0.818116    26A     -0.703541    27A     -0.684703
      28A     -0.625795    29A     -0.599309    30A     -0.594898
      31A     -0.589448    32A     -0.562716    33A     -0.557910
      34A     -0.529889    35A     -0.511418    36A     -0.510426
      37A     -0.467143    38A     -0.457768    39A     -0.453180
      40A     -0.345956    41A     -0.344335

  @DF-RHF Final Energy: -1187.69750928319377

   => Energetics <=

    Nuclear Repulsion Energy =            543.6689871219517727
    One-Electron Energy =               -2713.3965764743447835
    Two-Electron Energy =                 982.0300800691990162
    Total Energy =                      -1187.6975092831939946
  Basis Set: (AUG-CC-PVTZ AUX)
    Blend: AUG-CC-PVTZ-RI
    Molecular point group: c1

    Geometry (in Angstrom), charge = 0, multiplicity = 1:

       Center              X                  Y                   Z               Mass
    ------------   -----------------  -----------------  -----------------  -----------------
         CL           2.702741228739    -1.157751879793     0.002042154901    34.968852682000
         CL          -2.698936771261    -1.157734879793     0.002042154901    34.968852682000
         C            0.001910228739     1.812813120207    -0.016669845099    12.000000000000
         C           -1.205324771261     1.105079120207    -0.009130845099    12.000000000000
         C            1.183723128739     1.063380920207    -0.010423145099    12.000000000000
         C            0.001925228739     3.319184120207     0.013476154901    12.000000000000
         C            1.195037228739    -0.288630879793     0.000096154901    12.000000000000
         C           -1.191226771261    -0.288624879793     0.000096154901    12.000000000000
         C            0.001902228739    -1.009094879793     0.006671154901    12.000000000000
         H           -2.155189771261     1.633789120207    -0.017825845099     1.007825032230
         H            2.159012228739     1.633776120207    -0.017827845099     1.007825032230
         H            0.002194228739     3.688710120207     1.044334154901     1.007825032230
         H            0.887407228739     3.721213120207    -0.485940845099     1.007825032230
         H           -0.883809771261     3.721221120207    -0.485485845099     1.007825032230
         H            0.001900228739    -2.094355879793     0.010162154901     1.007825032230

  Basis Set: AUG-CC-PVTZ
    Blend: AUG-CC-PVTZ
  Basis Set: (AUG-CC-PVTZ AUX)
    Blend: AUG-CC-PVTZ-JKFIT
	 Reference Energy          =   -1187.6975092831937673 [Eh]
	 Singles Energy            =      -0.0000000000000000 [Eh]
	 Same-Spin Energy          =      -0.4299363497331037 [Eh]
	 Opposite-Spin Energy      =      -1.2999620951977566 [Eh]
	 Correlation Energy        =      -1.7298984449308603 [Eh]
	 Total Energy              =   -1189.4274077281245354 [Eh]

	 ================> DF-SCS-MP2 Energies <==================
	-----------------------------------------------------------
	 SCS Same-Spin Scale       =       0.3333333333333333 [-]
	 SCS Opposite-Spin Scale   =       1.2000000000000000 [-]
	 SCS Same-Spin Energy      =      -0.1433121165777012 [Eh]
	 SCS Opposite-Spin Energy  =      -1.5599545142373079 [Eh]
	 SCS Correlation Energy    =      -1.7032666308150091 [Eh]
	 SCS Total Energy          =   -1189.4007759140088183 [Eh]
	-----------------------------------------------------------

  Dipole Moment: [D]
     X:    -0.0108      Y:     2.1715      Z:     0.0365     Total:     2.1718

*** Psi4 exiting successfully. Buy a developer a beer!
