                               Psi4 1.4a3.dev225

  ==> Input File <==

--------------------------------------------------------------------------
#psi4
#
memory 32 gb

molecule  {
0 1
 Cl        2.7008340    -1.2489210     0.0016850
 Cl       -2.7008440    -1.2489040     0.0016850
  C       -0.0228190     1.7221350    -0.0300807
  C       -1.2072320     1.0139100    -0.0094880
  C        1.2072370     1.0139020    -0.0094890
  C        0.0000180     3.2280150     0.0131190
  C        1.1931300    -0.3798000    -0.0002610
  C       -1.1931340    -0.3797940    -0.0002610
  C       -0.0000050    -1.1002640     0.0063140
  H       -2.1570970     1.5426200    -0.0181830
  H        2.1571050     1.5426070    -0.0181850
  H        0.0002870     3.5975410     1.0439770
  H        0.8855000     3.6300440    -0.4862980
  H       -0.8857170     3.6300520    -0.4858430
  H       -0.0000070    -2.1855250     0.0098050
units angstrom
no_reorient  #important for SAPT in psi4, default
symmetry c1  #important for SAPT in psi4, default
}

set PROPERTIES_ORIGIN ["COM"]
properties('MP2/aug-cc-pvtz', properties = ['dipole'])
--------------------------------------------------------------------------

    Molecular point group: c1
  Charge       = 0
  Multiplicity = 1
  Basis Set: AUG-CC-PVTZ
    Blend: AUG-CC-PVTZ
  Basis Set: (AUG-CC-PVTZ AUX)
    Blend: AUG-CC-PVTZ-JKFIT

    Orbital Energies [Eh]
    ---------------------

    Doubly Occupied:

       1A   -104.849495     2A   -104.849005     3A    -11.318526
       4A    -11.317888     5A    -11.271058     6A    -11.260524
       7A    -11.256814     8A    -11.253097     9A    -11.241855
      10A    -10.573269    11A    -10.572802    12A     -8.040172
      13A     -8.039706    14A     -8.038245    15A     -8.038238
      16A     -8.037778    17A     -8.037773    18A     -1.212083
      19A     -1.160828    20A     -1.118596    21A     -1.043681
      22A     -0.998154    23A     -0.958666    24A     -0.823969
      25A     -0.814986    26A     -0.707499    27A     -0.682220
      28A     -0.626751    29A     -0.598548    30A     -0.595744
      31A     -0.592698    32A     -0.563555    33A     -0.555968
      34A     -0.527141    35A     -0.515749    36A     -0.510747
      37A     -0.465995    38A     -0.457817    39A     -0.452126
      40A     -0.347349    41A     -0.340689

  @DF-RHF Final Energy: -1187.69949198043378

   => Energetics <=

    Nuclear Repulsion Energy =            542.8162028822100638
    One-Electron Energy =               -2711.6957791802324209
    Two-Electron Energy =                 981.1800843175886939
    Total Energy =                      -1187.6994919804337769
  Basis Set: (AUG-CC-PVTZ AUX)
    Blend: AUG-CC-PVTZ-RI
    Molecular point group: c1

    Geometry (in Angstrom), charge = 0, multiplicity = 1:

       Center              X                  Y                   Z               Mass
    ------------   -----------------  -----------------  -----------------  -----------------
         CL           2.702546277543    -1.160915773219     0.002924419512    34.968852682000
         CL          -2.699131722457    -1.160898773219     0.002924419512    34.968852682000
         C           -0.021106722457     1.810140226781    -0.028841280488    12.000000000000
         C           -1.205519722457     1.101915226781    -0.008248580488    12.000000000000
         C            1.208949277543     1.101907226781    -0.008249580488    12.000000000000
         C            0.001730277543     3.316020226781     0.014358419512    12.000000000000
         C            1.194842277543    -0.291794773219     0.000978419512    12.000000000000
         C           -1.191421722457    -0.291788773219     0.000978419512    12.000000000000
         C            0.001707277543    -1.012258773219     0.007553419512    12.000000000000
         H           -2.155384722457     1.630625226781    -0.016943580488     1.007825032230
         H            2.158817277543     1.630612226781    -0.016945580488     1.007825032230
         H            0.001999277543     3.685546226781     1.045216419512     1.007825032230
         H            0.887212277543     3.718049226781    -0.485058580488     1.007825032230
         H           -0.884004722457     3.718057226781    -0.484603580488     1.007825032230
         H            0.001705277543    -2.097519773219     0.011044419512     1.007825032230

  Basis Set: AUG-CC-PVTZ
    Blend: AUG-CC-PVTZ
  Basis Set: (AUG-CC-PVTZ AUX)
    Blend: AUG-CC-PVTZ-JKFIT
	 Reference Energy          =   -1187.6994919804337769 [Eh]
	 Singles Energy            =      -0.0000000000000000 [Eh]
	 Same-Spin Energy          =      -0.4298776391218843 [Eh]
	 Opposite-Spin Energy      =      -1.3000700067939526 [Eh]
	 Correlation Energy        =      -1.7299476459158369 [Eh]
	 Total Energy              =   -1189.4294396263496765 [Eh]

	 ================> DF-SCS-MP2 Energies <==================
	-----------------------------------------------------------
	 SCS Same-Spin Scale       =       0.3333333333333333 [-]
	 SCS Opposite-Spin Scale   =       1.2000000000000000 [-]
	 SCS Same-Spin Energy      =      -0.1432925463739614 [Eh]
	 SCS Opposite-Spin Energy  =      -1.5600840081527430 [Eh]
	 SCS Correlation Energy    =      -1.7033765545267043 [Eh]
	 SCS Total Energy          =   -1189.4028685349605894 [Eh]
	-----------------------------------------------------------

  Dipole Moment: [D]
     X:    -0.0106      Y:     2.1337      Z:     0.0400     Total:     2.1341

*** Psi4 exiting successfully. Buy a developer a beer!
