                               Psi4 1.4a3.dev225

  ==> Input File <==

--------------------------------------------------------------------------
#psi4
#
memory 32 gb

molecule  {
0 1
 Cl        2.7008340    -1.2489210     0.0016850
 Cl       -2.7008440    -1.2489040     0.0016850
  C        0.0000030     1.7216440    -0.0170270
  C       -1.2072320     1.0139100    -0.0094880
  C        1.2315588     1.0134433    -0.0095230
  C        0.0000180     3.2280150     0.0131190
  C        1.1931300    -0.3798000    -0.0002610
  C       -1.1931340    -0.3797940    -0.0002610
  C       -0.0000050    -1.1002640     0.0063140
  H       -2.1570970     1.5426200    -0.0181830
  H        2.1571050     1.5426070    -0.0181850
  H        0.0002870     3.5975410     1.0439770
  H        0.8855000     3.6300440    -0.4862980
  H       -0.8857170     3.6300520    -0.4858430
  H       -0.0000070    -2.1855250     0.0098050
units angstrom
no_reorient  #important for SAPT in psi4, default
symmetry c1  #important for SAPT in psi4, default
}

set PROPERTIES_ORIGIN ["COM"]
properties('MP2/aug-cc-pvtz', properties = ['dipole'])
--------------------------------------------------------------------------

    Molecular point group: c1
  Charge       = 0
  Multiplicity = 1
  Basis Set: AUG-CC-PVTZ
    Blend: AUG-CC-PVTZ
  Basis Set: (AUG-CC-PVTZ AUX)
    Blend: AUG-CC-PVTZ-JKFIT

    Orbital Energies [Eh]
    ---------------------

    Doubly Occupied:

       1A   -104.849598     2A   -104.848061     3A    -11.318935
       4A    -11.318598     5A    -11.273859     6A    -11.260372
       7A    -11.255526     8A    -11.254904     9A    -11.241906
      10A    -10.573383    11A    -10.571936    12A     -8.040285
      13A     -8.038838    14A     -8.038359    15A     -8.038350
      16A     -8.036914    17A     -8.036908    18A     -1.211235
      19A     -1.161009    20A     -1.116492    21A     -1.043233
      22A     -0.998494    23A     -0.958627    24A     -0.823689
      25A     -0.814059    26A     -0.709819    27A     -0.681326
      28A     -0.627478    29A     -0.597954    30A     -0.597022
      31A     -0.593913    32A     -0.564707    33A     -0.555839
      34A     -0.526781    35A     -0.516056    36A     -0.510658
      37A     -0.465537    38A     -0.457544    39A     -0.450949
      40A     -0.344914    41A     -0.341826

  @DF-RHF Final Energy: -1187.69931630701103

   => Energetics <=

    Nuclear Repulsion Energy =            542.5055187631921854
    One-Electron Energy =               -2711.0778778900903490
    Two-Electron Energy =                 980.8730428198867912
    Total Energy =                      -1187.6993163070110313
  Basis Set: (AUG-CC-PVTZ AUX)
    Blend: AUG-CC-PVTZ-RI
    Molecular point group: c1

    Geometry (in Angstrom), charge = 0, multiplicity = 1:

       Center              X                  Y                   Z               Mass
    ------------   -----------------  -----------------  -----------------  -----------------
         CL           2.699010153419    -1.160844538887     0.001947848356    34.968852682000
         CL          -2.702667846581    -1.160827538887     0.001947848356    34.968852682000
         C           -0.001820846581     1.809720461113    -0.016764151644    12.000000000000
         C           -1.209055846581     1.101986461113    -0.009225151644    12.000000000000
         C            1.229734953419     1.101519761113    -0.009260151644    12.000000000000
         C           -0.001805846581     3.316091461113     0.013381848356    12.000000000000
         C            1.191306153419    -0.291723538887     0.000001848356    12.000000000000
         C           -1.194957846581    -0.291717538887     0.000001848356    12.000000000000
         C           -0.001828846581    -1.012187538887     0.006576848356    12.000000000000
         H           -2.158920846581     1.630696461113    -0.017920151644     1.007825032230
         H            2.155281153419     1.630683461113    -0.017922151644     1.007825032230
         H           -0.001536846581     3.685617461113     1.044239848356     1.007825032230
         H            0.883676153419     3.718120461113    -0.486035151644     1.007825032230
         H           -0.887540846581     3.718128461113    -0.485580151644     1.007825032230
         H           -0.001830846581    -2.097448538887     0.010067848356     1.007825032230

  Basis Set: AUG-CC-PVTZ
    Blend: AUG-CC-PVTZ
  Basis Set: (AUG-CC-PVTZ AUX)
    Blend: AUG-CC-PVTZ-JKFIT
	 Reference Energy          =   -1187.6993163070110313 [Eh]
	 Singles Energy            =      -0.0000000000000000 [Eh]
	 Same-Spin Energy          =      -0.4298658350073733 [Eh]
	 Opposite-Spin Energy      =      -1.3000910577732268 [Eh]
	 Correlation Energy        =      -1.7299568927806002 [Eh]
	 Total Energy              =   -1189.4292731997916235 [Eh]

	 ================> DF-SCS-MP2 Energies <==================
	-----------------------------------------------------------
	 SCS Same-Spin Scale       =       0.3333333333333333 [-]
	 SCS Opposite-Spin Scale   =       1.2000000000000000 [-]
	 SCS Same-Spin Energy      =      -0.1432886116691244 [Eh]
	 SCS Opposite-Spin Energy  =      -1.5601092693278720 [Eh]
	 SCS Correlation Energy    =      -1.7033978809969963 [Eh]
	 SCS Total Energy          =   -1189.4027141880080762 [Eh]
	-----------------------------------------------------------

  Dipole Moment: [D]
     X:    -0.0232      Y:     2.1585      Z:     0.0359     Total:     2.1589

*** Psi4 exiting successfully. Buy a developer a beer!
