                               Psi4 1.4a3.dev225

  ==> Input File <==

--------------------------------------------------------------------------
#psi4
#
memory 32 gb

molecule  {
0 1
 Cl        2.7008340    -1.2489210     0.0016850
 Cl       -2.7008440    -1.2489040     0.0016850
  C        0.0000030     1.7216440    -0.0170270
  C       -1.2072320     1.0139100    -0.0094880
  C        1.1947084     0.9929459    -0.0101336
  C        0.0000180     3.2280150     0.0131190
  C        1.1931300    -0.3798000    -0.0002610
  C       -1.1931340    -0.3797940    -0.0002610
  C       -0.0000050    -1.1002640     0.0063140
  H       -2.1570970     1.5426200    -0.0181830
  H        2.1571050     1.5426070    -0.0181850
  H        0.0002870     3.5975410     1.0439770
  H        0.8855000     3.6300440    -0.4862980
  H       -0.8857170     3.6300520    -0.4858430
  H       -0.0000070    -2.1855250     0.0098050
units angstrom
no_reorient  #important for SAPT in psi4, default
symmetry c1  #important for SAPT in psi4, default
}

set PROPERTIES_ORIGIN ["COM"]
properties('MP2/aug-cc-pvtz', properties = ['dipole'])
--------------------------------------------------------------------------

    Molecular point group: c1
  Charge       = 0
  Multiplicity = 1
  Basis Set: AUG-CC-PVTZ
    Blend: AUG-CC-PVTZ
  Basis Set: (AUG-CC-PVTZ AUX)
    Blend: AUG-CC-PVTZ-JKFIT

    Orbital Energies [Eh]
    ---------------------

    Doubly Occupied:

       1A   -104.849356     2A   -104.848930     3A    -11.317593
       4A    -11.315681     5A    -11.271103     6A    -11.260307
       7A    -11.254895     8A    -11.254374     9A    -11.242611
      10A    -10.573127    11A    -10.572716    12A     -8.040032
      13A     -8.039620    14A     -8.038099    15A     -8.038094
      16A     -8.037692    17A     -8.037687    18A     -1.213541
      19A     -1.161218    20A     -1.118680    21A     -1.043856
      22A     -0.999367    23A     -0.959331    24A     -0.822291
      25A     -0.817736    26A     -0.705414    27A     -0.683522
      28A     -0.626128    29A     -0.598734    30A     -0.594622
      31A     -0.591911    32A     -0.563188    33A     -0.556914
      34A     -0.527735    35A     -0.514357    36A     -0.511058
      37A     -0.466605    38A     -0.457822    39A     -0.452620
      40A     -0.345355    41A     -0.343687

  @DF-RHF Final Energy: -1187.69970168209011

   => Energetics <=

    Nuclear Repulsion Energy =            543.2446609237634902
    One-Electron Energy =               -2712.5535098022223792
    Two-Electron Energy =                 981.6091471963687809
    Total Energy =                      -1187.6997016820901081
  Basis Set: (AUG-CC-PVTZ AUX)
    Blend: AUG-CC-PVTZ-RI
    Molecular point group: c1

    Geometry (in Angstrom), charge = 0, multiplicity = 1:

       Center              X                  Y                   Z               Mass
    ------------   -----------------  -----------------  -----------------  -----------------
         CL           2.701774198499    -1.159307086442     0.001993647749    34.968852682000
         CL          -2.699903801501    -1.159290086442     0.001993647749    34.968852682000
         C            0.000943198499     1.811257913558    -0.016718352251    12.000000000000
         C           -1.206291801501     1.103523913558    -0.009179352251    12.000000000000
         C            1.195648598499     1.082559813558    -0.009824952251    12.000000000000
         C            0.000958198499     3.317628913558     0.013427647749    12.000000000000
         C            1.194070198499    -0.290186086442     0.000047647749    12.000000000000
         C           -1.192193801501    -0.290180086442     0.000047647749    12.000000000000
         C            0.000935198499    -1.010650086442     0.006622647749    12.000000000000
         H           -2.156156801501     1.632233913558    -0.017874352251     1.007825032230
         H            2.158045198499     1.632220913558    -0.017876352251     1.007825032230
         H            0.001227198499     3.687154913558     1.044285647749     1.007825032230
         H            0.886440198499     3.719657913558    -0.485989352251     1.007825032230
         H           -0.884776801501     3.719665913558    -0.485534352251     1.007825032230
         H            0.000933198499    -2.095911086442     0.010113647749     1.007825032230

  Basis Set: AUG-CC-PVTZ
    Blend: AUG-CC-PVTZ
  Basis Set: (AUG-CC-PVTZ AUX)
    Blend: AUG-CC-PVTZ-JKFIT
	 Reference Energy          =   -1187.6997016820901081 [Eh]
	 Singles Energy            =      -0.0000000000000000 [Eh]
	 Same-Spin Energy          =      -0.4299028116886731 [Eh]
	 Opposite-Spin Energy      =      -1.2999503383948472 [Eh]
	 Correlation Energy        =      -1.7298531500835204 [Eh]
	 Total Energy              =   -1189.4295548321736078 [Eh]

	 ================> DF-SCS-MP2 Energies <==================
	-----------------------------------------------------------
	 SCS Same-Spin Scale       =       0.3333333333333333 [-]
	 SCS Opposite-Spin Scale   =       1.2000000000000000 [-]
	 SCS Same-Spin Energy      =      -0.1433009372295577 [Eh]
	 SCS Opposite-Spin Energy  =      -1.5599404060738167 [Eh]
	 SCS Correlation Energy    =      -1.7032413433033744 [Eh]
	 SCS Total Energy          =   -1189.4029430253933697 [Eh]
	-----------------------------------------------------------

  Dipole Moment: [D]
     X:    -0.0044      Y:     2.1550      Z:     0.0360     Total:     2.1553

*** Psi4 exiting successfully. Buy a developer a beer!
