                               Psi4 1.4a3.dev225

  ==> Input File <==

--------------------------------------------------------------------------
#psi4
#
memory 32 gb

molecule  {
0 1
 Cl        2.7008340    -1.2489210     0.0016850
 Cl       -2.7008440    -1.2489040     0.0016850
  C        0.0000030     1.7216440    -0.0170270
  C       -1.2072320     1.0139100    -0.0094880
  C        1.2072370     1.0139020    -0.0094890
  C        0.0000180     3.2280150     0.0131190
  C        1.1112818    -0.2590354    -0.0013631
  C       -1.1931340    -0.3797940    -0.0002610
  C       -0.0000050    -1.1002640     0.0063140
  H       -2.1570970     1.5426200    -0.0181830
  H        2.1571050     1.5426070    -0.0181850
  H        0.0002870     3.5975410     1.0439770
  H        0.8855000     3.6300440    -0.4862980
  H       -0.8857170     3.6300520    -0.4858430
  H       -0.0000070    -2.1855250     0.0098050
units angstrom
no_reorient  #important for SAPT in psi4, default
symmetry c1  #important for SAPT in psi4, default
}

set PROPERTIES_ORIGIN ["COM"]
properties('MP2/aug-cc-pvtz', properties = ['dipole'])
--------------------------------------------------------------------------

    Molecular point group: c1
  Charge       = 0
  Multiplicity = 1
  Basis Set: AUG-CC-PVTZ
    Blend: AUG-CC-PVTZ
  Basis Set: (AUG-CC-PVTZ AUX)
    Blend: AUG-CC-PVTZ-JKFIT

    Orbital Energies [Eh]
    ---------------------

    Doubly Occupied:

       1A   -104.851838     2A   -104.831053     3A    -11.322932
       4A    -11.317273     5A    -11.278021     6A    -11.266043
       7A    -11.257680     8A    -11.247992     9A    -11.245767
      10A    -10.575700    11A    -10.553808    12A     -8.042597
      13A     -8.040675    14A     -8.040657    15A     -8.020445
      16A     -8.018867    17A     -8.018844    18A     -1.223071
      19A     -1.156498    20A     -1.107361    21A     -1.044693
      22A     -1.017129    23A     -0.966507    24A     -0.827100
      25A     -0.819490    26A     -0.718966    27A     -0.692945
      28A     -0.619567    29A     -0.614592    30A     -0.604328
      31A     -0.589144    32A     -0.564869    33A     -0.560440
      34A     -0.533295    35A     -0.504972    36A     -0.494464
      37A     -0.463937    38A     -0.450298    39A     -0.448378
      40A     -0.361138    41A     -0.347874

  @DF-RHF Final Energy: -1187.68059720879774

   => Energetics <=

    Nuclear Repulsion Energy =            543.4838595634853391
    One-Electron Energy =               -2713.0064208478888759
    Two-Electron Energy =                 981.8419640756056879
    Total Energy =                      -1187.6805972087977352
  Basis Set: (AUG-CC-PVTZ AUX)
    Blend: AUG-CC-PVTZ-RI
    Molecular point group: c1

    Geometry (in Angstrom), charge = 0, multiplicity = 1:

       Center              X                  Y                   Z               Mass
    ------------   -----------------  -----------------  -----------------  -----------------
         CL           2.706973667142    -1.169937158395     0.002027963540    34.968852682000
         CL          -2.694704332858    -1.169920158395     0.002027963540    34.968852682000
         C            0.006142667142     1.800627841605    -0.016684036460    12.000000000000
         C           -1.201092332858     1.092893841605    -0.009145036460    12.000000000000
         C            1.213376667142     1.092885841605    -0.009146036460    12.000000000000
         C            0.006157667142     3.306998841605     0.013461963540    12.000000000000
         C            1.117421467142    -0.180051558395    -0.001020136460    12.000000000000
         C           -1.186994332858    -0.300810158395     0.000081963540    12.000000000000
         C            0.006134667142    -1.021280158395     0.006656963540    12.000000000000
         H           -2.150957332858     1.621603841605    -0.017840036460     1.007825032230
         H            2.163244667142     1.621590841605    -0.017842036460     1.007825032230
         H            0.006426667142     3.676524841605     1.044319963540     1.007825032230
         H            0.891639667142     3.709027841605    -0.485955036460     1.007825032230
         H           -0.879577332858     3.709035841605    -0.485500036460     1.007825032230
         H            0.006132667142    -2.106541158395     0.010147963540     1.007825032230

  Basis Set: AUG-CC-PVTZ
    Blend: AUG-CC-PVTZ
  Basis Set: (AUG-CC-PVTZ AUX)
    Blend: AUG-CC-PVTZ-JKFIT
	 Reference Energy          =   -1187.6805972087977352 [Eh]
	 Singles Energy            =      -0.0000000000000000 [Eh]
	 Same-Spin Energy          =      -0.4292520717139267 [Eh]
	 Opposite-Spin Energy      =      -1.2994056571164232 [Eh]
	 Correlation Energy        =      -1.7286577288303500 [Eh]
	 Total Energy              =   -1189.4092549376280203 [Eh]

	 ================> DF-SCS-MP2 Energies <==================
	-----------------------------------------------------------
	 SCS Same-Spin Scale       =       0.3333333333333333 [-]
	 SCS Opposite-Spin Scale   =       1.2000000000000000 [-]
	 SCS Same-Spin Energy      =      -0.1430840239046422 [Eh]
	 SCS Opposite-Spin Energy  =      -1.5592867885397077 [Eh]
	 SCS Correlation Energy    =      -1.7023708124443500 [Eh]
	 SCS Total Energy          =   -1189.3829680212420499 [Eh]
	-----------------------------------------------------------

  Dipole Moment: [D]
     X:    -0.6314      Y:     2.5793      Z:     0.0354     Total:     2.6557

*** Psi4 exiting successfully. Buy a developer a beer!
