                               Psi4 1.4a3.dev225

  ==> Input File <==

--------------------------------------------------------------------------
#psi4
#
memory 32 gb

molecule  {
0 1
 Cl        2.7008340    -1.2489210     0.0016850
 Cl       -2.7008440    -1.2489040     0.0016850
  C       -0.0805925     1.8439444    -0.0188082
  C       -1.2072320     1.0139100    -0.0094880
  C        1.2072370     1.0139020    -0.0094890
  C        0.0000180     3.2280150     0.0131190
  C        1.1931300    -0.3798000    -0.0002610
  C       -1.1931340    -0.3797940    -0.0002610
  C       -0.0000050    -1.1002640     0.0063140
  H       -2.1570970     1.5426200    -0.0181830
  H        2.1571050     1.5426070    -0.0181850
  H        0.0002870     3.5975410     1.0439770
  H        0.8855000     3.6300440    -0.4862980
  H       -0.8857170     3.6300520    -0.4858430
  H       -0.0000070    -2.1855250     0.0098050
units angstrom
no_reorient  #important for SAPT in psi4, default
symmetry c1  #important for SAPT in psi4, default
}

set PROPERTIES_ORIGIN ["COM"]
properties('MP2/aug-cc-pvtz', properties = ['dipole'])
--------------------------------------------------------------------------

    Molecular point group: c1
  Charge       = 0
  Multiplicity = 1
  Basis Set: AUG-CC-PVTZ
    Blend: AUG-CC-PVTZ
  Basis Set: (AUG-CC-PVTZ AUX)
    Blend: AUG-CC-PVTZ-JKFIT

    Orbital Energies [Eh]
    ---------------------

    Doubly Occupied:

       1A   -104.849565     2A   -104.847867     3A    -11.318187
       4A    -11.315810     5A    -11.280785     6A    -11.264467
       7A    -11.260319     8A    -11.255129     9A    -11.239776
      10A    -10.573237    11A    -10.571627    12A     -8.040146
      13A     -8.038536    14A     -8.038203    15A     -8.038201
      16A     -8.036598    17A     -8.036591    18A     -1.206475
      19A     -1.159395    20A     -1.122414    21A     -1.054316
      22A     -0.991450    23A     -0.964578    24A     -0.824926
      25A     -0.805740    26A     -0.701034    27A     -0.680263
      28A     -0.643055    29A     -0.610696    30A     -0.599094
      31A     -0.584293    32A     -0.569833    33A     -0.554551
      34A     -0.547076    35A     -0.509902    36A     -0.489284
      37A     -0.466771    38A     -0.456110    39A     -0.445357
      40A     -0.345956    41A     -0.329465

  @DF-RHF Final Energy: -1187.67150733733774

   => Energetics <=

    Nuclear Repulsion Energy =            541.3789088242397156
    One-Electron Energy =               -2708.7666739693663658
    Two-Electron Energy =                 979.7162578077889066
    Total Energy =                      -1187.6715073373377436
  Basis Set: (AUG-CC-PVTZ AUX)
    Blend: AUG-CC-PVTZ-RI
    Molecular point group: c1

    Geometry (in Angstrom), charge = 0, multiplicity = 1:

       Center              X                  Y                   Z               Mass
    ------------   -----------------  -----------------  -----------------  -----------------
         CL           2.706879705631    -1.170052354442     0.002078900925    34.968852682000
         CL          -2.694798294369    -1.170035354442     0.002078900925    34.968852682000
         C           -0.074546794369     1.922813045558    -0.018414299075    12.000000000000
         C           -1.201186294369     1.092778645558    -0.009094099075    12.000000000000
         C            1.213282705631     1.092770645558    -0.009095099075    12.000000000000
         C            0.006063705631     3.306883645558     0.013512900925    12.000000000000
         C            1.199175705631    -0.300931354442     0.000132900925    12.000000000000
         C           -1.187088294369    -0.300925354442     0.000132900925    12.000000000000
         C            0.006040705631    -1.021395354442     0.006707900925    12.000000000000
         H           -2.151051294369     1.621488645558    -0.017789099075     1.007825032230
         H            2.163150705631     1.621475645558    -0.017791099075     1.007825032230
         H            0.006332705631     3.676409645558     1.044370900925     1.007825032230
         H            0.891545705631     3.708912645558    -0.485904099075     1.007825032230
         H           -0.879671294369     3.708920645558    -0.485449099075     1.007825032230
         H            0.006038705631    -2.106656354442     0.010198900925     1.007825032230

  Basis Set: AUG-CC-PVTZ
    Blend: AUG-CC-PVTZ
  Basis Set: (AUG-CC-PVTZ AUX)
    Blend: AUG-CC-PVTZ-JKFIT
	 Reference Energy          =   -1187.6715073373377436 [Eh]
	 Singles Energy            =      -0.0000000000000000 [Eh]
	 Same-Spin Energy          =      -0.4315201292477656 [Eh]
	 Opposite-Spin Energy      =      -1.3033100989409729 [Eh]
	 Correlation Energy        =      -1.7348302281887387 [Eh]
	 Total Energy              =   -1189.4063375655264281 [Eh]

	 ================> DF-SCS-MP2 Energies <==================
	-----------------------------------------------------------
	 SCS Same-Spin Scale       =       0.3333333333333333 [-]
	 SCS Opposite-Spin Scale   =       1.2000000000000000 [-]
	 SCS Same-Spin Energy      =      -0.1438400430825885 [Eh]
	 SCS Opposite-Spin Energy  =      -1.5639721187291675 [Eh]
	 SCS Correlation Energy    =      -1.7078121618117561 [Eh]
	 SCS Total Energy          =   -1189.3793194991494602 [Eh]
	-----------------------------------------------------------

  Dipole Moment: [D]
     X:    -0.0395      Y:     2.3890      Z:     0.0517     Total:     2.3899

*** Psi4 exiting successfully. Buy a developer a beer!
