                               Psi4 1.4a3.dev225

  ==> Input File <==

--------------------------------------------------------------------------
#psi4
#
memory 32 gb

molecule  {
0 1
 Cl        2.7008340    -1.2489210     0.0016850
 Cl       -2.7008440    -1.2489040     0.0016850
  C        0.0000030     1.7216440    -0.0170270
  C       -1.2072320     1.0139100    -0.0094880
  C        1.2072370     1.0139020    -0.0094890
  C        0.0000180     3.2280150     0.0131190
  C        1.1931300    -0.3798000    -0.0002610
  C       -1.1931340    -0.3797940    -0.0002610
  C       -0.0856079    -1.1519546     0.0067857
  H       -2.1570970     1.5426200    -0.0181830
  H        2.1571050     1.5426070    -0.0181850
  H        0.0002870     3.5975410     1.0439770
  H        0.8855000     3.6300440    -0.4862980
  H       -0.8857170     3.6300520    -0.4858430
  H       -0.0000070    -2.1855250     0.0098050
units angstrom
no_reorient  #important for SAPT in psi4, default
symmetry c1  #important for SAPT in psi4, default
}

set PROPERTIES_ORIGIN ["COM"]
properties('MP2/aug-cc-pvtz', properties = ['dipole'])
--------------------------------------------------------------------------

    Molecular point group: c1
  Charge       = 0
  Multiplicity = 1
  Basis Set: AUG-CC-PVTZ
    Blend: AUG-CC-PVTZ
  Basis Set: (AUG-CC-PVTZ AUX)
    Blend: AUG-CC-PVTZ-JKFIT

    Orbital Energies [Eh]
    ---------------------

    Doubly Occupied:

       1A   -104.851576     2A   -104.843896     3A    -11.328110
       4A    -11.314603     5A    -11.273114     6A    -11.262269
       7A    -11.255964     8A    -11.254191     9A    -11.242664
      10A    -10.575223    11A    -10.568096    12A     -8.042119
      13A     -8.040210    14A     -8.040191    15A     -8.034992
      16A     -8.033068    17A     -8.033062    18A     -1.209724
      19A     -1.160222    20A     -1.118832    21A     -1.040138
      22A     -0.997140    23A     -0.961148    24A     -0.821122
      25A     -0.814777    26A     -0.714279    27A     -0.680602
      28A     -0.628236    29A     -0.604639    30A     -0.597606
      31A     -0.591373    32A     -0.562993    33A     -0.554088
      34A     -0.532161    35A     -0.510837    36A     -0.510359
      37A     -0.465465    38A     -0.453482    39A     -0.450654
      40A     -0.351337    41A     -0.335107

  @DF-RHF Final Energy: -1187.68851682610148

   => Energetics <=

    Nuclear Repulsion Energy =            542.0584621977848201
    One-Electron Energy =               -2710.1746215287589621
    Two-Electron Energy =                 980.4276425048728925
    Total Energy =                      -1187.6885168261014769
  Basis Set: (AUG-CC-PVTZ AUX)
    Blend: AUG-CC-PVTZ-RI
    Molecular point group: c1

    Geometry (in Angstrom), charge = 0, multiplicity = 1:

       Center              X                  Y                   Z               Mass
    ------------   -----------------  -----------------  -----------------  -----------------
         CL           2.707255296651    -1.157001777856     0.001909917219    34.968852682000
         CL          -2.694422703349    -1.156984777856     0.001909917219    34.968852682000
         C            0.006424296651     1.813563222144    -0.016802082781    12.000000000000
         C           -1.200810703349     1.105829222144    -0.009263082781    12.000000000000
         C            1.213658296651     1.105821222144    -0.009264082781    12.000000000000
         C            0.006439296651     3.319934222144     0.013343917219    12.000000000000
         C            1.199551296651    -0.287880777856    -0.000036082781    12.000000000000
         C           -1.186712703349    -0.287874777856    -0.000036082781    12.000000000000
         C           -0.079186603349    -1.060035377856     0.007010617219    12.000000000000
         H           -2.150675703349     1.634539222144    -0.017958082781     1.007825032230
         H            2.163526296651     1.634526222144    -0.017960082781     1.007825032230
         H            0.006708296651     3.689460222144     1.044201917219     1.007825032230
         H            0.891921296651     3.721963222144    -0.486073082781     1.007825032230
         H           -0.879295703349     3.721971222144    -0.485618082781     1.007825032230
         H            0.006414296651    -2.093605777856     0.010029917219     1.007825032230

  Basis Set: AUG-CC-PVTZ
    Blend: AUG-CC-PVTZ
  Basis Set: (AUG-CC-PVTZ AUX)
    Blend: AUG-CC-PVTZ-JKFIT
	 Reference Energy          =   -1187.6885168261014769 [Eh]
	 Singles Energy            =      -0.0000000000000000 [Eh]
	 Same-Spin Energy          =      -0.4297554499638137 [Eh]
	 Opposite-Spin Energy      =      -1.3007088951567862 [Eh]
	 Correlation Energy        =      -1.7304643451205999 [Eh]
	 Total Energy              =   -1189.4189811712221854 [Eh]

	 ================> DF-SCS-MP2 Energies <==================
	-----------------------------------------------------------
	 SCS Same-Spin Scale       =       0.3333333333333333 [-]
	 SCS Opposite-Spin Scale   =       1.2000000000000000 [-]
	 SCS Same-Spin Energy      =      -0.1432518166546045 [Eh]
	 SCS Opposite-Spin Energy  =      -1.5608506741881434 [Eh]
	 SCS Correlation Energy    =      -1.7041024908427480 [Eh]
	 SCS Total Energy          =   -1189.3926193169443195 [Eh]
	-----------------------------------------------------------

  Dipole Moment: [D]
     X:     0.1791      Y:     2.1748      Z:     0.0355     Total:     2.1825

*** Psi4 exiting successfully. Buy a developer a beer!
