                               Psi4 1.4a3.dev225

  ==> Input File <==

--------------------------------------------------------------------------
#psi4
#
memory 32 gb

molecule  {
0 1
 Cl        2.7008340    -1.2489210     0.0016850
 Cl       -2.7008440    -1.2489040     0.0016850
  C        0.0000030     1.7216440    -0.0170270
  C       -1.2072320     1.0139100    -0.0094880
  C        1.2072370     1.0139020    -0.0094890
  C        0.0000180     3.2280150     0.0131190
  C        1.1931300    -0.3798000    -0.0002610
  C       -1.1931340    -0.3797940    -0.0002610
  C        0.0855979    -1.0485734     0.0058423
  H       -2.1570970     1.5426200    -0.0181830
  H        2.1571050     1.5426070    -0.0181850
  H        0.0002870     3.5975410     1.0439770
  H        0.8855000     3.6300440    -0.4862980
  H       -0.8857170     3.6300520    -0.4858430
  H       -0.0000070    -2.1855250     0.0098050
units angstrom
no_reorient  #important for SAPT in psi4, default
symmetry c1  #important for SAPT in psi4, default
}

set PROPERTIES_ORIGIN ["COM"]
properties('MP2/aug-cc-pvtz', properties = ['dipole'])
--------------------------------------------------------------------------

    Molecular point group: c1
  Charge       = 0
  Multiplicity = 1
  Basis Set: AUG-CC-PVTZ
    Blend: AUG-CC-PVTZ
  Basis Set: (AUG-CC-PVTZ AUX)
    Blend: AUG-CC-PVTZ-JKFIT

    Orbital Energies [Eh]
    ---------------------

    Doubly Occupied:

       1A   -104.854389     2A   -104.846474     3A    -11.322293
       4A    -11.305008     5A    -11.269529     6A    -11.257845
       7A    -11.255799     8A    -11.253717     9A    -11.241193
      10A    -10.577804    11A    -10.570430    12A     -8.044710
      13A     -8.042776    14A     -8.042765    15A     -8.037335
      16A     -8.035392    17A     -8.035386    18A     -1.217409
      19A     -1.162294    20A     -1.118597    21A     -1.048817
      22A     -0.999060    23A     -0.957663    24A     -0.830125
      25A     -0.811423    26A     -0.701901    27A     -0.685476
      28A     -0.626764    29A     -0.598872    30A     -0.597836
      31A     -0.582236    32A     -0.563299    33A     -0.559620
      34A     -0.525975    35A     -0.512066    36A     -0.511025
      37A     -0.465956    38A     -0.458867    39A     -0.453318
      40A     -0.355988    41A     -0.336622

  @DF-RHF Final Energy: -1187.68673720720108

   => Energetics <=

    Nuclear Repulsion Energy =            543.7748568000882869
    One-Electron Energy =               -2713.5750861631559019
    Two-Electron Energy =                 982.1134921558663109
    Total Energy =                      -1187.6867372072010767
  Basis Set: (AUG-CC-PVTZ AUX)
    Blend: AUG-CC-PVTZ-RI
    Molecular point group: c1

    Geometry (in Angstrom), charge = 0, multiplicity = 1:

       Center              X                  Y                   Z               Mass
    ------------   -----------------  -----------------  -----------------  -----------------
         CL           2.694413630100    -1.164756111518     0.001980679005    34.968852682000
         CL          -2.707264369900    -1.164739111518     0.001980679005    34.968852682000
         C           -0.006417369900     1.805808888482    -0.016731320995    12.000000000000
         C           -1.213652369900     1.098074888482    -0.009192320995    12.000000000000
         C            1.200816630100     1.098066888482    -0.009193320995    12.000000000000
         C           -0.006402369900     3.312179888482     0.013414679005    12.000000000000
         C            1.186709630100    -0.295635111518     0.000034679005    12.000000000000
         C           -1.199554369900    -0.295629111518     0.000034679005    12.000000000000
         C            0.079177530100    -0.964408511518     0.006137979005    12.000000000000
         H           -2.163517369900     1.626784888482    -0.017887320995     1.007825032230
         H            2.150684630100     1.626771888482    -0.017889320995     1.007825032230
         H           -0.006133369900     3.681705888482     1.044272679005     1.007825032230
         H            0.879079630100     3.714208888482    -0.486002320995     1.007825032230
         H           -0.892137369900     3.714216888482    -0.485547320995     1.007825032230
         H           -0.006427369900    -2.101360111518     0.010100679005     1.007825032230

  Basis Set: AUG-CC-PVTZ
    Blend: AUG-CC-PVTZ
  Basis Set: (AUG-CC-PVTZ AUX)
    Blend: AUG-CC-PVTZ-JKFIT
	 Reference Energy          =   -1187.6867372072010767 [Eh]
	 Singles Energy            =      -0.0000000000000000 [Eh]
	 Same-Spin Energy          =      -0.4297542074134218 [Eh]
	 Opposite-Spin Energy      =      -1.3002793831812443 [Eh]
	 Correlation Energy        =      -1.7300335905946660 [Eh]
	 Total Energy              =   -1189.4167707977958344 [Eh]

	 ================> DF-SCS-MP2 Energies <==================
	-----------------------------------------------------------
	 SCS Same-Spin Scale       =       0.3333333333333333 [-]
	 SCS Opposite-Spin Scale   =       1.2000000000000000 [-]
	 SCS Same-Spin Energy      =      -0.1432514024711406 [Eh]
	 SCS Opposite-Spin Energy  =      -1.5603352598174931 [Eh]
	 SCS Correlation Energy    =      -1.7035866622886338 [Eh]
	 SCS Total Energy          =   -1189.3903238694897482 [Eh]
	-----------------------------------------------------------

  Dipole Moment: [D]
     X:    -0.2003      Y:     2.1108      Z:     0.0355     Total:     2.1206

*** Psi4 exiting successfully. Buy a developer a beer!
