                               Psi4 1.4a3.dev225

  ==> Input File <==

--------------------------------------------------------------------------
#psi4
#
memory 32 gb

molecule  {
0 1
 Cl        2.7008340    -1.2489210     0.0016850
 Cl       -2.7008440    -1.2489040     0.0016850
  C        0.0000030     1.7216440    -0.0170270
  C       -1.2072320     1.0139100    -0.0094880
  C        1.2072370     1.0139020    -0.0094890
  C        0.0000182     3.2480110     0.0135192
  C        1.1931300    -0.3798000    -0.0002610
  C       -1.1931340    -0.3797940    -0.0002610
  C       -0.0000050    -1.1002640     0.0063140
  H       -2.1570970     1.5426200    -0.0181830
  H        2.1571050     1.5426070    -0.0181850
  H        0.0002870     3.5975410     1.0439770
  H        0.8855000     3.6300440    -0.4862980
  H       -0.8857170     3.6300520    -0.4858430
  H       -0.0000070    -2.1855250     0.0098050
units angstrom
no_reorient  #important for SAPT in psi4, default
symmetry c1  #important for SAPT in psi4, default
}

set PROPERTIES_ORIGIN ["COM"]
properties('MP2/aug-cc-pvtz', properties = ['dipole'])
--------------------------------------------------------------------------

    Molecular point group: c1
  Charge       = 0
  Multiplicity = 1
  Basis Set: AUG-CC-PVTZ
    Blend: AUG-CC-PVTZ
  Basis Set: (AUG-CC-PVTZ AUX)
    Blend: AUG-CC-PVTZ-JKFIT

    Orbital Energies [Eh]
    ---------------------

    Doubly Occupied:

       1A   -104.849183     2A   -104.849183     3A    -11.318142
       4A    -11.318135     5A    -11.271871     6A    -11.260359
       7A    -11.254935     8A    -11.254883     9A    -11.241391
      10A    -10.572969    11A    -10.572969    12A     -8.039872
      13A     -8.039872    14A     -8.037945    15A     -8.037945
      16A     -8.037939    17A     -8.037939    18A     -1.211791
      19A     -1.160751    20A     -1.117144    21A     -1.042506
      22A     -0.997999    23A     -0.959111    24A     -0.822735
      25A     -0.816159    26A     -0.707371    27A     -0.681817
      28A     -0.625053    29A     -0.599585    30A     -0.594676
      31A     -0.592430    32A     -0.567004    33A     -0.557054
      34A     -0.522459    35A     -0.518306    36A     -0.510677
      37A     -0.465607    38A     -0.457807    39A     -0.452476
      40A     -0.346382    41A     -0.341770

  @DF-RHF Final Energy: -1187.70017158597557

   => Energetics <=

    Nuclear Repulsion Energy =            542.4629521524299207
    One-Electron Energy =               -2710.9978474331783218
    Two-Electron Energy =                 980.8347236947730607
    Total Energy =                      -1187.7001715859755677
  Basis Set: (AUG-CC-PVTZ AUX)
    Blend: AUG-CC-PVTZ-RI
    Molecular point group: c1

    Geometry (in Angstrom), charge = 0, multiplicity = 1:

       Center              X                  Y                   Z               Mass
    ------------   -----------------  -----------------  -----------------  -----------------
         CL           2.700834448374    -1.162378788526     0.001915280233    34.968852682000
         CL          -2.700843551626    -1.162361788526     0.001915280233    34.968852682000
         C            0.000003448374     1.808186211474    -0.016796719767    12.000000000000
         C           -1.207231551626     1.100452211474    -0.009257719767    12.000000000000
         C            1.207237448374     1.100444211474    -0.009258719767    12.000000000000
         C            0.000018648374     3.334553211474     0.013749480233    12.000000000000
         C            1.193130448374    -0.293257788526    -0.000030719767    12.000000000000
         C           -1.193133551626    -0.293251788526    -0.000030719767    12.000000000000
         C           -0.000004551626    -1.013721788526     0.006544280233    12.000000000000
         H           -2.157096551626     1.629162211474    -0.017952719767     1.007825032230
         H            2.157105448374     1.629149211474    -0.017954719767     1.007825032230
         H            0.000287448374     3.684083211474     1.044207280233     1.007825032230
         H            0.885500448374     3.716586211474    -0.486067719767     1.007825032230
         H           -0.885716551626     3.716594211474    -0.485612719767     1.007825032230
         H           -0.000006551626    -2.098982788526     0.010035280233     1.007825032230

  Basis Set: AUG-CC-PVTZ
    Blend: AUG-CC-PVTZ
  Basis Set: (AUG-CC-PVTZ AUX)
    Blend: AUG-CC-PVTZ-JKFIT
	 Reference Energy          =   -1187.7001715859755677 [Eh]
	 Singles Energy            =      -0.0000000000000000 [Eh]
	 Same-Spin Energy          =      -0.4297318701211919 [Eh]
	 Opposite-Spin Energy      =      -1.2998916422962050 [Eh]
	 Correlation Energy        =      -1.7296235124173969 [Eh]
	 Total Energy              =   -1189.4297950983930150 [Eh]

	 ================> DF-SCS-MP2 Energies <==================
	-----------------------------------------------------------
	 SCS Same-Spin Scale       =       0.3333333333333333 [-]
	 SCS Opposite-Spin Scale   =       1.2000000000000000 [-]
	 SCS Same-Spin Energy      =      -0.1432439567070639 [Eh]
	 SCS Opposite-Spin Energy  =      -1.5598699707554460 [Eh]
	 SCS Correlation Energy    =      -1.7031139274625100 [Eh]
	 SCS Total Energy          =   -1189.4032855134380497 [Eh]
	-----------------------------------------------------------

  Dipole Moment: [D]
     X:     0.0000      Y:     2.1360      Z:     0.0346     Total:     2.1363

*** Psi4 exiting successfully. Buy a developer a beer!
