                               Psi4 1.4a3.dev225

  ==> Input File <==

--------------------------------------------------------------------------
#psi4
#
memory 32 gb

molecule  {
0 1
 Cl        2.7008340    -1.2489210     0.0016850
 Cl       -2.7008440    -1.2489040     0.0016850
  C        0.0000030     1.7216440    -0.0170270
  C       -1.2072320     1.0139100    -0.0094880
  C        1.2072370     1.0139020    -0.0094890
  C        0.0000180     3.2280150     0.0131190
  C        1.1931300    -0.3798000    -0.0002610
  C       -1.1931340    -0.3797940    -0.0002610
  C       -0.0000050    -1.1002640     0.0063140
  H       -2.1570970     1.5426200    -0.0181830
  H        2.1571050     1.5426070    -0.0181850
  H        0.0976841     3.5388993     1.0585998
  H        0.8855000     3.6300440    -0.4862980
  H       -0.8857170     3.6300520    -0.4858430
  H       -0.0000070    -2.1855250     0.0098050
units angstrom
no_reorient  #important for SAPT in psi4, default
symmetry c1  #important for SAPT in psi4, default
}

set PROPERTIES_ORIGIN ["COM"]
properties('MP2/aug-cc-pvtz', properties = ['dipole'])
--------------------------------------------------------------------------

    Molecular point group: c1
  Charge       = 0
  Multiplicity = 1
  Basis Set: AUG-CC-PVTZ
    Blend: AUG-CC-PVTZ
  Basis Set: (AUG-CC-PVTZ AUX)
    Blend: AUG-CC-PVTZ-JKFIT

    Orbital Energies [Eh]
    ---------------------

    Doubly Occupied:

       1A   -104.849154     2A   -104.849113     3A    -11.318145
       4A    -11.318105     5A    -11.270778     6A    -11.259941
       7A    -11.254513     8A    -11.254459     9A    -11.242301
      10A    -10.572941    11A    -10.572899    12A     -8.039844
      13A     -8.039802    14A     -8.037918    15A     -8.037911
      16A     -8.037876    17A     -8.037869    18A     -1.211898
      19A     -1.160677    20A     -1.118709    21A     -1.043826
      22A     -0.997974    23A     -0.958822    24A     -0.822901
      25A     -0.814974    26A     -0.707094    27A     -0.682299
      28A     -0.626176    29A     -0.602278    30A     -0.594485
      31A     -0.593420    32A     -0.564783    33A     -0.554955
      34A     -0.524297    35A     -0.517191    36A     -0.510606
      37A     -0.465762    38A     -0.457706    39A     -0.451855
      40A     -0.345499    41A     -0.341774

  @DF-RHF Final Energy: -1187.69906554985550

   => Energetics <=

    Nuclear Repulsion Energy =            542.9373729274526568
    One-Electron Energy =               -2711.9458199195405541
    Two-Electron Energy =                 981.3093814422323931
    Total Energy =                      -1187.6990655498557317
  Basis Set: (AUG-CC-PVTZ AUX)
    Blend: AUG-CC-PVTZ-RI
    Molecular point group: c1

    Geometry (in Angstrom), charge = 0, multiplicity = 1:

       Center              X                  Y                   Z               Mass
    ------------   -----------------  -----------------  -----------------  -----------------
         CL           2.700220909312    -1.160509530677     0.001853181628    34.968852682000
         CL          -2.701457090688    -1.160492530677     0.001853181628    34.968852682000
         C           -0.000610090688     1.810055469323    -0.016858818372    12.000000000000
         C           -1.207845090688     1.102321469323    -0.009319818372    12.000000000000
         C            1.206623909312     1.102313469323    -0.009320818372    12.000000000000
         C           -0.000595090688     3.316426469323     0.013287181628    12.000000000000
         C            1.192516909312    -0.291388530677    -0.000092818372    12.000000000000
         C           -1.193747090688    -0.291382530677    -0.000092818372    12.000000000000
         C           -0.000618090688    -1.011852530677     0.006482181628    12.000000000000
         H           -2.157710090688     1.631031469323    -0.018014818372     1.007825032230
         H            2.156491909312     1.631018469323    -0.018016818372     1.007825032230
         H            0.097071009312     3.627310769323     1.058767981628     1.007825032230
         H            0.884886909312     3.718455469323    -0.486129818372     1.007825032230
         H           -0.886330090688     3.718463469323    -0.485674818372     1.007825032230
         H           -0.000620090688    -2.097113530677     0.009973181628     1.007825032230

  Basis Set: AUG-CC-PVTZ
    Blend: AUG-CC-PVTZ
  Basis Set: (AUG-CC-PVTZ AUX)
    Blend: AUG-CC-PVTZ-JKFIT
	 Reference Energy          =   -1187.6990655498555043 [Eh]
	 Singles Energy            =      -0.0000000000000000 [Eh]
	 Same-Spin Energy          =      -0.4299622769597585 [Eh]
	 Opposite-Spin Energy      =      -1.3001448217229925 [Eh]
	 Correlation Energy        =      -1.7301070986827511 [Eh]
	 Total Energy              =   -1189.4291726485382696 [Eh]

	 ================> DF-SCS-MP2 Energies <==================
	-----------------------------------------------------------
	 SCS Same-Spin Scale       =       0.3333333333333333 [-]
	 SCS Opposite-Spin Scale   =       1.2000000000000000 [-]
	 SCS Same-Spin Energy      =      -0.1433207589865862 [Eh]
	 SCS Opposite-Spin Energy  =      -1.5601737860675911 [Eh]
	 SCS Correlation Energy    =      -1.7034945450541772 [Eh]
	 SCS Total Energy          =   -1189.4025600949096315 [Eh]
	-----------------------------------------------------------

  Dipole Moment: [D]
     X:     0.0359      Y:     2.1491      Z:     0.0306     Total:     2.1496

*** Psi4 exiting successfully. Buy a developer a beer!
