                               Psi4 1.4a3.dev225

  ==> Input File <==

--------------------------------------------------------------------------
#psi4
#
memory 32 gb

molecule  {
0 1
 Cl        2.7008340    -1.2489210     0.0016850
 Cl       -2.7008440    -1.2489040     0.0016850
  C        0.0000030     1.7216440    -0.0170270
  C       -1.2072320     1.0139100    -0.0094880
  C        1.2745603     1.1439379    -0.0056765
  C        0.0000180     3.2280150     0.0131190
  C        1.1931300    -0.3798000    -0.0002610
  C       -1.1931340    -0.3797940    -0.0002610
  C       -0.0000050    -1.1002640     0.0063140
  H       -2.1570970     1.5426200    -0.0181830
  H        2.1571050     1.5426070    -0.0181850
  H        0.0002870     3.5975410     1.0439770
  H        0.8855000     3.6300440    -0.4862980
  H       -0.8857170     3.6300520    -0.4858430
  H       -0.0000070    -2.1855250     0.0098050
units angstrom
no_reorient  #important for SAPT in psi4, default
symmetry c1  #important for SAPT in psi4, default
}

set PROPERTIES_ORIGIN ["COM"]
properties('MP2/aug-cc-pvtz', properties = ['dipole'])
--------------------------------------------------------------------------

    Molecular point group: c1
  Charge       = 0
  Multiplicity = 1
  Basis Set: AUG-CC-PVTZ
    Blend: AUG-CC-PVTZ
  Basis Set: (AUG-CC-PVTZ AUX)
    Blend: AUG-CC-PVTZ-JKFIT

    Orbital Energies [Eh]
    ---------------------

    Doubly Occupied:

       1A   -104.851542     2A   -104.848791     3A    -11.331351
       4A    -11.322443     5A    -11.273026     6A    -11.261182
       7A    -11.258948     8A    -11.255657     9A    -11.237613
      10A    -10.575315    11A    -10.572624    12A     -8.042210
      13A     -8.040291    14A     -8.040272    15A     -8.039512
      16A     -8.037622    17A     -8.037595    18A     -1.206039
      19A     -1.158558    20A     -1.118440    21A     -1.044570
      22A     -0.993473    23A     -0.954598    24A     -0.833219
      25A     -0.804443    26A     -0.722915    27A     -0.675401
      28A     -0.636729    29A     -0.602746    30A     -0.595805
      31A     -0.593455    32A     -0.564629    33A     -0.552036
      34A     -0.531834    35A     -0.508985    36A     -0.508958
      37A     -0.463226    38A     -0.453776    39A     -0.449771
      40A     -0.351156    41A     -0.331862

  @DF-RHF Final Energy: -1187.67029423649683

   => Energetics <=

    Nuclear Repulsion Energy =            540.4796094338648800
    One-Electron Energy =               -2706.9345725852731448
    Two-Electron Energy =                 978.7846689149114354
    Total Energy =                      -1187.6702942364968294
  Basis Set: (AUG-CC-PVTZ AUX)
    Blend: AUG-CC-PVTZ-RI
    Molecular point group: c1

    Geometry (in Angstrom), charge = 0, multiplicity = 1:

       Center              X                  Y                   Z               Mass
    ------------   -----------------  -----------------  -----------------  -----------------
         CL           2.695784731592    -1.170632572587     0.001659333187    34.968852682000
         CL          -2.705893268408    -1.170615572587     0.001659333187    34.968852682000
         C           -0.005046268408     1.799932427413    -0.017052666813    12.000000000000
         C           -1.212281268408     1.092198427413    -0.009513666813    12.000000000000
         C            1.269511031592     1.222226327413    -0.005702166813    12.000000000000
         C           -0.005031268408     3.306303427413     0.013093333187    12.000000000000
         C            1.188080731592    -0.301511572587    -0.000286666813    12.000000000000
         C           -1.198183268408    -0.301505572587    -0.000286666813    12.000000000000
         C           -0.005054268408    -1.021975572587     0.006288333187    12.000000000000
         H           -2.162146268408     1.620908427413    -0.018208666813     1.007825032230
         H            2.152055731592     1.620895427413    -0.018210666813     1.007825032230
         H           -0.004762268408     3.675829427413     1.043951333187     1.007825032230
         H            0.880450731592     3.708332427413    -0.486323666813     1.007825032230
         H           -0.890766268408     3.708340427413    -0.485868666813     1.007825032230
         H           -0.005056268408    -2.107236572587     0.009779333187     1.007825032230

  Basis Set: AUG-CC-PVTZ
    Blend: AUG-CC-PVTZ
  Basis Set: (AUG-CC-PVTZ AUX)
    Blend: AUG-CC-PVTZ-JKFIT
	 Reference Energy          =   -1187.6702942364968294 [Eh]
	 Singles Energy            =      -0.0000000000000000 [Eh]
	 Same-Spin Energy          =      -0.4301353160964212 [Eh]
	 Opposite-Spin Energy      =      -1.3022253043171161 [Eh]
	 Correlation Energy        =      -1.7323606204135373 [Eh]
	 Total Energy              =   -1189.4026548569104307 [Eh]

	 ================> DF-SCS-MP2 Energies <==================
	-----------------------------------------------------------
	 SCS Same-Spin Scale       =       0.3333333333333333 [-]
	 SCS Opposite-Spin Scale   =       1.2000000000000000 [-]
	 SCS Same-Spin Energy      =      -0.1433784386988071 [Eh]
	 SCS Opposite-Spin Energy  =      -1.5626703651805394 [Eh]
	 SCS Correlation Energy    =      -1.7060488038793464 [Eh]
	 SCS Total Energy          =   -1189.3763430403762413 [Eh]
	-----------------------------------------------------------

  Dipole Moment: [D]
     X:    -0.0108      Y:     2.0333      Z:     0.0324     Total:     2.0336

*** Psi4 exiting successfully. Buy a developer a beer!
