                               Psi4 1.4a3.dev225

  ==> Input File <==

--------------------------------------------------------------------------
#psi4
#
memory 32 gb

molecule  {
0 1
 Cl        2.7008340    -1.2489210     0.0016850
 Cl       -2.7008440    -1.2489040     0.0016850
  C        0.0000030     1.7216440    -0.0170270
  C       -1.2072320     1.0139100    -0.0094880
  C        1.2536375     1.0998174    -0.0069355
  C        0.0000180     3.2280150     0.0131190
  C        1.1931300    -0.3798000    -0.0002610
  C       -1.1931340    -0.3797940    -0.0002610
  C       -0.0000050    -1.1002640     0.0063140
  H       -2.1570970     1.5426200    -0.0181830
  H        2.1571050     1.5426070    -0.0181850
  H        0.0002870     3.5975410     1.0439770
  H        0.8855000     3.6300440    -0.4862980
  H       -0.8857170     3.6300520    -0.4858430
  H       -0.0000070    -2.1855250     0.0098050
units angstrom
no_reorient  #important for SAPT in psi4, default
symmetry c1  #important for SAPT in psi4, default
}

set PROPERTIES_ORIGIN ["COM"]
properties('MP2/aug-cc-pvtz', properties = ['dipole'])
--------------------------------------------------------------------------

    Molecular point group: c1
  Charge       = 0
  Multiplicity = 1
  Basis Set: AUG-CC-PVTZ
    Blend: AUG-CC-PVTZ
  Basis Set: (AUG-CC-PVTZ AUX)
    Blend: AUG-CC-PVTZ-JKFIT

    Orbital Energies [Eh]
    ---------------------

    Doubly Occupied:

       1A   -104.850703     2A   -104.848919     3A    -11.327457
       4A    -11.320932     5A    -11.272027     6A    -11.260952
       7A    -11.257456     8A    -11.255343     9A    -11.238932
      10A    -10.574482    11A    -10.572744    12A     -8.041380
      13A     -8.039638    14A     -8.039458    15A     -8.039443
      16A     -8.037735    17A     -8.037716    18A     -1.207573
      19A     -1.159285    20A     -1.118324    21A     -1.043921
      22A     -0.994488    23A     -0.955986    24A     -0.829436
      25A     -0.807494    26A     -0.717323    27A     -0.677364
      28A     -0.632558    29A     -0.601863    30A     -0.596303
      31A     -0.593675    32A     -0.564407    33A     -0.553094
      34A     -0.528927    35A     -0.513860    36A     -0.509540
      37A     -0.463732    38A     -0.456398    39A     -0.450407
      40A     -0.349331    41A     -0.334916

  @DF-RHF Final Energy: -1187.68646123183021

   => Energetics <=

    Nuclear Repulsion Energy =            541.2313064631476891
    One-Electron Energy =               -2708.4844869872272284
    Two-Electron Energy =                 979.5667192922494451
    Total Energy =                      -1187.6864612318302079
  Basis Set: (AUG-CC-PVTZ AUX)
    Blend: AUG-CC-PVTZ-RI
    Molecular point group: c1

    Geometry (in Angstrom), charge = 0, multiplicity = 1:

       Center              X                  Y                   Z               Mass
    ------------   -----------------  -----------------  -----------------  -----------------
         CL           2.697354092098    -1.167323217711     0.001753767244    34.968852682000
         CL          -2.704323907902    -1.167306217711     0.001753767244    34.968852682000
         C           -0.003476907902     1.803241782289    -0.016958232756    12.000000000000
         C           -1.210711907902     1.095507782289    -0.009419232756    12.000000000000
         C            1.250157592098     1.181415182289    -0.006866732756    12.000000000000
         C           -0.003461907902     3.309612782289     0.013187767244    12.000000000000
         C            1.189650092098    -0.298202217711    -0.000192232756    12.000000000000
         C           -1.196613907902    -0.298196217711    -0.000192232756    12.000000000000
         C           -0.003484907902    -1.018666217711     0.006382767244    12.000000000000
         H           -2.160576907902     1.624217782289    -0.018114232756     1.007825032230
         H            2.153625092098     1.624204782289    -0.018116232756     1.007825032230
         H           -0.003192907902     3.679138782289     1.044045767244     1.007825032230
         H            0.882020092098     3.711641782289    -0.486229232756     1.007825032230
         H           -0.889196907902     3.711649782289    -0.485774232756     1.007825032230
         H           -0.003486907902    -2.103927217711     0.009873767244     1.007825032230

  Basis Set: AUG-CC-PVTZ
    Blend: AUG-CC-PVTZ
  Basis Set: (AUG-CC-PVTZ AUX)
    Blend: AUG-CC-PVTZ-JKFIT
	 Reference Energy          =   -1187.6864612318302079 [Eh]
	 Singles Energy            =      -0.0000000000000000 [Eh]
	 Same-Spin Energy          =      -0.4299854929103650 [Eh]
	 Opposite-Spin Energy      =      -1.3011651706105432 [Eh]
	 Correlation Energy        =      -1.7311506635209082 [Eh]
	 Total Energy              =   -1189.4176118953512287 [Eh]

	 ================> DF-SCS-MP2 Energies <==================
	-----------------------------------------------------------
	 SCS Same-Spin Scale       =       0.3333333333333333 [-]
	 SCS Opposite-Spin Scale   =       1.2000000000000000 [-]
	 SCS Same-Spin Energy      =      -0.1433284976367883 [Eh]
	 SCS Opposite-Spin Energy  =      -1.5613982047326518 [Eh]
	 SCS Correlation Energy    =      -1.7047267023694401 [Eh]
	 SCS Total Energy          =   -1189.3911879341997064 [Eh]
	-----------------------------------------------------------

  Dipole Moment: [D]
     X:    -0.0009      Y:     2.0674      Z:     0.0335     Total:     2.0676

*** Psi4 exiting successfully. Buy a developer a beer!
