                               Psi4 1.4a3.dev225

  ==> Input File <==

--------------------------------------------------------------------------
#psi4
#
memory 32 gb

molecule  {
0 1
 Cl        2.7008340    -1.2489210     0.0016850
 Cl       -2.7008440    -1.2489040     0.0016850
  C        0.0000030     1.7216440    -0.0170270
  C       -1.2072320     1.0139100    -0.0094880
  C        1.2072370     1.0139020    -0.0094890
  C        0.0000180     3.2280150     0.0131190
  C        1.1399645    -0.2983296    -0.0010045
  C       -1.1931340    -0.3797940    -0.0002610
  C       -0.0000050    -1.1002640     0.0063140
  H       -2.1570970     1.5426200    -0.0181830
  H        2.1571050     1.5426070    -0.0181850
  H        0.0002870     3.5975410     1.0439770
  H        0.8855000     3.6300440    -0.4862980
  H       -0.8857170     3.6300520    -0.4858430
  H       -0.0000070    -2.1855250     0.0098050
units angstrom
no_reorient  #important for SAPT in psi4, default
symmetry c1  #important for SAPT in psi4, default
}

set PROPERTIES_ORIGIN ["COM"]
properties('MP2/aug-cc-pvtz', properties = ['dipole'])
--------------------------------------------------------------------------

    Molecular point group: c1
  Charge       = 0
  Multiplicity = 1
  Basis Set: AUG-CC-PVTZ
    Blend: AUG-CC-PVTZ
  Basis Set: (AUG-CC-PVTZ AUX)
    Blend: AUG-CC-PVTZ-JKFIT

    Orbital Energies [Eh]
    ---------------------

    Doubly Occupied:

       1A   -104.850849     2A   -104.837968     3A    -11.321135
       4A    -11.317134     5A    -11.275392     6A    -11.263845
       7A    -11.256619     8A    -11.250137     9A    -11.244279
      10A    -10.574687    11A    -10.560921    12A     -8.041586
      13A     -8.039663    14A     -8.039649    15A     -8.027636
      16A     -8.025955    17A     -8.025939    18A     -1.218078
      19A     -1.155425    20A     -1.112501    21A     -1.044502
      22A     -1.010722    23A     -0.964040    24A     -0.823487
      25A     -0.820525    26A     -0.714886    27A     -0.689014
      28A     -0.620373    29A     -0.607757    30A     -0.601665
      31A     -0.590718    32A     -0.564303    33A     -0.558195
      34A     -0.530587    35A     -0.505795    36A     -0.503814
      37A     -0.464822    38A     -0.452924    39A     -0.452052
      40A     -0.354722    41A     -0.347007

  @DF-RHF Final Energy: -1187.69235389890764

   => Energetics <=

    Nuclear Repulsion Energy =            543.2171867097266613
    One-Electron Energy =               -2712.4964621243530019
    Two-Electron Energy =                 981.5869215157185863
    Total Energy =                      -1187.6923538989076405
  Basis Set: (AUG-CC-PVTZ AUX)
    Blend: AUG-CC-PVTZ-RI
    Molecular point group: c1

    Geometry (in Angstrom), charge = 0, multiplicity = 1:

       Center              X                  Y                   Z               Mass
    ------------   -----------------  -----------------  -----------------  -----------------
         CL           2.704822258316    -1.166989810736     0.002001065960    34.968852682000
         CL          -2.696855741684    -1.166972810736     0.002001065960    34.968852682000
         C            0.003991258316     1.803575189264    -0.016710934040    12.000000000000
         C           -1.203243741684     1.095841189264    -0.009171934040    12.000000000000
         C            1.211225258316     1.095833189264    -0.009172934040    12.000000000000
         C            0.004006258316     3.309946189264     0.013435065960    12.000000000000
         C            1.143952758316    -0.216398410736    -0.000688434040    12.000000000000
         C           -1.189145741684    -0.297862810736     0.000055065960    12.000000000000
         C            0.003983258316    -1.018332810736     0.006630065960    12.000000000000
         H           -2.153108741684     1.624551189264    -0.017866934040     1.007825032230
         H            2.161093258316     1.624538189264    -0.017868934040     1.007825032230
         H            0.004275258316     3.679472189264     1.044293065960     1.007825032230
         H            0.889488258316     3.711975189264    -0.485981934040     1.007825032230
         H           -0.881728741684     3.711983189264    -0.485526934040     1.007825032230
         H            0.003981258316    -2.103593810736     0.010121065960     1.007825032230

  Basis Set: AUG-CC-PVTZ
    Blend: AUG-CC-PVTZ
  Basis Set: (AUG-CC-PVTZ AUX)
    Blend: AUG-CC-PVTZ-JKFIT
	 Reference Energy          =   -1187.6923538989076405 [Eh]
	 Singles Energy            =      -0.0000000000000000 [Eh]
	 Same-Spin Energy          =      -0.4293474797679341 [Eh]
	 Opposite-Spin Energy      =      -1.2993785116821264 [Eh]
	 Correlation Energy        =      -1.7287259914500606 [Eh]
	 Total Energy              =   -1189.4210798903577597 [Eh]

	 ================> DF-SCS-MP2 Energies <==================
	-----------------------------------------------------------
	 SCS Same-Spin Scale       =       0.3333333333333333 [-]
	 SCS Opposite-Spin Scale   =       1.2000000000000000 [-]
	 SCS Same-Spin Energy      =      -0.1431158265893114 [Eh]
	 SCS Opposite-Spin Energy  =      -1.5592542140185517 [Eh]
	 SCS Correlation Energy    =      -1.7023700406078630 [Eh]
	 SCS Total Energy          =   -1189.3947239395154156 [Eh]
	-----------------------------------------------------------

  Dipole Moment: [D]
     X:    -0.4081      Y:     2.4185      Z:     0.0355     Total:     2.4529

*** Psi4 exiting successfully. Buy a developer a beer!
