                               Psi4 1.4a3.dev225

  ==> Input File <==

--------------------------------------------------------------------------
#psi4
#
memory 32 gb

molecule  {
0 1
 Cl        2.7008340    -1.2489210     0.0016850
 Cl       -2.7008440    -1.2489040     0.0016850
  C        0.0000030     1.7216440    -0.0170270
  C       -1.2072320     1.0139100    -0.0094880
  C        1.3528443     1.0047911    -0.0096504
  C        0.0000180     3.2280150     0.0131190
  C        1.1931300    -0.3798000    -0.0002610
  C       -1.1931340    -0.3797940    -0.0002610
  C       -0.0000050    -1.1002640     0.0063140
  H       -2.1570970     1.5426200    -0.0181830
  H        2.1571050     1.5426070    -0.0181850
  H        0.0002870     3.5975410     1.0439770
  H        0.8855000     3.6300440    -0.4862980
  H       -0.8857170     3.6300520    -0.4858430
  H       -0.0000070    -2.1855250     0.0098050
units angstrom
no_reorient  #important for SAPT in psi4, default
symmetry c1  #important for SAPT in psi4, default
}

set PROPERTIES_ORIGIN ["COM"]
properties('MP2/aug-cc-pvtz', properties = ['dipole'])
--------------------------------------------------------------------------

    Molecular point group: c1
  Charge       = 0
  Multiplicity = 1
  Basis Set: AUG-CC-PVTZ
    Blend: AUG-CC-PVTZ
  Basis Set: (AUG-CC-PVTZ AUX)
    Blend: AUG-CC-PVTZ-JKFIT

    Orbital Energies [Eh]
    ---------------------

    Doubly Occupied:

       1A   -104.851662     2A   -104.842143     3A    -11.322897
       4A    -11.321739     5A    -11.286257     6A    -11.260543
       7A    -11.258938     8A    -11.255017     9A    -11.242415
      10A    -10.575439    11A    -10.566492    12A     -8.042335
      13A     -8.040414    14A     -8.040393    15A     -8.033381
      16A     -8.031467    17A     -8.031462    18A     -1.208496
      19A     -1.162309    20A     -1.107914    21A     -1.041971
      22A     -0.999994    23A     -0.959280    24A     -0.832419
      25A     -0.803631    26A     -0.724150    27A     -0.678048
      28A     -0.634903    29A     -0.605160    30A     -0.596303
      31A     -0.593498    32A     -0.567704    33A     -0.555517
      34A     -0.533573    35A     -0.510571    36A     -0.501335
      37A     -0.463805    38A     -0.453264    39A     -0.446249
      40A     -0.347270    41A     -0.335078

  @DF-RHF Final Energy: -1187.67125970049506

   => Energetics <=

    Nuclear Repulsion Energy =            541.0513115499899186
    One-Electron Energy =               -2708.1142756234380613
    Two-Electron Energy =                 979.3917043729531997
    Total Energy =                      -1187.6712597004950567
  Basis Set: (AUG-CC-PVTZ AUX)
    Blend: AUG-CC-PVTZ-RI
    Molecular point group: c1

    Geometry (in Angstrom), charge = 0, multiplicity = 1:

       Center              X                  Y                   Z               Mass
    ------------   -----------------  -----------------  -----------------  -----------------
         CL           2.689912868464    -1.160195561649     0.001957404273    34.968852682000
         CL          -2.711765131536    -1.160178561649     0.001957404273    34.968852682000
         C           -0.010918131536     1.810369438351    -0.016754595727    12.000000000000
         C           -1.218153131536     1.102635438351    -0.009215595727    12.000000000000
         C            1.341923168464     1.093516538351    -0.009377995727    12.000000000000
         C           -0.010903131536     3.316740438351     0.013391404273    12.000000000000
         C            1.182208868464    -0.291074561649     0.000011404273    12.000000000000
         C           -1.204055131536    -0.291068561649     0.000011404273    12.000000000000
         C           -0.010926131536    -1.011538561649     0.006586404273    12.000000000000
         H           -2.168018131536     1.631345438351    -0.017910595727     1.007825032230
         H            2.146183868464     1.631332438351    -0.017912595727     1.007825032230
         H           -0.010634131536     3.686266438351     1.044249404273     1.007825032230
         H            0.874578868464     3.718769438351    -0.486025595727     1.007825032230
         H           -0.896638131536     3.718777438351    -0.485570595727     1.007825032230
         H           -0.010928131536    -2.096799561649     0.010077404273     1.007825032230

  Basis Set: AUG-CC-PVTZ
    Blend: AUG-CC-PVTZ
  Basis Set: (AUG-CC-PVTZ AUX)
    Blend: AUG-CC-PVTZ-JKFIT
	 Reference Energy          =   -1187.6712597004950567 [Eh]
	 Singles Energy            =      -0.0000000000000000 [Eh]
	 Same-Spin Energy          =      -0.4300420779728054 [Eh]
	 Opposite-Spin Energy      =      -1.3017082045341875 [Eh]
	 Correlation Energy        =      -1.7317502825069928 [Eh]
	 Total Energy              =   -1189.4030099830019935 [Eh]

	 ================> DF-SCS-MP2 Energies <==================
	-----------------------------------------------------------
	 SCS Same-Spin Scale       =       0.3333333333333333 [-]
	 SCS Opposite-Spin Scale   =       1.2000000000000000 [-]
	 SCS Same-Spin Energy      =      -0.1433473593242685 [Eh]
	 SCS Opposite-Spin Energy  =      -1.5620498454410250 [Eh]
	 SCS Correlation Energy    =      -1.7053972047652934 [Eh]
	 SCS Total Energy          =   -1189.3766569052604609 [Eh]
	-----------------------------------------------------------

  Dipole Moment: [D]
     X:    -0.1663      Y:     2.2414      Z:     0.0383     Total:     2.2479

*** Psi4 exiting successfully. Buy a developer a beer!
