                               Psi4 1.4a3.dev225

  ==> Input File <==

--------------------------------------------------------------------------
#psi4
#
memory 32 gb

molecule  {
0 1
 Cl        2.7008340    -1.2489210     0.0016850
 Cl       -2.7008440    -1.2489040     0.0016850
  C       -0.0254332     1.7633404    -0.0176309
  C       -1.2072320     1.0139100    -0.0094880
  C        1.2072370     1.0139020    -0.0094890
  C        0.0000180     3.2280150     0.0131190
  C        1.1931300    -0.3798000    -0.0002610
  C       -1.1931340    -0.3797940    -0.0002610
  C       -0.0000050    -1.1002640     0.0063140
  H       -2.1570970     1.5426200    -0.0181830
  H        2.1571050     1.5426070    -0.0181850
  H        0.0002870     3.5975410     1.0439770
  H        0.8855000     3.6300440    -0.4862980
  H       -0.8857170     3.6300520    -0.4858430
  H       -0.0000070    -2.1855250     0.0098050
units angstrom
no_reorient  #important for SAPT in psi4, default
symmetry c1  #important for SAPT in psi4, default
}

set PROPERTIES_ORIGIN ["COM"]
properties('MP2/aug-cc-pvtz', properties = ['dipole'])
--------------------------------------------------------------------------

    Molecular point group: c1
  Charge       = 0
  Multiplicity = 1
  Basis Set: AUG-CC-PVTZ
    Blend: AUG-CC-PVTZ
  Basis Set: (AUG-CC-PVTZ AUX)
    Blend: AUG-CC-PVTZ-JKFIT

    Orbital Energies [Eh]
    ---------------------

    Doubly Occupied:

       1A   -104.849387     2A   -104.848849     3A    -11.318182
       4A    -11.317463     5A    -11.274349     6A    -11.260435
       7A    -11.258591     8A    -11.254822     9A    -11.241130
      10A    -10.573134    11A    -10.572622    12A     -8.040039
      13A     -8.039528    14A     -8.038106    15A     -8.038103
      16A     -8.037594    17A     -8.037592    18A     -1.209902
      19A     -1.160348    20A     -1.118444    21A     -1.047108
      22A     -0.995169    23A     -0.961597    24A     -0.822615
      25A     -0.813691    26A     -0.705206    27A     -0.681398
      28A     -0.630737    29A     -0.601728    30A     -0.596051
      31A     -0.590450    32A     -0.565742    33A     -0.555595
      34A     -0.534564    35A     -0.510507    36A     -0.509404
      37A     -0.466822    38A     -0.457481    39A     -0.449639
      40A     -0.344639    41A     -0.338944

  @DF-RHF Final Energy: -1187.69629999145491

   => Energetics <=

    Nuclear Repulsion Energy =            542.3019041931104312
    One-Electron Energy =               -2710.6609985307786701
    Two-Electron Energy =                 980.6627943462134454
    Total Energy =                      -1187.6962999914549073
  Basis Set: (AUG-CC-PVTZ AUX)
    Blend: AUG-CC-PVTZ-RI
    Molecular point group: c1

    Geometry (in Angstrom), charge = 0, multiplicity = 1:

       Center              X                  Y                   Z               Mass
    ------------   -----------------  -----------------  -----------------  -----------------
         CL           2.702742361348    -1.164006474626     0.001990594956    34.968852682000
         CL          -2.698935638652    -1.163989474626     0.001990594956    34.968852682000
         C           -0.023524838652     1.848254925374    -0.017325305044    12.000000000000
         C           -1.205323638652     1.098824525374    -0.009182405044    12.000000000000
         C            1.209145361348     1.098816525374    -0.009183405044    12.000000000000
         C            0.001926361348     3.312929525374     0.013424594956    12.000000000000
         C            1.195038361348    -0.294885474626     0.000044594956    12.000000000000
         C           -1.191225638652    -0.294879474626     0.000044594956    12.000000000000
         C            0.001903361348    -1.015349474626     0.006619594956    12.000000000000
         H           -2.155188638652     1.627534525374    -0.017877405044     1.007825032230
         H            2.159013361348     1.627521525374    -0.017879405044     1.007825032230
         H            0.002195361348     3.682455525374     1.044282594956     1.007825032230
         H            0.887408361348     3.714958525374    -0.485992405044     1.007825032230
         H           -0.883808638652     3.714966525374    -0.485537405044     1.007825032230
         H            0.001901361348    -2.100610474626     0.010110594956     1.007825032230

  Basis Set: AUG-CC-PVTZ
    Blend: AUG-CC-PVTZ
  Basis Set: (AUG-CC-PVTZ AUX)
    Blend: AUG-CC-PVTZ-JKFIT
	 Reference Energy          =   -1187.6962999914549073 [Eh]
	 Singles Energy            =      -0.0000000000000000 [Eh]
	 Same-Spin Energy          =      -0.4302941129321104 [Eh]
	 Opposite-Spin Energy      =      -1.3007565080918257 [Eh]
	 Correlation Energy        =      -1.7310506210239360 [Eh]
	 Total Energy              =   -1189.4273506124789037 [Eh]

	 ================> DF-SCS-MP2 Energies <==================
	-----------------------------------------------------------
	 SCS Same-Spin Scale       =       0.3333333333333333 [-]
	 SCS Opposite-Spin Scale   =       1.2000000000000000 [-]
	 SCS Same-Spin Energy      =      -0.1434313709773701 [Eh]
	 SCS Opposite-Spin Energy  =      -1.5609078097101909 [Eh]
	 SCS Correlation Energy    =      -1.7043391806875610 [Eh]
	 SCS Total Energy          =   -1189.4006391721425189 [Eh]
	-----------------------------------------------------------

  Dipole Moment: [D]
     X:    -0.0117      Y:     2.2148      Z:     0.0405     Total:     2.2152

*** Psi4 exiting successfully. Buy a developer a beer!
