                               Psi4 1.4a3.dev225

  ==> Input File <==

--------------------------------------------------------------------------
#psi4
#
memory 32 gb

molecule  {
0 1
 Cl        2.7008340    -1.2489210     0.0016850
 Cl       -2.7008440    -1.2489040     0.0016850
  C        0.0000030     1.7216440    -0.0170270
  C       -1.2072320     1.0139100    -0.0094880
  C        1.2072370     1.0139020    -0.0094890
  C        0.0000180     3.2280150     0.0131190
  C        1.1931300    -0.3798000    -0.0002610
  C       -1.1931340    -0.3797940    -0.0002610
  C       -0.0000050    -1.1002640     0.0063140
  H       -2.1570970     1.5426200    -0.0181830
  H        2.1571050     1.5426070    -0.0181850
  H        0.0003361     3.6650289     1.2322464
  H        0.8855000     3.6300440    -0.4862980
  H       -0.8857170     3.6300520    -0.4858430
  H       -0.0000070    -2.1855250     0.0098050
units angstrom
no_reorient  #important for SAPT in psi4, default
symmetry c1  #important for SAPT in psi4, default
}

set PROPERTIES_ORIGIN ["COM"]
properties('MP2/aug-cc-pvtz', properties = ['dipole'])
--------------------------------------------------------------------------

    Molecular point group: c1
  Charge       = 0
  Multiplicity = 1
  Basis Set: AUG-CC-PVTZ
    Blend: AUG-CC-PVTZ
  Basis Set: (AUG-CC-PVTZ AUX)
    Blend: AUG-CC-PVTZ-JKFIT

    Orbital Energies [Eh]
    ---------------------

    Doubly Occupied:

       1A   -104.849793     2A   -104.849792     3A    -11.318894
       4A    -11.318886     5A    -11.272715     6A    -11.263908
       7A    -11.261510     8A    -11.256180     9A    -11.256126
      10A    -10.573574    11A    -10.573573    12A     -8.040477
      13A     -8.040477    14A     -8.038548    15A     -8.038547
      16A     -8.038542    17A     -8.038541    18A     -1.212839
      19A     -1.161431    20A     -1.118485    21A     -1.042306
      22A     -0.999044    23A     -0.950270    24A     -0.823945
      25A     -0.812707    26A     -0.707905    27A     -0.683499
      28A     -0.627392    29A     -0.595516    30A     -0.595512
      31A     -0.578378    32A     -0.566430    33A     -0.540730
      34A     -0.523058    35A     -0.518603    36A     -0.511312
      37A     -0.466589    38A     -0.458403    39A     -0.449893
      40A     -0.345063    41A     -0.342566

  @DF-RHF Final Energy: -1187.68044501988334

   => Energetics <=

    Nuclear Repulsion Energy =            542.0276038005838473
    One-Electron Energy =               -2710.0921832896569867
    Two-Electron Energy =                 980.3841344691900304
    Total Energy =                      -1187.6804450198833365
  Basis Set: (AUG-CC-PVTZ AUX)
    Blend: AUG-CC-PVTZ-RI
    Molecular point group: c1

    Geometry (in Angstrom), charge = 0, multiplicity = 1:

       Center              X                  Y                   Z               Mass
    ------------   -----------------  -----------------  -----------------  -----------------
         CL           2.700834154069    -1.161304085428     0.000759293032    34.968852682000
         CL          -2.700843845931    -1.161287085428     0.000759293032    34.968852682000
         C            0.000003154069     1.809260914572    -0.017952706968    12.000000000000
         C           -1.207231845931     1.101526914572    -0.010413706968    12.000000000000
         C            1.207237154069     1.101518914572    -0.010414706968    12.000000000000
         C            0.000018154069     3.315631914572     0.012193293032    12.000000000000
         C            1.193130154069    -0.292183085428    -0.001186706968    12.000000000000
         C           -1.193133845931    -0.292177085428    -0.001186706968    12.000000000000
         C           -0.000004845931    -1.012647085428     0.005388293032    12.000000000000
         H           -2.157096845931     1.630236914572    -0.019108706968     1.007825032230
         H            2.157105154069     1.630223914572    -0.019110706968     1.007825032230
         H            0.000336254069     3.752645814572     1.231320693032     1.007825032230
         H            0.885500154069     3.717660914572    -0.487223706968     1.007825032230
         H           -0.885716845931     3.717668914572    -0.486768706968     1.007825032230
         H           -0.000006845931    -2.097908085428     0.008879293032     1.007825032230

  Basis Set: AUG-CC-PVTZ
    Blend: AUG-CC-PVTZ
  Basis Set: (AUG-CC-PVTZ AUX)
    Blend: AUG-CC-PVTZ-JKFIT
	 Reference Energy          =   -1187.6804450198833365 [Eh]
	 Singles Energy            =      -0.0000000000000000 [Eh]
	 Same-Spin Energy          =      -0.4298890366912141 [Eh]
	 Opposite-Spin Energy      =      -1.3015406418046471 [Eh]
	 Correlation Energy        =      -1.7314296784958612 [Eh]
	 Total Energy              =   -1189.4118746983792789 [Eh]

	 ================> DF-SCS-MP2 Energies <==================
	-----------------------------------------------------------
	 SCS Same-Spin Scale       =       0.3333333333333333 [-]
	 SCS Opposite-Spin Scale   =       1.2000000000000000 [-]
	 SCS Same-Spin Energy      =      -0.1432963455637380 [Eh]
	 SCS Opposite-Spin Energy  =      -1.5618487701655765 [Eh]
	 SCS Correlation Energy    =      -1.7051451157293145 [Eh]
	 SCS Total Energy          =   -1189.3855901356125742 [Eh]
	-----------------------------------------------------------

  Dipole Moment: [D]
     X:     0.0000      Y:     2.0336      Z:    -0.0440     Total:     2.0341

*** Psi4 exiting successfully. Buy a developer a beer!
