                               Psi4 1.4a3.dev225

  ==> Input File <==

--------------------------------------------------------------------------
#psi4
#
memory 32 gb

molecule  {
0 1
 Cl        2.7008340    -1.2489210     0.0016850
 Cl       -2.7008440    -1.2489040     0.0016850
  C        0.0000030     1.7216440    -0.0170270
  C       -1.2072320     1.0139100    -0.0094880
  C        1.2193978     1.0350737    -0.0088467
  C        0.0000180     3.2280150     0.0131190
  C        1.1931300    -0.3798000    -0.0002610
  C       -1.1931340    -0.3797940    -0.0002610
  C       -0.0000050    -1.1002640     0.0063140
  H       -2.1570970     1.5426200    -0.0181830
  H        2.1571050     1.5426070    -0.0181850
  H        0.0002870     3.5975410     1.0439770
  H        0.8855000     3.6300440    -0.4862980
  H       -0.8857170     3.6300520    -0.4858430
  H       -0.0000070    -2.1855250     0.0098050
units angstrom
no_reorient  #important for SAPT in psi4, default
symmetry c1  #important for SAPT in psi4, default
}

set PROPERTIES_ORIGIN ["COM"]
properties('MP2/aug-cc-pvtz', properties = ['dipole'])
--------------------------------------------------------------------------

    Molecular point group: c1
  Charge       = 0
  Multiplicity = 1
  Basis Set: AUG-CC-PVTZ
    Blend: AUG-CC-PVTZ
  Basis Set: (AUG-CC-PVTZ AUX)
    Blend: AUG-CC-PVTZ-JKFIT

    Orbital Energies [Eh]
    ---------------------

    Doubly Occupied:

       1A   -104.849579     2A   -104.849146     3A    -11.320667
       4A    -11.318852     5A    -11.271218     6A    -11.260545
       7A    -11.255521     8A    -11.255000     9A    -11.241095
      10A    -10.573363    11A    -10.572944    12A     -8.040265
      13A     -8.039845    14A     -8.038339    15A     -8.038331
      16A     -8.037925    17A     -8.037915    18A     -1.210743
      19A     -1.160422    20A     -1.118432    21A     -1.043542
      22A     -0.997070    23A     -0.958069    24A     -0.824408
      25A     -0.813665    26A     -0.709705    27A     -0.681034
      28A     -0.627663    29A     -0.598079    30A     -0.596503
      31A     -0.594091    32A     -0.563857    33A     -0.555162
      34A     -0.524683    35A     -0.519075    36A     -0.510421
      37A     -0.465408    38A     -0.457753    39A     -0.451622
      40A     -0.346789    41A     -0.340041

  @DF-RHF Final Energy: -1187.69919281762350

   => Energetics <=

    Nuclear Repulsion Energy =            542.4169810378311922
    One-Electron Energy =               -2710.8947763514806866
    Two-Electron Energy =                 980.7786024960258828
    Total Energy =                      -1187.6991928176234978
  Basis Set: (AUG-CC-PVTZ AUX)
    Blend: AUG-CC-PVTZ-RI
    Molecular point group: c1

    Geometry (in Angstrom), charge = 0, multiplicity = 1:

       Center              X                  Y                   Z               Mass
    ------------   -----------------  -----------------  -----------------  -----------------
         CL           2.699922315898    -1.162466974484     0.001897120992    34.968852682000
         CL          -2.701755684102    -1.162449974484     0.001897120992    34.968852682000
         C           -0.000908684102     1.808098025516    -0.016814879008    12.000000000000
         C           -1.208143684102     1.100364025516    -0.009275879008    12.000000000000
         C            1.218486115898     1.121527725516    -0.008634579008    12.000000000000
         C           -0.000893684102     3.314469025516     0.013331120992    12.000000000000
         C            1.192218315898    -0.293345974484    -0.000048879008    12.000000000000
         C           -1.194045684102    -0.293339974484    -0.000048879008    12.000000000000
         C           -0.000916684102    -1.013809974484     0.006526120992    12.000000000000
         H           -2.158008684102     1.629074025516    -0.017970879008     1.007825032230
         H            2.156193315898     1.629061025516    -0.017972879008     1.007825032230
         H           -0.000624684102     3.683995025516     1.044189120992     1.007825032230
         H            0.884588315898     3.716498025516    -0.486085879008     1.007825032230
         H           -0.886628684102     3.716506025516    -0.485630879008     1.007825032230
         H           -0.000918684102    -2.099070974484     0.010017120992     1.007825032230

  Basis Set: AUG-CC-PVTZ
    Blend: AUG-CC-PVTZ
  Basis Set: (AUG-CC-PVTZ AUX)
    Blend: AUG-CC-PVTZ-JKFIT
	 Reference Energy          =   -1187.6991928176234978 [Eh]
	 Singles Energy            =      -0.0000000000000000 [Eh]
	 Same-Spin Energy          =      -0.4298865991273220 [Eh]
	 Opposite-Spin Energy      =      -1.3001800943359929 [Eh]
	 Correlation Energy        =      -1.7300666934633149 [Eh]
	 Total Energy              =   -1189.4292595110869115 [Eh]

	 ================> DF-SCS-MP2 Energies <==================
	-----------------------------------------------------------
	 SCS Same-Spin Scale       =       0.3333333333333333 [-]
	 SCS Opposite-Spin Scale   =       1.2000000000000000 [-]
	 SCS Same-Spin Energy      =      -0.1432955330424406 [Eh]
	 SCS Opposite-Spin Energy  =      -1.5602161132031915 [Eh]
	 SCS Correlation Energy    =      -1.7035116462456321 [Eh]
	 SCS Total Energy          =   -1189.4027044638692132 [Eh]
	-----------------------------------------------------------

  Dipole Moment: [D]
     X:     0.0024      Y:     2.1204      Z:     0.0350     Total:     2.1207

*** Psi4 exiting successfully. Buy a developer a beer!
