                               Psi4 1.4a3.dev225

  ==> Input File <==

--------------------------------------------------------------------------
#psi4
#
memory 32 gb

molecule  {
0 1
 Cl        2.7008340    -1.2489210     0.0016850
 Cl       -2.7008440    -1.2489040     0.0016850
  C        0.0000030     1.7216440    -0.0170270
  C       -1.2072320     1.0139100    -0.0094880
  C        1.1585879     1.0135458    -0.0094126
  C        0.0000180     3.2280150     0.0131190
  C        1.1931300    -0.3798000    -0.0002610
  C       -1.1931340    -0.3797940    -0.0002610
  C       -0.0000050    -1.1002640     0.0063140
  H       -2.1570970     1.5426200    -0.0181830
  H        2.1571050     1.5426070    -0.0181850
  H        0.0002870     3.5975410     1.0439770
  H        0.8855000     3.6300440    -0.4862980
  H       -0.8857170     3.6300520    -0.4858430
  H       -0.0000070    -2.1855250     0.0098050
units angstrom
no_reorient  #important for SAPT in psi4, default
symmetry c1  #important for SAPT in psi4, default
}

set PROPERTIES_ORIGIN ["COM"]
properties('MP2/aug-cc-pvtz', properties = ['dipole'])
--------------------------------------------------------------------------

    Molecular point group: c1
  Charge       = 0
  Multiplicity = 1
  Basis Set: AUG-CC-PVTZ
    Blend: AUG-CC-PVTZ
  Basis Set: (AUG-CC-PVTZ AUX)
    Blend: AUG-CC-PVTZ-JKFIT

    Orbital Energies [Eh]
    ---------------------

    Doubly Occupied:

       1A   -104.851583     2A   -104.848605     3A    -11.317670
       4A    -11.316840     5A    -11.265521     6A    -11.260606
       7A    -11.255085     8A    -11.253826     9A    -11.241803
      10A    -10.575191    11A    -10.572391    12A     -8.042097
      13A     -8.040162    14A     -8.040155    15A     -8.039296
      16A     -8.037367    17A     -8.037365    18A     -1.214085
      19A     -1.160494    20A     -1.122941    21A     -1.044592
      22A     -0.997503    23A     -0.959147    24A     -0.825815
      25A     -0.816157    26A     -0.703359    27A     -0.684299
      28A     -0.625999    29A     -0.599329    30A     -0.594812
      31A     -0.589644    32A     -0.560730    33A     -0.556414
      34A     -0.527910    35A     -0.514092    36A     -0.510933
      37A     -0.466932    38A     -0.458128    39A     -0.454647
      40A     -0.349486    41A     -0.340963

  @DF-RHF Final Energy: -1187.69735139508361

   => Energetics <=

    Nuclear Repulsion Energy =            543.5003527739842184
    One-Electron Energy =               -2713.0474638857235732
    Two-Electron Energy =                 981.8497597166559672
    Total Energy =                      -1187.6973513950833876
  Basis Set: (AUG-CC-PVTZ AUX)
    Blend: AUG-CC-PVTZ-RI
    Molecular point group: c1

    Geometry (in Angstrom), charge = 0, multiplicity = 1:

       Center              X                  Y                   Z               Mass
    ------------   -----------------  -----------------  -----------------  -----------------
         CL           2.704483495828    -1.160852227125     0.001939567562    34.968852682000
         CL          -2.697194504172    -1.160835227125     0.001939567562    34.968852682000
         C            0.003652495828     1.809712772875    -0.016772432438    12.000000000000
         C           -1.203582504172     1.101978772875    -0.009233432438    12.000000000000
         C            1.162237395828     1.101614572875    -0.009158032438    12.000000000000
         C            0.003667495828     3.316083772875     0.013373567562    12.000000000000
         C            1.196779495828    -0.291731227125    -0.000006432438    12.000000000000
         C           -1.189484504172    -0.291725227125    -0.000006432438    12.000000000000
         C            0.003644495828    -1.012195227125     0.006568567562    12.000000000000
         H           -2.153447504172     1.630688772875    -0.017928432438     1.007825032230
         H            2.160754495828     1.630675772875    -0.017930432438     1.007825032230
         H            0.003936495828     3.685609772875     1.044231567562     1.007825032230
         H            0.889149495828     3.718112772875    -0.486043432438     1.007825032230
         H           -0.882067504172     3.718120772875    -0.485588432438     1.007825032230
         H            0.003642495828    -2.097456227125     0.010059567562     1.007825032230

  Basis Set: AUG-CC-PVTZ
    Blend: AUG-CC-PVTZ
  Basis Set: (AUG-CC-PVTZ AUX)
    Blend: AUG-CC-PVTZ-JKFIT
	 Reference Energy          =   -1187.6973513950836150 [Eh]
	 Singles Energy            =      -0.0000000000000000 [Eh]
	 Same-Spin Energy          =      -0.4299781714580109 [Eh]
	 Opposite-Spin Energy      =      -1.3001322538231610 [Eh]
	 Correlation Energy        =      -1.7301104252811719 [Eh]
	 Total Energy              =   -1189.4274618203648970 [Eh]

	 ================> DF-SCS-MP2 Energies <==================
	-----------------------------------------------------------
	 SCS Same-Spin Scale       =       0.3333333333333333 [-]
	 SCS Opposite-Spin Scale   =       1.2000000000000000 [-]
	 SCS Same-Spin Energy      =      -0.1433260571526703 [Eh]
	 SCS Opposite-Spin Energy  =      -1.5601587045877932 [Eh]
	 SCS Correlation Energy    =      -1.7034847617404634 [Eh]
	 SCS Total Energy          =   -1189.4008361568239707 [Eh]
	-----------------------------------------------------------

  Dipole Moment: [D]
     X:     0.0388      Y:     2.0925      Z:     0.0348     Total:     2.0931

*** Psi4 exiting successfully. Buy a developer a beer!
