                               Psi4 1.4a3.dev225

  ==> Input File <==

--------------------------------------------------------------------------
#psi4
#
memory 32 gb

molecule  {
0 1
 Cl        2.7008340    -1.2489210     0.0016850
 Cl       -2.7008440    -1.2489040     0.0016850
  C        0.0000030     1.7216440    -0.0170270
  C       -1.2072320     1.0139100    -0.0094880
  C        1.2072370     1.0139020    -0.0094890
  C        0.0000180     3.2280150     0.0131190
  C        1.1931300    -0.3798000    -0.0002610
  C       -1.1911110    -0.5797794     0.0010630
  C       -0.0000050    -1.1002640     0.0063140
  H       -2.1570970     1.5426200    -0.0181830
  H        2.1571050     1.5426070    -0.0181850
  H        0.0002870     3.5975410     1.0439770
  H        0.8855000     3.6300440    -0.4862980
  H       -0.8857170     3.6300520    -0.4858430
  H       -0.0000070    -2.1855250     0.0098050
units angstrom
no_reorient  #important for SAPT in psi4, default
symmetry c1  #important for SAPT in psi4, default
}

set PROPERTIES_ORIGIN ["COM"]
properties('MP2/aug-cc-pvtz', properties = ['dipole'])
--------------------------------------------------------------------------

    Molecular point group: c1
  Charge       = 0
  Multiplicity = 1
  Basis Set: AUG-CC-PVTZ
    Blend: AUG-CC-PVTZ
  Basis Set: (AUG-CC-PVTZ AUX)
    Blend: AUG-CC-PVTZ-JKFIT

    Orbital Energies [Eh]
    ---------------------

    Doubly Occupied:

       1A   -104.859475     2A   -104.848578     3A    -11.317157
       4A    -11.316390     5A    -11.265386     6A    -11.264147
       7A    -11.255084     8A    -11.248076     9A    -11.238729
      10A    -10.584668    11A    -10.572243    12A     -8.051815
      13A     -8.049545    14A     -8.049511    15A     -8.039148
      16A     -8.037221    17A     -8.037219    18A     -1.216236
      19A     -1.173756    20A     -1.115919    21A     -1.056062
      22A     -0.984641    23A     -0.945897    24A     -0.838126
      25A     -0.796148    26A     -0.700845    27A     -0.676432
      28A     -0.645079    29A     -0.599533    30A     -0.593873
      31A     -0.576644    32A     -0.563640    33A     -0.561214
      34A     -0.527886    35A     -0.517595    36A     -0.516098
      37A     -0.461291    38A     -0.449479    39A     -0.448840
      40A     -0.360096    41A     -0.319930

  @DF-RHF Final Energy: -1187.66037382751233

   => Energetics <=

    Nuclear Repulsion Energy =            542.7614846883853943
    One-Electron Energy =               -2711.4844124182673113
    Two-Electron Energy =                 981.0625539023697002
    Total Energy =                      -1187.6603738275123305
  Basis Set: (AUG-CC-PVTZ AUX)
    Blend: AUG-CC-PVTZ-RI
    Molecular point group: c1

    Geometry (in Angstrom), charge = 0, multiplicity = 1:

       Center              X                  Y                   Z               Mass
    ------------   -----------------  -----------------  -----------------  -----------------
         CL           2.700682723823    -1.145878601113     0.001845988588    34.968852682000
         CL          -2.700995276177    -1.145861601113     0.001845988588    34.968852682000
         C           -0.000148276177     1.824686398887    -0.016866011412    12.000000000000
         C           -1.207383276177     1.116952398887    -0.009327011412    12.000000000000
         C            1.207085723823     1.116944398887    -0.009328011412    12.000000000000
         C           -0.000133276177     3.331057398887     0.013279988588    12.000000000000
         C            1.192978723823    -0.276757601113    -0.000100011412    12.000000000000
         C           -1.191262276177    -0.476737001113     0.001223988588    12.000000000000
         C           -0.000156276177    -0.997221601113     0.006474988588    12.000000000000
         H           -2.157248276177     1.645662398887    -0.018022011412     1.007825032230
         H            2.156953723823     1.645649398887    -0.018024011412     1.007825032230
         H            0.000135723823     3.700583398887     1.044137988588     1.007825032230
         H            0.885348723823     3.733086398887    -0.486137011412     1.007825032230
         H           -0.885868276177     3.733094398887    -0.485682011412     1.007825032230
         H           -0.000158276177    -2.082482601113     0.009965988588     1.007825032230

  Basis Set: AUG-CC-PVTZ
    Blend: AUG-CC-PVTZ
  Basis Set: (AUG-CC-PVTZ AUX)
    Blend: AUG-CC-PVTZ-JKFIT
	 Reference Energy          =   -1187.6603738275123305 [Eh]
	 Singles Energy            =      -0.0000000000000000 [Eh]
	 Same-Spin Energy          =      -0.4300872159954979 [Eh]
	 Opposite-Spin Energy      =      -1.3031362706879377 [Eh]
	 Correlation Energy        =      -1.7332234866834355 [Eh]
	 Total Energy              =   -1189.3935973141958584 [Eh]

	 ================> DF-SCS-MP2 Energies <==================
	-----------------------------------------------------------
	 SCS Same-Spin Scale       =       0.3333333333333333 [-]
	 SCS Opposite-Spin Scale   =       1.2000000000000000 [-]
	 SCS Same-Spin Energy      =      -0.1433624053318326 [Eh]
	 SCS Opposite-Spin Energy  =      -1.5637635248255253 [Eh]
	 SCS Correlation Energy    =      -1.7071259301573578 [Eh]
	 SCS Total Energy          =   -1189.3674997576697479 [Eh]
	-----------------------------------------------------------

  Dipole Moment: [D]
     X:    -0.4013      Y:     1.8074      Z:     0.0360     Total:     1.8517

*** Psi4 exiting successfully. Buy a developer a beer!
