                               Psi4 1.4a3.dev225

  ==> Input File <==

--------------------------------------------------------------------------
#psi4
#
memory 32 gb

molecule  {
0 1
 Cl        2.7008340    -1.2489210     0.0016850
 Cl       -2.7008440    -1.2489040     0.0016850
  C        0.0000030     1.7216440    -0.0170270
  C       -1.2072320     1.0139100    -0.0094880
  C        1.1549550     0.9314346    -0.0120792
  C        0.0000180     3.2280150     0.0131190
  C        1.1931300    -0.3798000    -0.0002610
  C       -1.1931340    -0.3797940    -0.0002610
  C       -0.0000050    -1.1002640     0.0063140
  H       -2.1570970     1.5426200    -0.0181830
  H        2.1571050     1.5426070    -0.0181850
  H        0.0002870     3.5975410     1.0439770
  H        0.8855000     3.6300440    -0.4862980
  H       -0.8857170     3.6300520    -0.4858430
  H       -0.0000070    -2.1855250     0.0098050
units angstrom
no_reorient  #important for SAPT in psi4, default
symmetry c1  #important for SAPT in psi4, default
}

set PROPERTIES_ORIGIN ["COM"]
properties('MP2/aug-cc-pvtz', properties = ['dipole'])
--------------------------------------------------------------------------

    Molecular point group: c1
  Charge       = 0
  Multiplicity = 1
  Basis Set: AUG-CC-PVTZ
    Blend: AUG-CC-PVTZ
  Basis Set: (AUG-CC-PVTZ AUX)
    Blend: AUG-CC-PVTZ-JKFIT

    Orbital Energies [Eh]
    ---------------------

    Doubly Occupied:

       1A   -104.849807     2A   -104.848131     3A    -11.315909
       4A    -11.307853     5A    -11.271527     6A    -11.260130
       7A    -11.254962     8A    -11.252900     9A    -11.244931
      10A    -10.573527    11A    -10.571916    12A     -8.040436
      13A     -8.038824    14A     -8.038484    15A     -8.038483
      16A     -8.036893    17A     -8.036892    18A     -1.218928
      19A     -1.162476    20A     -1.119306    21A     -1.045534
      22A     -1.003200    23A     -0.960957    24A     -0.828024
      25A     -0.816141    26A     -0.700380    27A     -0.686850
      28A     -0.625700    29A     -0.600642    30A     -0.595655
      31A     -0.585117    32A     -0.561555    33A     -0.560043
      34A     -0.534111    35A     -0.512130    36A     -0.500624
      37A     -0.468080    38A     -0.457601    39A     -0.454423
      40A     -0.349910    41A     -0.343152

  @DF-RHF Final Energy: -1187.68817447093375

   => Energetics <=

    Nuclear Repulsion Energy =            544.5369787085569442
    One-Electron Energy =               -2715.1060177934496096
    Two-Electron Energy =                 982.8808646139588063
    Total Energy =                      -1187.6881744709339728
  Basis Set: (AUG-CC-PVTZ AUX)
    Blend: AUG-CC-PVTZ-RI
    Molecular point group: c1

    Geometry (in Angstrom), charge = 0, multiplicity = 1:

       Center              X                  Y                   Z               Mass
    ------------   -----------------  -----------------  -----------------  -----------------
         CL           2.704755989461    -1.154693296466     0.002139581744    34.968852682000
         CL          -2.696922010539    -1.154676296466     0.002139581744    34.968852682000
         C            0.003924989461     1.815871703534    -0.016572418256    12.000000000000
         C           -1.203310010539     1.108137703534    -0.009033418256    12.000000000000
         C            1.158876989461     1.025662303534    -0.011624618256    12.000000000000
         C            0.003939989461     3.322242703534     0.013573581744    12.000000000000
         C            1.197051989461    -0.285572296466     0.000193581744    12.000000000000
         C           -1.189212010539    -0.285566296466     0.000193581744    12.000000000000
         C            0.003916989461    -1.006036296466     0.006768581744    12.000000000000
         H           -2.153175010539     1.636847703534    -0.017728418256     1.007825032230
         H            2.161026989461     1.636834703534    -0.017730418256     1.007825032230
         H            0.004208989461     3.691768703534     1.044431581744     1.007825032230
         H            0.889421989461     3.724271703534    -0.485843418256     1.007825032230
         H           -0.881795010539     3.724279703534    -0.485388418256     1.007825032230
         H            0.003914989461    -2.091297296466     0.010259581744     1.007825032230

  Basis Set: AUG-CC-PVTZ
    Blend: AUG-CC-PVTZ
  Basis Set: (AUG-CC-PVTZ AUX)
    Blend: AUG-CC-PVTZ-JKFIT
	 Reference Energy          =   -1187.6881744709337454 [Eh]
	 Singles Energy            =      -0.0000000000000000 [Eh]
	 Same-Spin Energy          =      -0.4300579109244492 [Eh]
	 Opposite-Spin Energy      =      -1.3002270585681128 [Eh]
	 Correlation Energy        =      -1.7302849694925619 [Eh]
	 Total Energy              =   -1189.4184594404262043 [Eh]

	 ================> DF-SCS-MP2 Energies <==================
	-----------------------------------------------------------
	 SCS Same-Spin Scale       =       0.3333333333333333 [-]
	 SCS Opposite-Spin Scale   =       1.2000000000000000 [-]
	 SCS Same-Spin Energy      =      -0.1433526369748164 [Eh]
	 SCS Opposite-Spin Energy  =      -1.5602724702817354 [Eh]
	 SCS Correlation Energy    =      -1.7036251072565518 [Eh]
	 SCS Total Energy          =   -1189.3917995781903301 [Eh]
	-----------------------------------------------------------

  Dipole Moment: [D]
     X:    -0.0307      Y:     2.2019      Z:     0.0375     Total:     2.2025

*** Psi4 exiting successfully. Buy a developer a beer!
