                               Psi4 1.4a3.dev225

  ==> Input File <==

--------------------------------------------------------------------------
#psi4
#
memory 32 gb

molecule  {
0 1
 Cl        2.7008340    -1.2489210     0.0016850
 Cl       -2.7008440    -1.2489040     0.0016850
  C       -0.0523093     1.8041238    -0.0182249
  C       -1.2072320     1.0139100    -0.0094880
  C        1.2072370     1.0139020    -0.0094890
  C        0.0000180     3.2280150     0.0131190
  C        1.1931300    -0.3798000    -0.0002610
  C       -1.1931340    -0.3797940    -0.0002610
  C       -0.0000050    -1.1002640     0.0063140
  H       -2.1570970     1.5426200    -0.0181830
  H        2.1571050     1.5426070    -0.0181850
  H        0.0002870     3.5975410     1.0439770
  H        0.8855000     3.6300440    -0.4862980
  H       -0.8857170     3.6300520    -0.4858430
  H       -0.0000070    -2.1855250     0.0098050
units angstrom
no_reorient  #important for SAPT in psi4, default
symmetry c1  #important for SAPT in psi4, default
}

set PROPERTIES_ORIGIN ["COM"]
properties('MP2/aug-cc-pvtz', properties = ['dipole'])
--------------------------------------------------------------------------

    Molecular point group: c1
  Charge       = 0
  Multiplicity = 1
  Basis Set: AUG-CC-PVTZ
    Blend: AUG-CC-PVTZ
  Basis Set: (AUG-CC-PVTZ AUX)
    Blend: AUG-CC-PVTZ-JKFIT

    Orbital Energies [Eh]
    ---------------------

    Doubly Occupied:

       1A   -104.849496     2A   -104.848396     3A    -11.318180
       4A    -11.316675     5A    -11.277575     6A    -11.261804
       7A    -11.260401     8A    -11.254883     9A    -11.240407
      10A    -10.573205    11A    -10.572161    12A     -8.040113
      13A     -8.039068    14A     -8.038174    15A     -8.038173
      16A     -8.037131    17A     -8.037128    18A     -1.208056
      19A     -1.159882    20A     -1.119658    21A     -1.050783
      22A     -0.992851    23A     -0.963620    24A     -0.823562
      25A     -0.809945    26A     -0.703059    27A     -0.680715
      28A     -0.636202    29A     -0.605888    30A     -0.597752
      31A     -0.586963    32A     -0.567920    33A     -0.555106
      34A     -0.541740    35A     -0.510218    36A     -0.499815
      37A     -0.467086    38A     -0.456963    39A     -0.447401
      40A     -0.345169    41A     -0.334252

  @DF-RHF Final Energy: -1187.68662946294785

   => Energetics <=

    Nuclear Repulsion Energy =            541.8198113821351853
    One-Electron Energy =               -2709.6777264960778666
    Two-Electron Energy =                 980.1712856509950598
    Total Energy =                      -1187.6866294629478489
  Basis Set: (AUG-CC-PVTZ AUX)
    Blend: AUG-CC-PVTZ-RI
    Molecular point group: c1

    Geometry (in Angstrom), charge = 0, multiplicity = 1:

       Center              X                  Y                   Z               Mass
    ------------   -----------------  -----------------  -----------------  -----------------
         CL           2.704758262179    -1.167065522997     0.002035149229    34.968852682000
         CL          -2.696919737821    -1.167048522997     0.002035149229    34.968852682000
         C           -0.048385037821     1.885979277003    -0.017874750771    12.000000000000
         C           -1.203307737821     1.095765477003    -0.009137850771    12.000000000000
         C            1.211161262179     1.095757477003    -0.009138850771    12.000000000000
         C            0.003942262179     3.309870477003     0.013469149229    12.000000000000
         C            1.197054262179    -0.297944522997     0.000089149229    12.000000000000
         C           -1.189209737821    -0.297938522997     0.000089149229    12.000000000000
         C            0.003919262179    -1.018408522997     0.006664149229    12.000000000000
         H           -2.153172737821     1.624475477003    -0.017832850771     1.007825032230
         H            2.161029262179     1.624462477003    -0.017834850771     1.007825032230
         H            0.004211262179     3.679396477003     1.044327149229     1.007825032230
         H            0.889424262179     3.711899477003    -0.485947850771     1.007825032230
         H           -0.881792737821     3.711907477003    -0.485492850771     1.007825032230
         H            0.003917262179    -2.103669522997     0.010155149229     1.007825032230

  Basis Set: AUG-CC-PVTZ
    Blend: AUG-CC-PVTZ
  Basis Set: (AUG-CC-PVTZ AUX)
    Blend: AUG-CC-PVTZ-JKFIT
	 Reference Energy          =   -1187.6866294629478489 [Eh]
	 Singles Energy            =      -0.0000000000000000 [Eh]
	 Same-Spin Energy          =      -0.4308390865115623 [Eh]
	 Opposite-Spin Energy      =      -1.3018585076056932 [Eh]
	 Correlation Energy        =      -1.7326975941172555 [Eh]
	 Total Energy              =   -1189.4193270570651748 [Eh]

	 ================> DF-SCS-MP2 Energies <==================
	-----------------------------------------------------------
	 SCS Same-Spin Scale       =       0.3333333333333333 [-]
	 SCS Opposite-Spin Scale   =       1.2000000000000000 [-]
	 SCS Same-Spin Energy      =      -0.1436130288371874 [Eh]
	 SCS Opposite-Spin Energy  =      -1.5622302091268319 [Eh]
	 SCS Correlation Energy    =      -1.7058432379640194 [Eh]
	 SCS Total Energy          =   -1189.3924727009118669 [Eh]
	-----------------------------------------------------------

  Dipole Moment: [D]
     X:    -0.0247      Y:     2.2980      Z:     0.0459     Total:     2.2986

*** Psi4 exiting successfully. Buy a developer a beer!
