                               Psi4 1.4a3.dev225

  ==> Input File <==

--------------------------------------------------------------------------
#psi4
#
memory 32 gb

molecule  {
0 1
 Cl        2.7008340    -1.2489210     0.0016850
 Cl       -2.7008440    -1.2489040     0.0016850
  C        0.0000030     1.7216440    -0.0170270
  C       -1.2072320     1.0139100    -0.0094880
  C        1.2072370     1.0139020    -0.0094890
  C        0.0000200     3.4279750     0.0171207
  C        1.1931300    -0.3798000    -0.0002610
  C       -1.1931340    -0.3797940    -0.0002610
  C       -0.0000050    -1.1002640     0.0063140
  H       -2.1570970     1.5426200    -0.0181830
  H        2.1571050     1.5426070    -0.0181850
  H        0.0002870     3.5975410     1.0439770
  H        0.8855000     3.6300440    -0.4862980
  H       -0.8857170     3.6300520    -0.4858430
  H       -0.0000070    -2.1855250     0.0098050
units angstrom
no_reorient  #important for SAPT in psi4, default
symmetry c1  #important for SAPT in psi4, default
}

set PROPERTIES_ORIGIN ["COM"]
properties('MP2/aug-cc-pvtz', properties = ['dipole'])
--------------------------------------------------------------------------

    Molecular point group: c1
  Charge       = 0
  Multiplicity = 1
  Basis Set: AUG-CC-PVTZ
    Blend: AUG-CC-PVTZ
  Basis Set: (AUG-CC-PVTZ AUX)
    Blend: AUG-CC-PVTZ-JKFIT

    Orbital Energies [Eh]
    ---------------------

    Doubly Occupied:

       1A   -104.848557     2A   -104.848556     3A    -11.317409
       4A    -11.317402     5A    -11.275974     6A    -11.259776
       7A    -11.254736     8A    -11.254692     9A    -11.243221
      10A    -10.572354    11A    -10.572354    12A     -8.039258
      13A     -8.039258    14A     -8.037331    15A     -8.037331
      16A     -8.037326    17A     -8.037325    18A     -1.209883
      19A     -1.160100    20A     -1.108581    21A     -1.034233
      22A     -0.996563    23A     -0.963998    24A     -0.820314
      25A     -0.816962    26A     -0.706495    27A     -0.678636
      28A     -0.619067    29A     -0.616598    30A     -0.600320
      31A     -0.591894    32A     -0.579537    33A     -0.562190
      34A     -0.520913    35A     -0.510088    36A     -0.488535
      37A     -0.457387    38A     -0.455197    39A     -0.453941
      40A     -0.347970    41A     -0.340857

  @DF-RHF Final Energy: -1187.67326622538167

   => Energetics <=

    Nuclear Repulsion Energy =            539.3559025987773339
    One-Electron Energy =               -2704.7920988534547178
    Two-Electron Energy =                 977.7629300292957168
    Total Energy =                      -1187.6732662253816670
  Basis Set: (AUG-CC-PVTZ AUX)
    Blend: AUG-CC-PVTZ-RI
    Molecular point group: c1

    Geometry (in Angstrom), charge = 0, multiplicity = 1:

       Center              X                  Y                   Z               Mass
    ------------   -----------------  -----------------  -----------------  -----------------
         CL           2.700834313361    -1.175877383079     0.001645141826    34.968852682000
         CL          -2.700843686639    -1.175860383079     0.001645141826    34.968852682000
         C            0.000003313361     1.794687616921    -0.017066858174    12.000000000000
         C           -1.207231686639     1.086953616921    -0.009527858174    12.000000000000
         C            1.207237313361     1.086945616921    -0.009528858174    12.000000000000
         C            0.000020313361     3.501018616921     0.017080841826    12.000000000000
         C            1.193130313361    -0.306756383079    -0.000300858174    12.000000000000
         C           -1.193133686639    -0.306750383079    -0.000300858174    12.000000000000
         C           -0.000004686639    -1.027220383079     0.006274141826    12.000000000000
         H           -2.157096686639     1.615663616921    -0.018222858174     1.007825032230
         H            2.157105313361     1.615650616921    -0.018224858174     1.007825032230
         H            0.000287313361     3.670584616921     1.043937141826     1.007825032230
         H            0.885500313361     3.703087616921    -0.486337858174     1.007825032230
         H           -0.885716686639     3.703095616921    -0.485882858174     1.007825032230
         H           -0.000006686639    -2.112481383079     0.009765141826     1.007825032230

  Basis Set: AUG-CC-PVTZ
    Blend: AUG-CC-PVTZ
  Basis Set: (AUG-CC-PVTZ AUX)
    Blend: AUG-CC-PVTZ-JKFIT
	 Reference Energy          =   -1187.6732662253816670 [Eh]
	 Singles Energy            =      -0.0000000000000000 [Eh]
	 Same-Spin Energy          =      -0.4296525893363000 [Eh]
	 Opposite-Spin Energy      =      -1.3009657220040052 [Eh]
	 Correlation Energy        =      -1.7306183113403053 [Eh]
	 Total Energy              =   -1189.4038845367219892 [Eh]

	 ================> DF-SCS-MP2 Energies <==================
	-----------------------------------------------------------
	 SCS Same-Spin Scale       =       0.3333333333333333 [-]
	 SCS Opposite-Spin Scale   =       1.2000000000000000 [-]
	 SCS Same-Spin Energy      =      -0.1432175297787667 [Eh]
	 SCS Opposite-Spin Energy  =      -1.5611588664048062 [Eh]
	 SCS Correlation Energy    =      -1.7043763961835727 [Eh]
	 SCS Total Energy          =   -1189.3776426215652009 [Eh]
	-----------------------------------------------------------

  Dipole Moment: [D]
     X:     0.0000      Y:     2.0949      Z:     0.0292     Total:     2.0951

*** Psi4 exiting successfully. Buy a developer a beer!
