                               Psi4 1.4a3.dev225

  ==> Input File <==

--------------------------------------------------------------------------
#psi4
#
memory 32 gb

molecule  {
0 1
 Cl        2.7008340    -1.2489210     0.0016850
 Cl       -2.7008440    -1.2489040     0.0016850
  C        0.0000030     1.7216440    -0.0170270
  C       -1.2072320     1.0139100    -0.0094880
  C        1.2072370     1.0139020    -0.0094890
  C        0.0000180     3.2280150     0.0131190
  C        1.1931300    -0.3798000    -0.0002610
  C       -1.1931340    -0.3797940    -0.0002610
  C       -0.0000050    -1.1002640     0.0063140
  H       -2.1570970     1.5426200    -0.0181830
  H        2.1571050     1.5426070    -0.0181850
  H       -0.0647121     3.6344242     1.0279389
  H        0.8855000     3.6300440    -0.4862980
  H       -0.8857170     3.6300520    -0.4858430
  H       -0.0000070    -2.1855250     0.0098050
units angstrom
no_reorient  #important for SAPT in psi4, default
symmetry c1  #important for SAPT in psi4, default
}

set PROPERTIES_ORIGIN ["COM"]
properties('MP2/aug-cc-pvtz', properties = ['dipole'])
--------------------------------------------------------------------------

    Molecular point group: c1
  Charge       = 0
  Multiplicity = 1
  Basis Set: AUG-CC-PVTZ
    Blend: AUG-CC-PVTZ
  Basis Set: (AUG-CC-PVTZ AUX)
    Blend: AUG-CC-PVTZ-JKFIT

    Orbital Energies [Eh]
    ---------------------

    Doubly Occupied:

       1A   -104.849325     2A   -104.849304     3A    -11.318283
       4A    -11.318266     5A    -11.271455     6A    -11.260675
       7A    -11.255227     8A    -11.255169     9A    -11.241635
      10A    -10.573110    11A    -10.573087    12A     -8.040013
      13A     -8.039991    14A     -8.038086    15A     -8.038079
      16A     -8.038063    17A     -8.038057    18A     -1.212178
      19A     -1.160902    20A     -1.118485    21A     -1.043566
      22A     -0.998306    23A     -0.958823    24A     -0.823185
      25A     -0.816564    26A     -0.707718    27A     -0.682447
      28A     -0.627319    29A     -0.597957    30A     -0.594810
      31A     -0.593074    32A     -0.563942    33A     -0.554247
      34A     -0.526602    35A     -0.517467    36A     -0.510813
      37A     -0.466188    38A     -0.457909    39A     -0.452076
      40A     -0.346202    41A     -0.341935

  @DF-RHF Final Energy: -1187.69968533088309

   => Energetics <=

    Nuclear Repulsion Energy =            542.7630972439856123
    One-Electron Energy =               -2711.5844841196530979
    Two-Electron Energy =                 981.1217015447842869
    Total Energy =                      -1187.6996853308833124
  Basis Set: (AUG-CC-PVTZ AUX)
    Blend: AUG-CC-PVTZ-RI
    Molecular point group: c1

    Geometry (in Angstrom), charge = 0, multiplicity = 1:

       Center              X                  Y                   Z               Mass
    ------------   -----------------  -----------------  -----------------  -----------------
         CL           2.701243925894    -1.161111290796     0.002046330293    34.968852682000
         CL          -2.700434074106    -1.161094290796     0.002046330293    34.968852682000
         C            0.000412925894     1.809453709204    -0.016665669707    12.000000000000
         C           -1.206822074106     1.101719709204    -0.009126669707    12.000000000000
         C            1.207646925894     1.101711709204    -0.009127669707    12.000000000000
         C            0.000427925894     3.315824709204     0.013480330293    12.000000000000
         C            1.193539925894    -0.291990290796     0.000100330293    12.000000000000
         C           -1.192724074106    -0.291984290796     0.000100330293    12.000000000000
         C            0.000404925894    -1.012454290796     0.006675330293    12.000000000000
         H           -2.156687074106     1.630429709204    -0.017821669707     1.007825032230
         H            2.157514925894     1.630416709204    -0.017823669707     1.007825032230
         H           -0.064302174106     3.722233909204     1.028300230293     1.007825032230
         H            0.885909925894     3.717853709204    -0.485936669707     1.007825032230
         H           -0.885307074106     3.717861709204    -0.485481669707     1.007825032230
         H            0.000402925894    -2.097715290796     0.010166330293     1.007825032230

  Basis Set: AUG-CC-PVTZ
    Blend: AUG-CC-PVTZ
  Basis Set: (AUG-CC-PVTZ AUX)
    Blend: AUG-CC-PVTZ-JKFIT
	 Reference Energy          =   -1187.6996853308830850 [Eh]
	 Singles Energy            =      -0.0000000000000000 [Eh]
	 Same-Spin Energy          =      -0.4299043406494252 [Eh]
	 Opposite-Spin Energy      =      -1.3000281495241304 [Eh]
	 Correlation Energy        =      -1.7299324901735555 [Eh]
	 Total Energy              =   -1189.4296178210565813 [Eh]

	 ================> DF-SCS-MP2 Energies <==================
	-----------------------------------------------------------
	 SCS Same-Spin Scale       =       0.3333333333333333 [-]
	 SCS Opposite-Spin Scale   =       1.2000000000000000 [-]
	 SCS Same-Spin Energy      =      -0.1433014468831417 [Eh]
	 SCS Opposite-Spin Energy  =      -1.5600337794289565 [Eh]
	 SCS Correlation Energy    =      -1.7033352263120982 [Eh]
	 SCS Total Energy          =   -1189.4030205571950773 [Eh]
	-----------------------------------------------------------

  Dipole Moment: [D]
     X:    -0.0259      Y:     2.1341      Z:     0.0350     Total:     2.1345

*** Psi4 exiting successfully. Buy a developer a beer!
