                               Psi4 1.4a3.dev225

  ==> Input File <==

--------------------------------------------------------------------------
#psi4
#
memory 32 gb

molecule  {
0 1
 Cl        2.7008340    -1.2489210     0.0016850
 Cl       -2.7008440    -1.2489040     0.0016850
  C        0.0000030     1.7216440    -0.0170270
  C       -1.2072320     1.0139100    -0.0094880
  C        1.2311872     1.0564545    -0.0082069
  C        0.0000180     3.2280150     0.0131190
  C        1.1931300    -0.3798000    -0.0002610
  C       -1.1931340    -0.3797940    -0.0002610
  C       -0.0000050    -1.1002640     0.0063140
  H       -2.1570970     1.5426200    -0.0181830
  H        2.1571050     1.5426070    -0.0181850
  H        0.0002870     3.5975410     1.0439770
  H        0.8855000     3.6300440    -0.4862980
  H       -0.8857170     3.6300520    -0.4858430
  H       -0.0000070    -2.1855250     0.0098050
units angstrom
no_reorient  #important for SAPT in psi4, default
symmetry c1  #important for SAPT in psi4, default
}

set PROPERTIES_ORIGIN ["COM"]
properties('MP2/aug-cc-pvtz', properties = ['dipole'])
--------------------------------------------------------------------------

    Molecular point group: c1
  Charge       = 0
  Multiplicity = 1
  Basis Set: AUG-CC-PVTZ
    Blend: AUG-CC-PVTZ
  Basis Set: (AUG-CC-PVTZ AUX)
    Blend: AUG-CC-PVTZ-JKFIT

    Orbital Energies [Eh]
    ---------------------

    Doubly Occupied:

       1A   -104.849934     2A   -104.849061     3A    -11.323038
       4A    -11.319521     5A    -11.271400     6A    -11.260680
       7A    -11.256134     8A    -11.255094     9A    -11.240355
      10A    -10.573717    11A    -10.572871    12A     -8.040618
      13A     -8.039770    14A     -8.038694    15A     -8.038683
      16A     -8.037855    17A     -8.037843    18A     -1.209559
      19A     -1.160036    20A     -1.118360    21A     -1.043572
      22A     -0.996077    23A     -0.957392    24A     -0.825973
      25A     -0.811452    26A     -0.712103    27A     -0.679772
      28A     -0.628963    29A     -0.599272    30A     -0.596898
      31A     -0.593937    32A     -0.564085    33A     -0.554402
      34A     -0.525529    35A     -0.518285    36A     -0.510118
      37A     -0.464788    38A     -0.457541    39A     -0.451180
      40A     -0.347605    41A     -0.338265

  @DF-RHF Final Energy: -1187.69652363301134

   => Energetics <=

    Nuclear Repulsion Energy =            542.0141317101821414
    One-Electron Energy =               -2710.0804475383351928
    Two-Electron Energy =                 980.3697921951419403
    Total Energy =                      -1187.6965236330111111
  Basis Set: (AUG-CC-PVTZ AUX)
    Blend: AUG-CC-PVTZ-RI
    Molecular point group: c1

    Geometry (in Angstrom), charge = 0, multiplicity = 1:

       Center              X                  Y                   Z               Mass
    ------------   -----------------  -----------------  -----------------  -----------------
         CL           2.699038026092    -1.164070688284     0.001849131389    34.968852682000
         CL          -2.702639973908    -1.164053688284     0.001849131389    34.968852682000
         C           -0.001792973908     1.806494311716    -0.016862868611    12.000000000000
         C           -1.209027973908     1.098760311716    -0.009323868611    12.000000000000
         C            1.229391226092     1.141304811716    -0.008042768611    12.000000000000
         C           -0.001777973908     3.312865311716     0.013283131389    12.000000000000
         C            1.191334026092    -0.294949688284    -0.000096868611    12.000000000000
         C           -1.194929973908    -0.294943688284    -0.000096868611    12.000000000000
         C           -0.001800973908    -1.015413688284     0.006478131389    12.000000000000
         H           -2.158892973908     1.627470311716    -0.018018868611     1.007825032230
         H            2.155309026092     1.627457311716    -0.018020868611     1.007825032230
         H           -0.001508973908     3.682391311716     1.044141131389     1.007825032230
         H            0.883704026092     3.714894311716    -0.486133868611     1.007825032230
         H           -0.887512973908     3.714902311716    -0.485678868611     1.007825032230
         H           -0.001802973908    -2.100674688284     0.009969131389     1.007825032230

  Basis Set: AUG-CC-PVTZ
    Blend: AUG-CC-PVTZ
  Basis Set: (AUG-CC-PVTZ AUX)
    Blend: AUG-CC-PVTZ-JKFIT
	 Reference Energy          =   -1187.6965236330113385 [Eh]
	 Singles Energy            =      -0.0000000000000000 [Eh]
	 Same-Spin Energy          =      -0.4299029043702549 [Eh]
	 Opposite-Spin Energy      =      -1.3004243723361599 [Eh]
	 Correlation Energy        =      -1.7303272767064148 [Eh]
	 Total Energy              =   -1189.4268509097178139 [Eh]

	 ================> DF-SCS-MP2 Energies <==================
	-----------------------------------------------------------
	 SCS Same-Spin Scale       =       0.3333333333333333 [-]
	 SCS Opposite-Spin Scale   =       1.2000000000000000 [-]
	 SCS Same-Spin Energy      =      -0.1433009681234183 [Eh]
	 SCS Opposite-Spin Energy  =      -1.5605092468033919 [Eh]
	 SCS Correlation Energy    =      -1.7038102149268102 [Eh]
	 SCS Total Energy          =   -1189.4003338479381000 [Eh]
	-----------------------------------------------------------

  Dipole Moment: [D]
     X:     0.0030      Y:     2.1027      Z:     0.0345     Total:     2.1030

*** Psi4 exiting successfully. Buy a developer a beer!
