                               Psi4 1.4a3.dev225

  ==> Input File <==

--------------------------------------------------------------------------
#psi4
#
memory 32 gb

molecule  {
0 1
 Cl        2.7008340    -1.2489210     0.0016850
 Cl       -2.7008440    -1.2489040     0.0016850
  C        0.0239684     1.6790853    -0.0164139
  C       -1.2072320     1.0139100    -0.0094880
  C        1.2072370     1.0139020    -0.0094890
  C        0.0000180     3.2280150     0.0131190
  C        1.1931300    -0.3798000    -0.0002610
  C       -1.1931340    -0.3797940    -0.0002610
  C       -0.0000050    -1.1002640     0.0063140
  H       -2.1570970     1.5426200    -0.0181830
  H        2.1571050     1.5426070    -0.0181850
  H        0.0002870     3.5975410     1.0439770
  H        0.8855000     3.6300440    -0.4862980
  H       -0.8857170     3.6300520    -0.4858430
  H       -0.0000070    -2.1855250     0.0098050
units angstrom
no_reorient  #important for SAPT in psi4, default
symmetry c1  #important for SAPT in psi4, default
}

set PROPERTIES_ORIGIN ["COM"]
properties('MP2/aug-cc-pvtz', properties = ['dipole'])
--------------------------------------------------------------------------

    Molecular point group: c1
  Charge       = 0
  Multiplicity = 1
  Basis Set: AUG-CC-PVTZ
    Blend: AUG-CC-PVTZ
  Basis Set: (AUG-CC-PVTZ AUX)
    Blend: AUG-CC-PVTZ-JKFIT

    Orbital Energies [Eh]
    ---------------------

    Doubly Occupied:

       1A   -104.849598     2A   -104.849074     3A    -11.318951
       4A    -11.318283     5A    -11.267931     6A    -11.260357
       7A    -11.255223     8A    -11.250953     9A    -11.242463
      10A    -10.573398    11A    -10.572899    12A     -8.040298
      13A     -8.039800    14A     -8.038378    15A     -8.038367
      16A     -8.037879    17A     -8.037869    18A     -1.214627
      19A     -1.161309    20A     -1.119698    21A     -1.040657
      22A     -1.001562    23A     -0.955240    24A     -0.825570
      25A     -0.815771    26A     -0.709867    27A     -0.683380
      28A     -0.623990    29A     -0.599548    30A     -0.595387
      31A     -0.592150    32A     -0.561472    33A     -0.556283
      34A     -0.525117    35A     -0.514398    36A     -0.510974
      37A     -0.464476    38A     -0.458063    39A     -0.454816
      40A     -0.350490    41A     -0.341818

  @DF-RHF Final Energy: -1187.69826417244008

   => Energetics <=

    Nuclear Repulsion Energy =            543.3968120448732861
    One-Electron Energy =               -2712.8533834383606518
    Two-Electron Energy =                 981.7583072210471755
    Total Energy =                      -1187.6982641724398491
  Basis Set: (AUG-CC-PVTZ AUX)
    Blend: AUG-CC-PVTZ-RI
    Molecular point group: c1

    Geometry (in Angstrom), charge = 0, multiplicity = 1:

       Center              X                  Y                   Z               Mass
    ------------   -----------------  -----------------  -----------------  -----------------
         CL           2.699036885983    -1.157686736045     0.001899311202    34.968852682000
         CL          -2.702641114017    -1.157669736045     0.001899311202    34.968852682000
         C            0.022171285983     1.770319563955    -0.016199588798    12.000000000000
         C           -1.209029114017     1.105144263955    -0.009273688798    12.000000000000
         C            1.205439885983     1.105136263955    -0.009274688798    12.000000000000
         C           -0.001779114017     3.319249263955     0.013333311202    12.000000000000
         C            1.191332885983    -0.288565736045    -0.000046688798    12.000000000000
         C           -1.194931114017    -0.288559736045    -0.000046688798    12.000000000000
         C           -0.001802114017    -1.009029736045     0.006528311202    12.000000000000
         H           -2.158894114017     1.633854263955    -0.017968688798     1.007825032230
         H            2.155307885983     1.633841263955    -0.017970688798     1.007825032230
         H           -0.001510114017     3.688775263955     1.044191311202     1.007825032230
         H            0.883702885983     3.721278263955    -0.486083688798     1.007825032230
         H           -0.887514114017     3.721286263955    -0.485628688798     1.007825032230
         H           -0.001804114017    -2.094290736045     0.010019311202     1.007825032230

  Basis Set: AUG-CC-PVTZ
    Blend: AUG-CC-PVTZ
  Basis Set: (AUG-CC-PVTZ AUX)
    Blend: AUG-CC-PVTZ-JKFIT
	 Reference Energy          =   -1187.6982641724400764 [Eh]
	 Singles Energy            =      -0.0000000000000000 [Eh]
	 Same-Spin Energy          =      -0.4296217765678049 [Eh]
	 Opposite-Spin Energy      =      -1.2996645067641865 [Eh]
	 Correlation Energy        =      -1.7292862833319913 [Eh]
	 Total Energy              =   -1189.4275504557720069 [Eh]

	 ================> DF-SCS-MP2 Energies <==================
	-----------------------------------------------------------
	 SCS Same-Spin Scale       =       0.3333333333333333 [-]
	 SCS Opposite-Spin Scale   =       1.2000000000000000 [-]
	 SCS Same-Spin Energy      =      -0.1432072588559349 [Eh]
	 SCS Opposite-Spin Energy  =      -1.5595974081170239 [Eh]
	 SCS Correlation Energy    =      -1.7028046669729588 [Eh]
	 SCS Total Energy          =   -1189.4010688394130284 [Eh]
	-----------------------------------------------------------

  Dipole Moment: [D]
     X:     0.0111      Y:     2.0655      Z:     0.0309     Total:     2.0658

*** Psi4 exiting successfully. Buy a developer a beer!
