                               Psi4 1.4a3.dev225

  ==> Input File <==

--------------------------------------------------------------------------
#psi4
#
memory 32 gb

molecule  {
0 1
 Cl        2.7008340    -1.2489210     0.0016850
 Cl       -2.7008440    -1.2489040     0.0016850
  C        0.0000030     1.7216440    -0.0170270
  C       -1.2072320     1.0139100    -0.0094880
  C        1.2072370     1.0139020    -0.0094890
  C        0.0000180     3.2280150     0.0131190
  C        1.2055226    -0.4007319    -0.0000700
  C       -1.1931340    -0.3797940    -0.0002610
  C       -0.0000050    -1.1002640     0.0063140
  H       -2.1570970     1.5426200    -0.0181830
  H        2.1571050     1.5426070    -0.0181850
  H        0.0002870     3.5975410     1.0439770
  H        0.8855000     3.6300440    -0.4862980
  H       -0.8857170     3.6300520    -0.4858430
  H       -0.0000070    -2.1855250     0.0098050
units angstrom
no_reorient  #important for SAPT in psi4, default
symmetry c1  #important for SAPT in psi4, default
}

set PROPERTIES_ORIGIN ["COM"]
properties('MP2/aug-cc-pvtz', properties = ['dipole'])
--------------------------------------------------------------------------

    Molecular point group: c1
  Charge       = 0
  Multiplicity = 1
  Basis Set: AUG-CC-PVTZ
    Blend: AUG-CC-PVTZ
  Basis Set: (AUG-CC-PVTZ AUX)
    Blend: AUG-CC-PVTZ-JKFIT

    Orbital Energies [Eh]
    ---------------------

    Doubly Occupied:

       1A   -104.851642     2A   -104.848898     3A    -11.318685
       4A    -11.317594     5A    -11.270200     6A    -11.259723
       7A    -11.256121     8A    -11.254562     9A    -11.241323
      10A    -10.575724    11A    -10.572669    12A     -8.042681
      13A     -8.040686    14A     -8.040673    15A     -8.039573
      16A     -8.037645    17A     -8.037641    18A     -1.211544
      19A     -1.163655    20A     -1.118892    21A     -1.043309
      22A     -0.995357    23A     -0.957245    24A     -0.823730
      25A     -0.813951    26A     -0.705747    27A     -0.680846
      28A     -0.629551    29A     -0.597364    30A     -0.595185
      31A     -0.591433    32A     -0.563364    33A     -0.555981
      34A     -0.525196    35A     -0.519290    36A     -0.512369
      37A     -0.466041    38A     -0.458244    39A     -0.451637
      40A     -0.345884    41A     -0.338712

  @DF-RHF Final Energy: -1187.69905938040961

   => Energetics <=

    Nuclear Repulsion Energy =            542.7599173615896007
    One-Electron Energy =               -2711.5768222478563985
    Two-Electron Energy =                 981.1178455058573036
    Total Energy =                      -1187.6990593804096079
  Basis Set: (AUG-CC-PVTZ AUX)
    Blend: AUG-CC-PVTZ-RI
    Molecular point group: c1

    Geometry (in Angstrom), charge = 0, multiplicity = 1:

       Center              X                  Y                   Z               Mass
    ------------   -----------------  -----------------  -----------------  -----------------
         CL           2.699904929230    -1.159308901616     0.001930971738    34.968852682000
         CL          -2.701773070770    -1.159291901616     0.001930971738    34.968852682000
         C           -0.000926070770     1.811256098384    -0.016781028262    12.000000000000
         C           -1.208161070770     1.103522098384    -0.009242028262    12.000000000000
         C            1.206307929230     1.103514098384    -0.009243028262    12.000000000000
         C           -0.000911070770     3.317627098384     0.013364971738    12.000000000000
         C            1.204593529230    -0.311119801616     0.000175971738    12.000000000000
         C           -1.194063070770    -0.290181901616    -0.000015028262    12.000000000000
         C           -0.000934070770    -1.010651901616     0.006559971738    12.000000000000
         H           -2.158026070770     1.632232098384    -0.017937028262     1.007825032230
         H            2.156175929230     1.632219098384    -0.017939028262     1.007825032230
         H           -0.000642070770     3.687153098384     1.044222971738     1.007825032230
         H            0.884570929230     3.719656098384    -0.486052028262     1.007825032230
         H           -0.886646070770     3.719664098384    -0.485597028262     1.007825032230
         H           -0.000936070770    -2.095912901616     0.010050971738     1.007825032230

  Basis Set: AUG-CC-PVTZ
    Blend: AUG-CC-PVTZ
  Basis Set: (AUG-CC-PVTZ AUX)
    Blend: AUG-CC-PVTZ-JKFIT
	 Reference Energy          =   -1187.6990593804096079 [Eh]
	 Singles Energy            =      -0.0000000000000000 [Eh]
	 Same-Spin Energy          =      -0.4300918018527182 [Eh]
	 Opposite-Spin Energy      =      -1.3003543868320508 [Eh]
	 Correlation Energy        =      -1.7304461886847691 [Eh]
	 Total Energy              =   -1189.4295055690943173 [Eh]

	 ================> DF-SCS-MP2 Energies <==================
	-----------------------------------------------------------
	 SCS Same-Spin Scale       =       0.3333333333333333 [-]
	 SCS Opposite-Spin Scale   =       1.2000000000000000 [-]
	 SCS Same-Spin Energy      =      -0.1433639339509061 [Eh]
	 SCS Opposite-Spin Energy  =      -1.5604252641984611 [Eh]
	 SCS Correlation Energy    =      -1.7037891981493671 [Eh]
	 SCS Total Energy          =   -1189.4028485785590874 [Eh]
	-----------------------------------------------------------

  Dipole Moment: [D]
     X:     0.0967      Y:     2.0741      Z:     0.0354     Total:     2.0766

*** Psi4 exiting successfully. Buy a developer a beer!
