                               Psi4 1.4a3.dev225

  ==> Input File <==

--------------------------------------------------------------------------
#psi4
#
memory 32 gb

molecule  {
0 1
 Cl        2.7008340    -1.2489210     0.0016850
 Cl       -2.7008440    -1.2489040     0.0016850
  C        0.0000030     1.7216440    -0.0170270
  C       -1.2072320     1.0139100    -0.0094880
  C        1.2072370     1.0139020    -0.0094890
  C        0.0000180     3.2280150     0.0131190
  C        1.1931300    -0.3798000    -0.0002610
  C       -1.1931340    -0.3797940    -0.0002610
  C       -0.0428065    -1.1261093     0.0065499
  H       -2.1570970     1.5426200    -0.0181830
  H        2.1571050     1.5426070    -0.0181850
  H        0.0002870     3.5975410     1.0439770
  H        0.8855000     3.6300440    -0.4862980
  H       -0.8857170     3.6300520    -0.4858430
  H       -0.0000070    -2.1855250     0.0098050
units angstrom
no_reorient  #important for SAPT in psi4, default
symmetry c1  #important for SAPT in psi4, default
}

set PROPERTIES_ORIGIN ["COM"]
properties('MP2/aug-cc-pvtz', properties = ['dipole'])
--------------------------------------------------------------------------

    Molecular point group: c1
  Charge       = 0
  Multiplicity = 1
  Basis Set: AUG-CC-PVTZ
    Blend: AUG-CC-PVTZ
  Basis Set: (AUG-CC-PVTZ AUX)
    Blend: AUG-CC-PVTZ-JKFIT

    Orbital Energies [Eh]
    ---------------------

    Doubly Occupied:

       1A   -104.850485     2A   -104.846567     3A    -11.323594
       4A    -11.316300     5A    -11.272068     6A    -11.261364
       7A    -11.255497     8A    -11.254548     9A    -11.242239
      10A    -10.574197    11A    -10.570554    12A     -8.041097
      13A     -8.039180    14A     -8.039167    15A     -8.037454
      16A     -8.035527    17A     -8.035526    18A     -1.210587
      19A     -1.160414    20A     -1.118638    21A     -1.041733
      22A     -0.997654    23A     -0.959787    24A     -0.820639
      25A     -0.816631    26A     -0.710705    27A     -0.681145
      28A     -0.627203    29A     -0.600849    30A     -0.597175
      31A     -0.592894    32A     -0.563370    33A     -0.554859
      34A     -0.529084    35A     -0.514700    36A     -0.510451
      37A     -0.465821    38A     -0.456100    39A     -0.451401
      40A     -0.347837    41A     -0.338957

  @DF-RHF Final Energy: -1187.69705285478631

   => Energetics <=

    Nuclear Repulsion Energy =            542.4234930251540163
    One-Electron Energy =               -2710.9130976139908853
    Two-Electron Energy =                 980.7925517340504484
    Total Energy =                      -1187.6970528547863069
  Basis Set: (AUG-CC-PVTZ AUX)
    Blend: AUG-CC-PVTZ-RI
    Molecular point group: c1

    Geometry (in Angstrom), charge = 0, multiplicity = 1:

       Center              X                  Y                   Z               Mass
    ------------   -----------------  -----------------  -----------------  -----------------
         CL           2.704044883764    -1.158940361272     0.001927603915    34.968852682000
         CL          -2.697633116236    -1.158923361272     0.001927603915    34.968852682000
         C            0.003213883764     1.811624638728    -0.016784396085    12.000000000000
         C           -1.204021116236     1.103890638728    -0.009245396085    12.000000000000
         C            1.210447883764     1.103882638728    -0.009246396085    12.000000000000
         C            0.003228883764     3.317995638728     0.013361603915    12.000000000000
         C            1.196340883764    -0.289819361272    -0.000018396085    12.000000000000
         C           -1.189923116236    -0.289813361272    -0.000018396085    12.000000000000
         C           -0.039595616236    -1.036128661272     0.006792503915    12.000000000000
         H           -2.153886116236     1.632600638728    -0.017940396085     1.007825032230
         H            2.160315883764     1.632587638728    -0.017942396085     1.007825032230
         H            0.003497883764     3.687521638728     1.044219603915     1.007825032230
         H            0.888710883764     3.720024638728    -0.486055396085     1.007825032230
         H           -0.882506116236     3.720032638728    -0.485600396085     1.007825032230
         H            0.003203883764    -2.095544361272     0.010047603915     1.007825032230

  Basis Set: AUG-CC-PVTZ
    Blend: AUG-CC-PVTZ
  Basis Set: (AUG-CC-PVTZ AUX)
    Blend: AUG-CC-PVTZ-JKFIT
	 Reference Energy          =   -1187.6970528547863069 [Eh]
	 Singles Energy            =      -0.0000000000000000 [Eh]
	 Same-Spin Energy          =      -0.4298417154040997 [Eh]
	 Opposite-Spin Energy      =      -1.3002477644945230 [Eh]
	 Correlation Energy        =      -1.7300894798986226 [Eh]
	 Total Energy              =   -1189.4271423346849588 [Eh]

	 ================> DF-SCS-MP2 Energies <==================
	-----------------------------------------------------------
	 SCS Same-Spin Scale       =       0.3333333333333333 [-]
	 SCS Opposite-Spin Scale   =       1.2000000000000000 [-]
	 SCS Same-Spin Energy      =      -0.1432805718013666 [Eh]
	 SCS Opposite-Spin Energy  =      -1.5602973173934276 [Eh]
	 SCS Correlation Energy    =      -1.7035778891947941 [Eh]
	 SCS Total Energy          =   -1189.4006307439810826 [Eh]
	-----------------------------------------------------------

  Dipole Moment: [D]
     X:     0.0925      Y:     2.1555      Z:     0.0355     Total:     2.1577

*** Psi4 exiting successfully. Buy a developer a beer!
