                               Psi4 1.4a3.dev225

  ==> Input File <==

--------------------------------------------------------------------------
#psi4
#
memory 32 gb

molecule  {
0 1
 Cl        2.7008340    -1.2489210     0.0016850
 Cl       -2.7008440    -1.2489040     0.0016850
  C        0.0000030     1.7216440    -0.0170270
  C       -1.2072320     1.0139100    -0.0094880
  C        1.2072370     1.0139020    -0.0094890
  C        0.0000180     3.2280150     0.0131190
  C        1.1931300    -0.3798000    -0.0002610
  C       -1.1931340    -0.3797940    -0.0002610
  C       -0.0171256    -1.1106021     0.0064083
  H       -2.1570970     1.5426200    -0.0181830
  H        2.1571050     1.5426070    -0.0181850
  H        0.0002870     3.5975410     1.0439770
  H        0.8855000     3.6300440    -0.4862980
  H       -0.8857170     3.6300520    -0.4858430
  H       -0.0000070    -2.1855250     0.0098050
units angstrom
no_reorient  #important for SAPT in psi4, default
symmetry c1  #important for SAPT in psi4, default
}

set PROPERTIES_ORIGIN ["COM"]
properties('MP2/aug-cc-pvtz', properties = ['dipole'])
--------------------------------------------------------------------------

    Molecular point group: c1
  Charge       = 0
  Multiplicity = 1
  Basis Set: AUG-CC-PVTZ
    Blend: AUG-CC-PVTZ
  Basis Set: (AUG-CC-PVTZ AUX)
    Blend: AUG-CC-PVTZ-JKFIT

    Orbital Energies [Eh]
    ---------------------

    Doubly Occupied:

       1A   -104.849756     2A   -104.848176     3A    -11.320465
       4A    -11.317426     5A    -11.271487     6A    -11.260811
       7A    -11.255169     8A    -11.254774     9A    -11.242000
      10A    -10.573511    11A    -10.572041    12A     -8.040413
      13A     -8.038943    14A     -8.038490    15A     -8.038481
      16A     -8.037016    17A     -8.037012    18A     -1.211394
      19A     -1.160628    20A     -1.118568    21A     -1.042827
      22A     -0.997967    23A     -0.959106    24A     -0.821812
      25A     -0.816455    26A     -0.708726    27A     -0.681775
      28A     -0.626860    29A     -0.598770    30A     -0.596018
      31A     -0.593878    32A     -0.563510    33A     -0.555495
      34A     -0.527049    35A     -0.516577    36A     -0.510593
      37A     -0.465959    38A     -0.457237    39A     -0.451828
      40A     -0.346189    41A     -0.341165

  @DF-RHF Final Energy: -1187.69967178290472

   => Energetics <=

    Nuclear Repulsion Energy =            542.6607198336270130
    One-Electron Energy =               -2711.3880701660823433
    Two-Electron Energy =                 981.0276785495507283
    Total Energy =                      -1187.6996717829047157
  Basis Set: (AUG-CC-PVTZ AUX)
    Blend: AUG-CC-PVTZ-RI
    Molecular point group: c1

    Geometry (in Angstrom), charge = 0, multiplicity = 1:

       Center              X                  Y                   Z               Mass
    ------------   -----------------  -----------------  -----------------  -----------------
         CL           2.702118631531    -1.160103512821     0.001938224934    34.968852682000
         CL          -2.699559368469    -1.160086512821     0.001938224934    34.968852682000
         C            0.001287631531     1.810461487179    -0.016773775066    12.000000000000
         C           -1.205947368469     1.102727487179    -0.009234775066    12.000000000000
         C            1.208521631531     1.102719487179    -0.009235775066    12.000000000000
         C            0.001302631531     3.316832487179     0.013372224934    12.000000000000
         C            1.194414631531    -0.290982512821    -0.000007775066    12.000000000000
         C           -1.191849368469    -0.290976512821    -0.000007775066    12.000000000000
         C           -0.015840968469    -1.021784612821     0.006661524934    12.000000000000
         H           -2.155812368469     1.631437487179    -0.017929775066     1.007825032230
         H            2.158389631531     1.631424487179    -0.017931775066     1.007825032230
         H            0.001571631531     3.686358487179     1.044230224934     1.007825032230
         H            0.886784631531     3.718861487179    -0.486044775066     1.007825032230
         H           -0.884432368469     3.718869487179    -0.485589775066     1.007825032230
         H            0.001277631531    -2.096707512821     0.010058224934     1.007825032230

  Basis Set: AUG-CC-PVTZ
    Blend: AUG-CC-PVTZ
  Basis Set: (AUG-CC-PVTZ AUX)
    Blend: AUG-CC-PVTZ-JKFIT
	 Reference Energy          =   -1187.6996717829047157 [Eh]
	 Singles Energy            =      -0.0000000000000000 [Eh]
	 Same-Spin Energy          =      -0.4298758282908016 [Eh]
	 Opposite-Spin Energy      =      -1.3000836282425112 [Eh]
	 Correlation Energy        =      -1.7299594565333130 [Eh]
	 Total Energy              =   -1189.4296312394380948 [Eh]

	 ================> DF-SCS-MP2 Energies <==================
	-----------------------------------------------------------
	 SCS Same-Spin Scale       =       0.3333333333333333 [-]
	 SCS Opposite-Spin Scale   =       1.2000000000000000 [-]
	 SCS Same-Spin Energy      =      -0.1432919427636005 [Eh]
	 SCS Opposite-Spin Energy  =      -1.5601003538910134 [Eh]
	 SCS Correlation Energy    =      -1.7033922966546140 [Eh]
	 SCS Total Energy          =   -1189.4030640795592717 [Eh]
	-----------------------------------------------------------

  Dipole Moment: [D]
     X:     0.0377      Y:     2.1446      Z:     0.0355     Total:     2.1453

*** Psi4 exiting successfully. Buy a developer a beer!
