                               Psi4 1.4a3.dev225

  ==> Input File <==

--------------------------------------------------------------------------
#psi4
#
memory 32 gb

molecule  {
0 1
 Cl        2.7008340    -1.2489210     0.0016850
 Cl       -2.7008440    -1.2489040     0.0016850
  C        0.0000030     1.7216440    -0.0170270
  C       -1.2072320     1.0139100    -0.0094880
  C        1.2072370     1.0139020    -0.0094890
  C        0.0000180     3.2280150     0.0131190
  C        1.1931300    -0.3798000    -0.0002610
  C       -1.1931340    -0.3797940    -0.0002610
  C       -0.0000050    -1.1002640     0.0063140
  H       -2.1570970     1.5426200    -0.0181830
  H        2.1571050     1.5426070    -0.0181850
  H       -0.0322322     3.6162191     1.0365814
  H        0.8855000     3.6300440    -0.4862980
  H       -0.8857170     3.6300520    -0.4858430
  H       -0.0000070    -2.1855250     0.0098050
units angstrom
no_reorient  #important for SAPT in psi4, default
symmetry c1  #important for SAPT in psi4, default
}

set PROPERTIES_ORIGIN ["COM"]
properties('MP2/aug-cc-pvtz', properties = ['dipole'])
--------------------------------------------------------------------------

    Molecular point group: c1
  Charge       = 0
  Multiplicity = 1
  Basis Set: AUG-CC-PVTZ
    Blend: AUG-CC-PVTZ
  Basis Set: (AUG-CC-PVTZ AUX)
    Blend: AUG-CC-PVTZ-JKFIT

    Orbital Energies [Eh]
    ---------------------

    Doubly Occupied:

       1A   -104.849285     2A   -104.849274     3A    -11.318247
       4A    -11.318236     5A    -11.271277     6A    -11.260553
       7A    -11.255097     8A    -11.255043     9A    -11.241732
      10A    -10.573070    11A    -10.573058    12A     -8.039973
      13A     -8.039962    14A     -8.038046    15A     -8.038040
      16A     -8.038034    17A     -8.038028    18A     -1.212124
      19A     -1.160859    20A     -1.118507    21A     -1.043593
      22A     -0.998240    23A     -0.958751    24A     -0.823117
      25A     -0.816225    26A     -0.707596    27A     -0.682356
      28A     -0.627004    29A     -0.597827    30A     -0.594757
      31A     -0.593729    32A     -0.563625    33A     -0.555386
      34A     -0.526193    35A     -0.517474    36A     -0.510774
      37A     -0.466107    38A     -0.457869    39A     -0.452108
      40A     -0.346127    41A     -0.341902

  @DF-RHF Final Energy: -1187.70010836873666

   => Energetics <=

    Nuclear Repulsion Energy =            542.7942398817964431
    One-Electron Energy =               -2711.6502832363835296
    Two-Electron Energy =                 981.1559349858506494
    Total Energy =                      -1187.7001083687364371
  Basis Set: (AUG-CC-PVTZ AUX)
    Blend: AUG-CC-PVTZ-RI
    Molecular point group: c1

    Geometry (in Angstrom), charge = 0, multiplicity = 1:

       Center              X                  Y                   Z               Mass
    ------------   -----------------  -----------------  -----------------  -----------------
         CL           2.701039318420    -1.160996607576     0.001991886772    34.968852682000
         CL          -2.700638681580    -1.160979607576     0.001991886772    34.968852682000
         C            0.000208318420     1.809568392424    -0.016720113228    12.000000000000
         C           -1.207026681580     1.101834392424    -0.009181113228    12.000000000000
         C            1.207442318420     1.101826392424    -0.009182113228    12.000000000000
         C            0.000223318420     3.315939392424     0.013425886772    12.000000000000
         C            1.193335318420    -0.291875607576     0.000045886772    12.000000000000
         C           -1.192928681580    -0.291869607576     0.000045886772    12.000000000000
         C            0.000200318420    -1.012339607576     0.006620886772    12.000000000000
         H           -2.156891681580     1.630544392424    -0.017876113228     1.007825032230
         H            2.157310318420     1.630531392424    -0.017878113228     1.007825032230
         H           -0.032026881580     3.704143492424     1.036888286772     1.007825032230
         H            0.885705318420     3.717968392424    -0.485991113228     1.007825032230
         H           -0.885511681580     3.717976392424    -0.485536113228     1.007825032230
         H            0.000198318420    -2.097600607576     0.010111886772     1.007825032230

  Basis Set: AUG-CC-PVTZ
    Blend: AUG-CC-PVTZ
  Basis Set: (AUG-CC-PVTZ AUX)
    Blend: AUG-CC-PVTZ-JKFIT
	 Reference Energy          =   -1187.7001083687366645 [Eh]
	 Singles Energy            =      -0.0000000000000000 [Eh]
	 Same-Spin Energy          =      -0.4298884348146833 [Eh]
	 Opposite-Spin Energy      =      -1.3000162615593800 [Eh]
	 Correlation Energy        =      -1.7299046963740632 [Eh]
	 Total Energy              =   -1189.4300130651106429 [Eh]

	 ================> DF-SCS-MP2 Energies <==================
	-----------------------------------------------------------
	 SCS Same-Spin Scale       =       0.3333333333333333 [-]
	 SCS Opposite-Spin Scale   =       1.2000000000000000 [-]
	 SCS Same-Spin Energy      =      -0.1432961449382278 [Eh]
	 SCS Opposite-Spin Energy  =      -1.5600195138712560 [Eh]
	 SCS Correlation Energy    =      -1.7033156588094838 [Eh]
	 SCS Total Energy          =   -1189.4034240275461798 [Eh]
	-----------------------------------------------------------

  Dipole Moment: [D]
     X:    -0.0127      Y:     2.1355      Z:     0.0356     Total:     2.1359

*** Psi4 exiting successfully. Buy a developer a beer!
