                               Psi4 1.4a3.dev225

  ==> Input File <==

--------------------------------------------------------------------------
#psi4
#
memory 32 gb

molecule  {
0 1
 Cl        2.7008340    -1.2489210     0.0016850
 Cl       -2.7008440    -1.2489040     0.0016850
  C        0.0000030     1.7216440    -0.0170270
  C       -1.2072320     1.0139100    -0.0094880
  C        1.2072370     1.0139020    -0.0094890
  C        0.0000180     3.2280150     0.0131190
  C        1.1931300    -0.3798000    -0.0002610
  C       -1.1931340    -0.3797940    -0.0002610
  C       -0.0000050    -1.1002640     0.0063140
  H       -2.1570970     1.5426200    -0.0181830
  H        2.1571050     1.5426070    -0.0181850
  H       -0.0971131     3.6521341     1.0180599
  H        0.8855000     3.6300440    -0.4862980
  H       -0.8857170     3.6300520    -0.4858430
  H       -0.0000070    -2.1855250     0.0098050
units angstrom
no_reorient  #important for SAPT in psi4, default
symmetry c1  #important for SAPT in psi4, default
}

set PROPERTIES_ORIGIN ["COM"]
properties('MP2/aug-cc-pvtz', properties = ['dipole'])
--------------------------------------------------------------------------

    Molecular point group: c1
  Charge       = 0
  Multiplicity = 1
  Basis Set: AUG-CC-PVTZ
    Blend: AUG-CC-PVTZ
  Basis Set: (AUG-CC-PVTZ AUX)
    Blend: AUG-CC-PVTZ-JKFIT

    Orbital Energies [Eh]
    ---------------------

    Doubly Occupied:

       1A   -104.849363     2A   -104.849333     3A    -11.318319
       4A    -11.318297     5A    -11.271653     6A    -11.260783
       7A    -11.255350     8A    -11.255286     9A    -11.241555
      10A    -10.573147    11A    -10.573115    12A     -8.040051
      13A     -8.040019    14A     -8.038123    15A     -8.038117
      16A     -8.038091    17A     -8.038085    18A     -1.212230
      19A     -1.160941    20A     -1.118473    21A     -1.043551
      22A     -0.998370    23A     -0.958933    24A     -0.823259
      25A     -0.816913    26A     -0.707839    27A     -0.682566
      28A     -0.627677    29A     -0.598420    30A     -0.594865
      31A     -0.592306    32A     -0.564416    33A     -0.552679
      34A     -0.526985    35A     -0.517427    36A     -0.510848
      37A     -0.466266    38A     -0.457947    39A     -0.452004
      40A     -0.346241    41A     -0.341968

  @DF-RHF Final Energy: -1187.69898910336224

   => Energetics <=

    Nuclear Repulsion Energy =            542.7338007054629543
    One-Electron Energy =               -2711.5219600744126183
    Two-Electron Energy =                 981.0891702655876543
    Total Energy =                      -1187.6989891033622371
  Basis Set: (AUG-CC-PVTZ AUX)
    Blend: AUG-CC-PVTZ-RI
    Molecular point group: c1

    Geometry (in Angstrom), charge = 0, multiplicity = 1:

       Center              X                  Y                   Z               Mass
    ------------   -----------------  -----------------  -----------------  -----------------
         CL           2.701448036337    -1.161222854499     0.002108563158    34.968852682000
         CL          -2.700229963663    -1.161205854499     0.002108563158    34.968852682000
         C            0.000617036337     1.809342145501    -0.016603436842    12.000000000000
         C           -1.206617963663     1.101608145501    -0.009064436842    12.000000000000
         C            1.207851036337     1.101600145501    -0.009065436842    12.000000000000
         C            0.000632036337     3.315713145501     0.013542563158    12.000000000000
         C            1.193744036337    -0.292101854499     0.000162563158    12.000000000000
         C           -1.192519963663    -0.292095854499     0.000162563158    12.000000000000
         C            0.000609036337    -1.012565854499     0.006737563158    12.000000000000
         H           -2.156482963663     1.630318145501    -0.017759436842     1.007825032230
         H            2.157719036337     1.630305145501    -0.017761436842     1.007825032230
         H           -0.096499063663     3.739832245501     1.018483463158     1.007825032230
         H            0.886114036337     3.717742145501    -0.485874436842     1.007825032230
         H           -0.885102963663     3.717750145501    -0.485419436842     1.007825032230
         H            0.000607036337    -2.097826854499     0.010228563158     1.007825032230

  Basis Set: AUG-CC-PVTZ
    Blend: AUG-CC-PVTZ
  Basis Set: (AUG-CC-PVTZ AUX)
    Blend: AUG-CC-PVTZ-JKFIT
	 Reference Energy          =   -1187.6989891033622371 [Eh]
	 Singles Energy            =      -0.0000000000000000 [Eh]
	 Same-Spin Energy          =      -0.4299342450287613 [Eh]
	 Opposite-Spin Energy      =      -1.3000587236565919 [Eh]
	 Correlation Energy        =      -1.7299929686853532 [Eh]
	 Total Energy              =   -1189.4289820720475745 [Eh]

	 ================> DF-SCS-MP2 Energies <==================
	-----------------------------------------------------------
	 SCS Same-Spin Scale       =       0.3333333333333333 [-]
	 SCS Opposite-Spin Scale   =       1.2000000000000000 [-]
	 SCS Same-Spin Energy      =      -0.1433114150095871 [Eh]
	 SCS Opposite-Spin Energy  =      -1.5600704683879103 [Eh]
	 SCS Correlation Energy    =      -1.7033818833974974 [Eh]
	 SCS Total Energy          =   -1189.4023709867597063 [Eh]
	-----------------------------------------------------------

  Dipole Moment: [D]
     X:    -0.0395      Y:     2.1336      Z:     0.0336     Total:     2.1342

*** Psi4 exiting successfully. Buy a developer a beer!
