                               Psi4 1.4a3.dev225

  ==> Input File <==

--------------------------------------------------------------------------
#psi4
#
memory 32 gb

molecule  {
0 1
 Cl        2.7008340    -1.2489210     0.0016850
 Cl       -2.7008440    -1.2489040     0.0016850
  C        0.1366916     1.7283295     0.0613490
  C       -1.2072320     1.0139100    -0.0094880
  C        1.2072370     1.0139020    -0.0094890
  C        0.0000180     3.2280150     0.0131190
  C        1.1931300    -0.3798000    -0.0002610
  C       -1.1931340    -0.3797940    -0.0002610
  C       -0.0000050    -1.1002640     0.0063140
  H       -2.1570970     1.5426200    -0.0181830
  H        2.1571050     1.5426070    -0.0181850
  H        0.0002870     3.5975410     1.0439770
  H        0.8855000     3.6300440    -0.4862980
  H       -0.8857170     3.6300520    -0.4858430
  H       -0.0000070    -2.1855250     0.0098050
units angstrom
no_reorient  #important for SAPT in psi4, default
symmetry c1  #important for SAPT in psi4, default
}

set PROPERTIES_ORIGIN ["COM"]
properties('MP2/aug-cc-pvtz', properties = ['dipole'])
--------------------------------------------------------------------------

    Molecular point group: c1
  Charge       = 0
  Multiplicity = 1
  Basis Set: AUG-CC-PVTZ
    Blend: AUG-CC-PVTZ
  Basis Set: (AUG-CC-PVTZ AUX)
    Blend: AUG-CC-PVTZ-JKFIT

    Orbital Energies [Eh]
    ---------------------

    Doubly Occupied:

       1A   -104.850401     2A   -104.847530     3A    -11.319529
       4A    -11.315792     5A    -11.269702     6A    -11.264184
       7A    -11.260974     8A    -11.242910     9A    -11.242767
      10A    -10.574113    11A    -10.571385    12A     -8.041015
      13A     -8.039091    14A     -8.039080    15A     -8.038288
      16A     -8.036364    17A     -8.036355    18A     -1.212629
      19A     -1.160651    20A     -1.121773    21A     -1.044800
      22A     -0.998011    23A     -0.957832    24A     -0.835531
      25A     -0.803184    26A     -0.707751    27A     -0.679369
      28A     -0.629114    29A     -0.604359    30A     -0.598894
      31A     -0.585692    32A     -0.564349    33A     -0.556373
      34A     -0.539103    35A     -0.510632    36A     -0.495120
      37A     -0.463600    38A     -0.456415    39A     -0.453116
      40A     -0.360603    41A     -0.330107

  @DF-RHF Final Energy: -1187.67585227574409

   => Energetics <=

    Nuclear Repulsion Energy =            542.7929138242878935
    One-Electron Energy =               -2711.6205582672891978
    Two-Electron Energy =                 981.1517921672570992
    Total Energy =                      -1187.6758522757440915
  Basis Set: (AUG-CC-PVTZ AUX)
    Blend: AUG-CC-PVTZ-RI
    Molecular point group: c1

    Geometry (in Angstrom), charge = 0, multiplicity = 1:

       Center              X                  Y                   Z               Mass
    ------------   -----------------  -----------------  -----------------  -----------------
         CL           2.690581835120    -1.161380405279    -0.003933465678    34.968852682000
         CL          -2.711096164880    -1.161363405279    -0.003933465678    34.968852682000
         C            0.126439435120     1.815870094721     0.055730534322    12.000000000000
         C           -1.217484164880     1.101450594721    -0.015106465678    12.000000000000
         C            1.196984835120     1.101442594721    -0.015107465678    12.000000000000
         C           -0.010234164880     3.315555594721     0.007500534322    12.000000000000
         C            1.182877835120    -0.292259405279    -0.005879465678    12.000000000000
         C           -1.203386164880    -0.292253405279    -0.005879465678    12.000000000000
         C           -0.010257164880    -1.012723405279     0.000695534322    12.000000000000
         H           -2.167349164880     1.630160594721    -0.023801465678     1.007825032230
         H            2.146852835120     1.630147594721    -0.023803465678     1.007825032230
         H           -0.009965164880     3.685081594721     1.038358534322     1.007825032230
         H            0.875247835120     3.717584594721    -0.491916465678     1.007825032230
         H           -0.895969164880     3.717592594721    -0.491461465678     1.007825032230
         H           -0.010259164880    -2.097984405279     0.004186534322     1.007825032230

  Basis Set: AUG-CC-PVTZ
    Blend: AUG-CC-PVTZ
  Basis Set: (AUG-CC-PVTZ AUX)
    Blend: AUG-CC-PVTZ-JKFIT
	 Reference Energy          =   -1187.6758522757440915 [Eh]
	 Singles Energy            =      -0.0000000000000000 [Eh]
	 Same-Spin Energy          =      -0.4294395183599038 [Eh]
	 Opposite-Spin Energy      =      -1.3011435523193828 [Eh]
	 Correlation Energy        =      -1.7305830706792866 [Eh]
	 Total Energy              =   -1189.4064353464234500 [Eh]

	 ================> DF-SCS-MP2 Energies <==================
	-----------------------------------------------------------
	 SCS Same-Spin Scale       =       0.3333333333333333 [-]
	 SCS Opposite-Spin Scale   =       1.2000000000000000 [-]
	 SCS Same-Spin Energy      =      -0.1431465061199679 [Eh]
	 SCS Opposite-Spin Energy  =      -1.5613722627832594 [Eh]
	 SCS Correlation Energy    =      -1.7045187689032273 [Eh]
	 SCS Total Energy          =   -1189.3803710446472905 [Eh]
	-----------------------------------------------------------

  Dipole Moment: [D]
     X:     0.0655      Y:     2.1668      Z:     0.0105     Total:     2.1678

*** Psi4 exiting successfully. Buy a developer a beer!
