                               Psi4 1.4a3.dev225

  ==> Input File <==

--------------------------------------------------------------------------
#psi4
#
memory 32 gb

molecule  {
0 1
 Cl        2.7008340    -1.2489210     0.0016850
 Cl       -2.7008440    -1.2489040     0.0016850
  C        0.0000030     1.7216440    -0.0170270
  C       -1.2072320     1.0139100    -0.0094880
  C        1.2072370     1.0139020    -0.0094890
  C        0.0000180     3.2280150     0.0131190
  C        1.1672583    -0.3386008    -0.0006370
  C       -1.1931340    -0.3797940    -0.0002610
  C       -0.0000050    -1.1002640     0.0063140
  H       -2.1570970     1.5426200    -0.0181830
  H        2.1571050     1.5426070    -0.0181850
  H        0.0002870     3.5975410     1.0439770
  H        0.8855000     3.6300440    -0.4862980
  H       -0.8857170     3.6300520    -0.4858430
  H       -0.0000070    -2.1855250     0.0098050
units angstrom
no_reorient  #important for SAPT in psi4, default
symmetry c1  #important for SAPT in psi4, default
}

set PROPERTIES_ORIGIN ["COM"]
properties('MP2/aug-cc-pvtz', properties = ['dipole'])
--------------------------------------------------------------------------

    Molecular point group: c1
  Charge       = 0
  Multiplicity = 1
  Basis Set: AUG-CC-PVTZ
    Blend: AUG-CC-PVTZ
  Basis Set: (AUG-CC-PVTZ AUX)
    Blend: AUG-CC-PVTZ-JKFIT

    Orbital Energies [Eh]
    ---------------------

    Doubly Occupied:

       1A   -104.849994     2A   -104.843981     3A    -11.319571
       4A    -11.317482     5A    -11.273119     6A    -11.261990
       7A    -11.255724     8A    -11.252507     9A    -11.242988
      10A    -10.573807    11A    -10.567277    12A     -8.040708
      13A     -8.038783    14A     -8.038773    15A     -8.034081
      16A     -8.032283    17A     -8.032277    18A     -1.214372
      19A     -1.156764    20A     -1.116461    21A     -1.044161
      22A     -1.004259    23A     -0.961473    24A     -0.821765
      25A     -0.819715    26A     -0.711067    27A     -0.685469
      28A     -0.622611    29A     -0.601525    30A     -0.599066
      31A     -0.592670    32A     -0.563913    33A     -0.556695
      34A     -0.527955    35A     -0.511682    36A     -0.507832
      37A     -0.465497    38A     -0.456089    39A     -0.452544
      40A     -0.348281    41A     -0.346398

  @DF-RHF Final Energy: -1187.69888167955082

   => Energetics <=

    Nuclear Repulsion Energy =            542.9980065489459093
    One-Electron Energy =               -2712.0665558698983659
    Two-Electron Energy =                 981.3696676414017475
    Total Energy =                      -1187.6988816795508228
  Basis Set: (AUG-CC-PVTZ AUX)
    Blend: AUG-CC-PVTZ-RI
    Molecular point group: c1

    Geometry (in Angstrom), charge = 0, multiplicity = 1:

       Center              X                  Y                   Z               Mass
    ------------   -----------------  -----------------  -----------------  -----------------
         CL           2.702775026981    -1.163969181049     0.001973500817    34.968852682000
         CL          -2.698902973019    -1.163952181049     0.001973500817    34.968852682000
         C            0.001944026981     1.806595818951    -0.016738499183    12.000000000000
         C           -1.205290973019     1.098861818951    -0.009199499183    12.000000000000
         C            1.209178026981     1.098853818951    -0.009200499183    12.000000000000
         C            0.001959026981     3.312966818951     0.013407500817    12.000000000000
         C            1.169199326981    -0.253648981049    -0.000348499183    12.000000000000
         C           -1.191192973019    -0.294842181049     0.000027500817    12.000000000000
         C            0.001936026981    -1.015312181049     0.006602500817    12.000000000000
         H           -2.155155973019     1.627571818951    -0.017894499183     1.007825032230
         H            2.159046026981     1.627558818951    -0.017896499183     1.007825032230
         H            0.002228026981     3.682492818951     1.044265500817     1.007825032230
         H            0.887441026981     3.714995818951    -0.486009499183     1.007825032230
         H           -0.883775973019     3.715003818951    -0.485554499183     1.007825032230
         H            0.001934026981    -2.100573181049     0.010093500817     1.007825032230

  Basis Set: AUG-CC-PVTZ
    Blend: AUG-CC-PVTZ
  Basis Set: (AUG-CC-PVTZ AUX)
    Blend: AUG-CC-PVTZ-JKFIT
	 Reference Energy          =   -1187.6988816795508228 [Eh]
	 Singles Energy            =      -0.0000000000000000 [Eh]
	 Same-Spin Energy          =      -0.4295596456760379 [Eh]
	 Opposite-Spin Energy      =      -1.2995712759420774 [Eh]
	 Correlation Energy        =      -1.7291309216181152 [Eh]
	 Total Energy              =   -1189.4280126011690299 [Eh]

	 ================> DF-SCS-MP2 Energies <==================
	-----------------------------------------------------------
	 SCS Same-Spin Scale       =       0.3333333333333333 [-]
	 SCS Opposite-Spin Scale   =       1.2000000000000000 [-]
	 SCS Same-Spin Energy      =      -0.1431865485586793 [Eh]
	 SCS Opposite-Spin Energy  =      -1.5594855311304929 [Eh]
	 SCS Correlation Energy    =      -1.7026720796891721 [Eh]
	 SCS Total Energy          =   -1189.4015537592399596 [Eh]
	-----------------------------------------------------------

  Dipole Moment: [D]
     X:    -0.1989      Y:     2.2724      Z:     0.0355     Total:     2.2814

*** Psi4 exiting successfully. Buy a developer a beer!
