                               Psi4 1.4a3.dev225

  ==> Input File <==

--------------------------------------------------------------------------
#psi4
#
memory 32 gb

molecule  {
0 1
 Cl        2.7008340    -1.2489210     0.0016850
 Cl       -2.7008440    -1.2489040     0.0016850
  C        0.0000030     1.7216440    -0.0170270
  C       -1.2072320     1.0139100    -0.0094880
  C        1.2072370     1.0139020    -0.0094890
  C        0.0000180     3.2280150     0.0131190
  C        1.1931300    -0.3798000    -0.0002610
  C       -1.1931340    -0.3797940    -0.0002610
  C       -0.0000050    -1.1002640     0.0063140
  H       -2.1570970     1.5426200    -0.0181830
  H        2.1571050     1.5426070    -0.0181850
  H        0.0328059     3.5784127     1.0501167
  H        0.8855000     3.6300440    -0.4862980
  H       -0.8857170     3.6300520    -0.4858430
  H       -0.0000070    -2.1855250     0.0098050
units angstrom
no_reorient  #important for SAPT in psi4, default
symmetry c1  #important for SAPT in psi4, default
}

set PROPERTIES_ORIGIN ["COM"]
properties('MP2/aug-cc-pvtz', properties = ['dipole'])
--------------------------------------------------------------------------

    Molecular point group: c1
  Charge       = 0
  Multiplicity = 1
  Basis Set: AUG-CC-PVTZ
    Blend: AUG-CC-PVTZ
  Basis Set: (AUG-CC-PVTZ AUX)
    Blend: AUG-CC-PVTZ-JKFIT

    Orbital Energies [Eh]
    ---------------------

    Doubly Occupied:

       1A   -104.849213     2A   -104.849201     3A    -11.318186
       4A    -11.318172     5A    -11.270983     6A    -11.260270
       7A    -11.254818     8A    -11.254763     9A    -11.241982
      10A    -10.572999    11A    -10.572986    12A     -8.039902
      13A     -8.039889    14A     -8.037975    15A     -8.037969
      16A     -8.037963    17A     -8.037956    18A     -1.212011
      19A     -1.160770    20A     -1.118583    21A     -1.043683
      22A     -0.998106    23A     -0.958719    24A     -0.822997
      25A     -0.815578    26A     -0.707346    27A     -0.682260
      28A     -0.626500    29A     -0.599253    30A     -0.594629
      31A     -0.594011    32A     -0.563794    33A     -0.556056
      34A     -0.525296    35A     -0.517398    36A     -0.510692
      37A     -0.465937    38A     -0.457788    39A     -0.452056
      40A     -0.345877    41A     -0.341837

  @DF-RHF Final Energy: -1187.70013419305519

   => Energetics <=

    Nuclear Repulsion Energy =            542.8620818103435113
    One-Electron Energy =               -2711.7916232361044422
    Two-Electron Energy =                 981.2294072327056256
    Total Energy =                      -1187.7001341930551916
  Basis Set: (AUG-CC-PVTZ AUX)
    Blend: AUG-CC-PVTZ-RI
    Molecular point group: c1

    Geometry (in Angstrom), charge = 0, multiplicity = 1:

       Center              X                  Y                   Z               Mass
    ------------   -----------------  -----------------  -----------------  -----------------
         CL           2.700629610220    -1.160758445759     0.001906621007    34.968852682000
         CL          -2.701048389780    -1.160741445759     0.001906621007    34.968852682000
         C           -0.000201389780     1.809806554241    -0.016805378993    12.000000000000
         C           -1.207436389780     1.102072554241    -0.009266378993    12.000000000000
         C            1.207032610220     1.102064554241    -0.009267378993    12.000000000000
         C           -0.000186389780     3.316177554241     0.013340621007    12.000000000000
         C            1.192925610220    -0.291637445759    -0.000039378993    12.000000000000
         C           -1.193338389780    -0.291631445759    -0.000039378993    12.000000000000
         C           -0.000209389780    -1.012101445759     0.006535621007    12.000000000000
         H           -2.157301389780     1.630782554241    -0.017961378993     1.007825032230
         H            2.156900610220     1.630769554241    -0.017963378993     1.007825032230
         H            0.032601510220     3.666575254241     1.050338321007     1.007825032230
         H            0.885295610220     3.718206554241    -0.486076378993     1.007825032230
         H           -0.885921389780     3.718214554241    -0.485621378993     1.007825032230
         H           -0.000211389780    -2.097362445759     0.010026621007     1.007825032230

  Basis Set: AUG-CC-PVTZ
    Blend: AUG-CC-PVTZ
  Basis Set: (AUG-CC-PVTZ AUX)
    Blend: AUG-CC-PVTZ-JKFIT
	 Reference Energy          =   -1187.7001341930551916 [Eh]
	 Singles Energy            =      -0.0000000000000000 [Eh]
	 Same-Spin Energy          =      -0.4298980550480329 [Eh]
	 Opposite-Spin Energy      =      -1.3000462002803419 [Eh]
	 Correlation Energy        =      -1.7299442553283748 [Eh]
	 Total Energy              =   -1189.4300784483834832 [Eh]

	 ================> DF-SCS-MP2 Energies <==================
	-----------------------------------------------------------
	 SCS Same-Spin Scale       =       0.3333333333333333 [-]
	 SCS Opposite-Spin Scale   =       1.2000000000000000 [-]
	 SCS Same-Spin Energy      =      -0.1432993516826776 [Eh]
	 SCS Opposite-Spin Energy  =      -1.5600554403364102 [Eh]
	 SCS Correlation Energy    =      -1.7033547920190879 [Eh]
	 SCS Total Energy          =   -1189.4034889850743184 [Eh]
	-----------------------------------------------------------

  Dipole Moment: [D]
     X:     0.0124      Y:     2.1409      Z:     0.0346     Total:     2.1413

*** Psi4 exiting successfully. Buy a developer a beer!
