                               Psi4 1.4a3.dev225

  ==> Input File <==

--------------------------------------------------------------------------
#psi4
#
memory 32 gb

molecule  {
0 1
 Cl        2.7008340    -1.2489210     0.0016850
 Cl       -2.7008440    -1.2489040     0.0016850
  C        0.0000030     1.7216440    -0.0170270
  C       -1.2072320     1.0139100    -0.0094880
  C        1.2072370     1.0139020    -0.0094890
  C        0.0000180     3.2280150     0.0131190
  C        1.1931300    -0.3798000    -0.0002610
  C       -1.1931340    -0.3797940    -0.0002610
  C       -0.0000050    -1.1002640     0.0063140
  H       -2.1570970     1.5426200    -0.0181830
  H        2.1571050     1.5426070    -0.0181850
  H        0.0002747     3.5806690     0.9969096
  H        0.8855000     3.6300440    -0.4862980
  H       -0.8857170     3.6300520    -0.4858430
  H       -0.0000070    -2.1855250     0.0098050
units angstrom
no_reorient  #important for SAPT in psi4, default
symmetry c1  #important for SAPT in psi4, default
}

set PROPERTIES_ORIGIN ["COM"]
properties('MP2/aug-cc-pvtz', properties = ['dipole'])
--------------------------------------------------------------------------

    Molecular point group: c1
  Charge       = 0
  Multiplicity = 1
  Basis Set: AUG-CC-PVTZ
    Blend: AUG-CC-PVTZ
  Basis Set: (AUG-CC-PVTZ AUX)
    Blend: AUG-CC-PVTZ-JKFIT

    Orbital Energies [Eh]
    ---------------------

    Doubly Occupied:

       1A   -104.849165     2A   -104.849165     3A    -11.318113
       4A    -11.318106     5A    -11.270817     6A    -11.260280
       7A    -11.254793     8A    -11.254739     9A    -11.235845
      10A    -10.572951    11A    -10.572951    12A     -8.039854
      13A     -8.039854    14A     -8.037928    15A     -8.037927
      16A     -8.037921    17A     -8.037921    18A     -1.211975
      19A     -1.160729    20A     -1.118819    21A     -1.044467
      22A     -0.998048    23A     -0.962069    24A     -0.822925
      25A     -0.817224    26A     -0.707544    27A     -0.682105
      28A     -0.626961    29A     -0.606007    30A     -0.594584
      31A     -0.593845    32A     -0.563077    33A     -0.557960
      34A     -0.525781    35A     -0.517268    36A     -0.510652
      37A     -0.465943    38A     -0.457748    39A     -0.452470
      40A     -0.346268    41A     -0.341766

  @DF-RHF Final Energy: -1187.69928543180413

   => Energetics <=

    Nuclear Repulsion Energy =            543.0563972880999017
    One-Electron Energy =               -2712.1622392113722526
    Two-Electron Energy =                 981.4065564914681090
    Total Energy =                      -1187.6992854318041282
  Basis Set: (AUG-CC-PVTZ AUX)
    Blend: AUG-CC-PVTZ-RI
    Molecular point group: c1

    Geometry (in Angstrom), charge = 0, multiplicity = 1:

       Center              X                  Y                   Z               Mass
    ------------   -----------------  -----------------  -----------------  -----------------
         CL           2.700834540859    -1.160772659344     0.002241799697    34.968852682000
         CL          -2.700843459141    -1.160755659344     0.002241799697    34.968852682000
         C            0.000003540859     1.809792340656    -0.016470200303    12.000000000000
         C           -1.207231459141     1.102058340656    -0.008931200303    12.000000000000
         C            1.207237540859     1.102050340656    -0.008932200303    12.000000000000
         C            0.000018540859     3.316163340656     0.013675799697    12.000000000000
         C            1.193130540859    -0.291651659344     0.000295799697    12.000000000000
         C           -1.193133459141    -0.291645659344     0.000295799697    12.000000000000
         C           -0.000004459141    -1.012115659344     0.006870799697    12.000000000000
         H           -2.157096459141     1.630768340656    -0.017626200303     1.007825032230
         H            2.157105540859     1.630755340656    -0.017628200303     1.007825032230
         H            0.000275240859     3.668817340656     0.997466399697     1.007825032230
         H            0.885500540859     3.718192340656    -0.485741200303     1.007825032230
         H           -0.885716459141     3.718200340656    -0.485286200303     1.007825032230
         H           -0.000006459141    -2.097376659344     0.010361799697     1.007825032230

  Basis Set: AUG-CC-PVTZ
    Blend: AUG-CC-PVTZ
  Basis Set: (AUG-CC-PVTZ AUX)
    Blend: AUG-CC-PVTZ-JKFIT
	 Reference Energy          =   -1187.6992854318041282 [Eh]
	 Singles Energy            =      -0.0000000000000000 [Eh]
	 Same-Spin Energy          =      -0.4298938497349427 [Eh]
	 Opposite-Spin Energy      =      -1.2997564184881363 [Eh]
	 Correlation Energy        =      -1.7296502682230790 [Eh]
	 Total Energy              =   -1189.4289357000272958 [Eh]

	 ================> DF-SCS-MP2 Energies <==================
	-----------------------------------------------------------
	 SCS Same-Spin Scale       =       0.3333333333333333 [-]
	 SCS Opposite-Spin Scale   =       1.2000000000000000 [-]
	 SCS Same-Spin Energy      =      -0.1432979499116475 [Eh]
	 SCS Opposite-Spin Energy  =      -1.5597077021857635 [Eh]
	 SCS Correlation Energy    =      -1.7030056520974111 [Eh]
	 SCS Total Energy          =   -1189.4022910839014457 [Eh]
	-----------------------------------------------------------

  Dipole Moment: [D]
     X:     0.0000      Y:     2.1533      Z:     0.0475     Total:     2.1539

*** Psi4 exiting successfully. Buy a developer a beer!
