                               Psi4 1.4a3.dev225

  ==> Input File <==

--------------------------------------------------------------------------
#psi4
#
memory 32 gb

molecule  {
0 1
 Cl        2.7008340    -1.2489210     0.0016850
 Cl       -2.7008440    -1.2489040     0.0016850
  C        0.0121714     1.7004692    -0.0167216
  C       -1.2072320     1.0139100    -0.0094880
  C        1.2072370     1.0139020    -0.0094890
  C        0.0000180     3.2280150     0.0131190
  C        1.1931300    -0.3798000    -0.0002610
  C       -1.1931340    -0.3797940    -0.0002610
  C       -0.0000050    -1.1002640     0.0063140
  H       -2.1570970     1.5426200    -0.0181830
  H        2.1571050     1.5426070    -0.0181850
  H        0.0002870     3.5975410     1.0439770
  H        0.8855000     3.6300440    -0.4862980
  H       -0.8857170     3.6300520    -0.4858430
  H       -0.0000070    -2.1855250     0.0098050
units angstrom
no_reorient  #important for SAPT in psi4, default
symmetry c1  #important for SAPT in psi4, default
}

set PROPERTIES_ORIGIN ["COM"]
properties('MP2/aug-cc-pvtz', properties = ['dipole'])
--------------------------------------------------------------------------

    Molecular point group: c1
  Charge       = 0
  Multiplicity = 1
  Basis Set: AUG-CC-PVTZ
    Blend: AUG-CC-PVTZ
  Basis Set: (AUG-CC-PVTZ AUX)
    Blend: AUG-CC-PVTZ-JKFIT

    Orbital Energies [Eh]
    ---------------------

    Doubly Occupied:

       1A   -104.849425     2A   -104.849161     3A    -11.318579
       4A    -11.318239     5A    -11.269515     6A    -11.260392
       7A    -11.255056     8A    -11.252975     9A    -11.242175
      10A    -10.573217    11A    -10.572966    12A     -8.040119
      13A     -8.039868    14A     -8.038195    15A     -8.038186
      16A     -8.037944    17A     -8.037936    18A     -1.213293
      19A     -1.161057    20A     -1.119000    21A     -1.042064
      22A     -0.999839    23A     -0.957038    24A     -0.824120
      25A     -0.816063    26A     -0.708652    27A     -0.682813
      28A     -0.625221    29A     -0.597213    30A     -0.596552
      31A     -0.593104    32A     -0.562505    33A     -0.556158
      34A     -0.522831    35A     -0.518850    36A     -0.510854
      37A     -0.465367    38A     -0.457959    39A     -0.453426
      40A     -0.348089    41A     -0.341996

  @DF-RHF Final Energy: -1187.70001921656058

   => Energetics <=

    Nuclear Repulsion Energy =            543.1064694619136617
    One-Electron Energy =               -2712.2769457833182969
    Two-Electron Energy =                 981.4704571048441721
    Total Energy =                      -1187.7000192165605768
  Basis Set: (AUG-CC-PVTZ AUX)
    Blend: AUG-CC-PVTZ-RI
    Molecular point group: c1

    Geometry (in Angstrom), charge = 0, multiplicity = 1:

       Center              X                  Y                   Z               Mass
    ------------   -----------------  -----------------  -----------------  -----------------
         CL           2.699921745843    -1.159290682368     0.001922390915    34.968852682000
         CL          -2.701756254157    -1.159273682368     0.001922390915    34.968852682000
         C            0.011259145843     1.790099517632    -0.016484209085    12.000000000000
         C           -1.208144254157     1.103540317632    -0.009250609085    12.000000000000
         C            1.206324745843     1.103532317632    -0.009251609085    12.000000000000
         C           -0.000894254157     3.317645317632     0.013356390915    12.000000000000
         C            1.192217745843    -0.290169682368    -0.000023609085    12.000000000000
         C           -1.194046254157    -0.290163682368    -0.000023609085    12.000000000000
         C           -0.000917254157    -1.010633682368     0.006551390915    12.000000000000
         H           -2.158009254157     1.632250317632    -0.017945609085     1.007825032230
         H            2.156192745843     1.632237317632    -0.017947609085     1.007825032230
         H           -0.000625254157     3.687171317632     1.044214390915     1.007825032230
         H            0.884587745843     3.719674317632    -0.486060609085     1.007825032230
         H           -0.886629254157     3.719682317632    -0.485605609085     1.007825032230
         H           -0.000919254157    -2.095894682368     0.010042390915     1.007825032230

  Basis Set: AUG-CC-PVTZ
    Blend: AUG-CC-PVTZ
  Basis Set: (AUG-CC-PVTZ AUX)
    Blend: AUG-CC-PVTZ-JKFIT
	 Reference Energy          =   -1187.7000192165605768 [Eh]
	 Singles Energy            =      -0.0000000000000000 [Eh]
	 Same-Spin Energy          =      -0.4297356606518574 [Eh]
	 Opposite-Spin Energy      =      -1.2997962761876531 [Eh]
	 Correlation Energy        =      -1.7295319368395106 [Eh]
	 Total Energy              =   -1189.4295511534000980 [Eh]

	 ================> DF-SCS-MP2 Energies <==================
	-----------------------------------------------------------
	 SCS Same-Spin Scale       =       0.3333333333333333 [-]
	 SCS Opposite-Spin Scale   =       1.2000000000000000 [-]
	 SCS Same-Spin Energy      =      -0.1432452202172858 [Eh]
	 SCS Opposite-Spin Energy  =      -1.5597555314251836 [Eh]
	 SCS Correlation Energy    =      -1.7030007516424694 [Eh]
	 SCS Total Energy          =   -1189.4030199682031252 [Eh]
	-----------------------------------------------------------

  Dipole Moment: [D]
     X:     0.0056      Y:     2.1012      Z:     0.0331     Total:     2.1015

*** Psi4 exiting successfully. Buy a developer a beer!
