                               Psi4 1.4a3.dev225

  ==> Input File <==

--------------------------------------------------------------------------
#psi4
#
memory 32 gb

molecule  {
0 1
 Cl        2.7008340    -1.2489210     0.0016850
 Cl       -2.7008440    -1.2489040     0.0016850
  C        0.0000030     1.7216440    -0.0170270
  C       -1.2072320     1.0139100    -0.0094880
  C        1.2072370     1.0139020    -0.0094890
  C        0.0000180     3.2280150     0.0131190
  C        1.1933324    -0.3598015    -0.0003934
  C       -1.1931340    -0.3797940    -0.0002610
  C       -0.0000050    -1.1002640     0.0063140
  H       -2.1570970     1.5426200    -0.0181830
  H        2.1571050     1.5426070    -0.0181850
  H        0.0002870     3.5975410     1.0439770
  H        0.8855000     3.6300440    -0.4862980
  H       -0.8857170     3.6300520    -0.4858430
  H       -0.0000070    -2.1855250     0.0098050
units angstrom
no_reorient  #important for SAPT in psi4, default
symmetry c1  #important for SAPT in psi4, default
}

set PROPERTIES_ORIGIN ["COM"]
properties('MP2/aug-cc-pvtz', properties = ['dipole'])
--------------------------------------------------------------------------

    Molecular point group: c1
  Charge       = 0
  Multiplicity = 1
  Basis Set: AUG-CC-PVTZ
    Blend: AUG-CC-PVTZ
  Basis Set: (AUG-CC-PVTZ AUX)
    Blend: AUG-CC-PVTZ-JKFIT

    Orbital Energies [Eh]
    ---------------------

    Doubly Occupied:

       1A   -104.849287     2A   -104.848115     3A    -11.318368
       4A    -11.318007     5A    -11.271775     6A    -11.261697
       7A    -11.255012     8A    -11.253407     9A    -11.242196
      10A    -10.573084    11A    -10.571773    12A     -8.039987
      13A     -8.038652    14A     -8.038060    15A     -8.038053
      16A     -8.036755    17A     -8.036752    18A     -1.212338
      19A     -1.159842    20A     -1.118362    21A     -1.042591
      22A     -1.001047    23A     -0.959121    24A     -0.821549
      25A     -0.817779    26A     -0.708261    27A     -0.682964
      28A     -0.625548    29A     -0.598841    30A     -0.596466
      31A     -0.593372    32A     -0.563449    33A     -0.555851
      34A     -0.526919    35A     -0.515673    36A     -0.510163
      37A     -0.466203    38A     -0.457238    39A     -0.452365
      40A     -0.345451    41A     -0.343962

  @DF-RHF Final Energy: -1187.70006323137454

   => Energetics <=

    Nuclear Repulsion Energy =            542.8500807383801430
    One-Electron Energy =               -2711.7676194364798903
    Two-Electron Energy =                 981.2174754667250909
    Total Energy =                      -1187.7000632313745427
  Basis Set: (AUG-CC-PVTZ AUX)
    Blend: AUG-CC-PVTZ-RI
    Molecular point group: c1

    Geometry (in Angstrom), charge = 0, multiplicity = 1:

       Center              X                  Y                   Z               Mass
    ------------   -----------------  -----------------  -----------------  -----------------
         CL           2.700819281919    -1.162378976044     0.001955229064    34.968852682000
         CL          -2.700858718081    -1.162361976044     0.001955229064    34.968852682000
         C           -0.000011718081     1.808186023956    -0.016756770936    12.000000000000
         C           -1.207246718081     1.100452023956    -0.009217770936    12.000000000000
         C            1.207222281919     1.100444023956    -0.009218770936    12.000000000000
         C            0.000003281919     3.314557023956     0.013389229064    12.000000000000
         C            1.193317681919    -0.273259476044    -0.000123170936    12.000000000000
         C           -1.193148718081    -0.293251976044     0.000009229064    12.000000000000
         C           -0.000019718081    -1.013721976044     0.006584229064    12.000000000000
         H           -2.157111718081     1.629162023956    -0.017912770936     1.007825032230
         H            2.157090281919     1.629149023956    -0.017914770936     1.007825032230
         H            0.000272281919     3.684083023956     1.044247229064     1.007825032230
         H            0.885485281919     3.716586023956    -0.486027770936     1.007825032230
         H           -0.885731718081     3.716594023956    -0.485572770936     1.007825032230
         H           -0.000021718081    -2.098982976044     0.010075229064     1.007825032230

  Basis Set: AUG-CC-PVTZ
    Blend: AUG-CC-PVTZ
  Basis Set: (AUG-CC-PVTZ AUX)
    Blend: AUG-CC-PVTZ-JKFIT
	 Reference Energy          =   -1187.7000632313745427 [Eh]
	 Singles Energy            =      -0.0000000000000000 [Eh]
	 Same-Spin Energy          =      -0.4297900291350544 [Eh]
	 Opposite-Spin Energy      =      -1.2999084732375450 [Eh]
	 Correlation Energy        =      -1.7296985023725995 [Eh]
	 Total Energy              =   -1189.4297617337472275 [Eh]

	 ================> DF-SCS-MP2 Energies <==================
	-----------------------------------------------------------
	 SCS Same-Spin Scale       =       0.3333333333333333 [-]
	 SCS Opposite-Spin Scale   =       1.2000000000000000 [-]
	 SCS Same-Spin Energy      =      -0.1432633430450181 [Eh]
	 SCS Opposite-Spin Energy  =      -1.5598901678850539 [Eh]
	 SCS Correlation Energy    =      -1.7031535109300719 [Eh]
	 SCS Total Energy          =   -1189.4032167423047213 [Eh]
	-----------------------------------------------------------

  Dipole Moment: [D]
     X:    -0.0409      Y:     2.1742      Z:     0.0354     Total:     2.1749

*** Psi4 exiting successfully. Buy a developer a beer!
