                               Psi4 1.4a3.dev225

  ==> Input File <==

--------------------------------------------------------------------------
#psi4
#
memory 32 gb

molecule  {
0 1
 Cl        2.7008340    -1.2489210     0.0016850
 Cl       -2.7008440    -1.2489040     0.0016850
  C        0.0000030     1.7216440    -0.0170270
  C       -1.2072320     1.0139100    -0.0094880
  C        1.2072370     1.0139020    -0.0094890
  C        0.0000180     3.2280150     0.0131190
  C        1.1931300    -0.3798000    -0.0002610
  C       -1.1931340    -0.3797940    -0.0002610
  C       -0.0000050    -1.1002640     0.0063140
  H       -2.1570970     1.5426200    -0.0181830
  H        2.1571050     1.5426070    -0.0181850
  H        0.0002993     3.6144130     1.0910444
  H        0.8855000     3.6300440    -0.4862980
  H       -0.8857170     3.6300520    -0.4858430
  H       -0.0000070    -2.1855250     0.0098050
units angstrom
no_reorient  #important for SAPT in psi4, default
symmetry c1  #important for SAPT in psi4, default
}

set PROPERTIES_ORIGIN ["COM"]
properties('MP2/aug-cc-pvtz', properties = ['dipole'])
--------------------------------------------------------------------------

    Molecular point group: c1
  Charge       = 0
  Multiplicity = 1
  Basis Set: AUG-CC-PVTZ
    Blend: AUG-CC-PVTZ
  Basis Set: (AUG-CC-PVTZ AUX)
    Blend: AUG-CC-PVTZ-JKFIT

    Orbital Energies [Eh]
    ---------------------

    Doubly Occupied:

       1A   -104.849344     2A   -104.849344     3A    -11.318340
       4A    -11.318332     5A    -11.271460     6A    -11.260608
       7A    -11.255182     8A    -11.255128     9A    -11.247680
      10A    -10.573129    11A    -10.573128    12A     -8.040032
      13A     -8.040032    14A     -8.038105    15A     -8.038104
      16A     -8.038098    17A     -8.038098    18A     -1.212200
      19A     -1.160928    20A     -1.118381    21A     -1.043035
      22A     -0.998334    23A     -0.955903    24A     -0.823219
      25A     -0.814787    26A     -0.707476    27A     -0.682524
      28A     -0.626736    29A     -0.594850    30A     -0.594385
      31A     -0.591220    32A     -0.564144    33A     -0.553250
      34A     -0.525651    35A     -0.517676    36A     -0.510840
      37A     -0.466127    38A     -0.457934    39A     -0.451681
      40A     -0.345777    41A     -0.341999

  @DF-RHF Final Energy: -1187.69817961280182

   => Energetics <=

    Nuclear Repulsion Energy =            542.6111478955758685
    One-Electron Energy =               -2711.2922572731008586
    Two-Electron Energy =                 980.9829297647231670
    Total Energy =                      -1187.6981796128018232
  Basis Set: (AUG-CC-PVTZ AUX)
    Blend: AUG-CC-PVTZ-RI
    Molecular point group: c1

    Geometry (in Angstrom), charge = 0, multiplicity = 1:

       Center              X                  Y                   Z               Mass
    ------------   -----------------  -----------------  -----------------  -----------------
         CL           2.700834385891    -1.160985230030     0.001648796527    34.968852682000
         CL          -2.700843614109    -1.160968230030     0.001648796527    34.968852682000
         C            0.000003385891     1.809579769970    -0.017063203473    12.000000000000
         C           -1.207231614109     1.101845769970    -0.009524203473    12.000000000000
         C            1.207237385891     1.101837769970    -0.009525203473    12.000000000000
         C            0.000018385891     3.315950769970     0.013082796527    12.000000000000
         C            1.193130385891    -0.291864230030    -0.000297203473    12.000000000000
         C           -1.193133614109    -0.291858230030    -0.000297203473    12.000000000000
         C           -0.000004614109    -1.012328230030     0.006277796527    12.000000000000
         H           -2.157096614109     1.630555769970    -0.018219203473     1.007825032230
         H            2.157105385891     1.630542769970    -0.018221203473     1.007825032230
         H            0.000299685891     3.702348769970     1.091008196527     1.007825032230
         H            0.885500385891     3.717979769970    -0.486334203473     1.007825032230
         H           -0.885716614109     3.717987769970    -0.485879203473     1.007825032230
         H           -0.000006614109    -2.097589230030     0.009768796527     1.007825032230

  Basis Set: AUG-CC-PVTZ
    Blend: AUG-CC-PVTZ
  Basis Set: (AUG-CC-PVTZ AUX)
    Blend: AUG-CC-PVTZ-JKFIT
	 Reference Energy          =   -1187.6981796128018232 [Eh]
	 Singles Energy            =      -0.0000000000000000 [Eh]
	 Same-Spin Energy          =      -0.4298855743617525 [Eh]
	 Opposite-Spin Energy      =      -1.3003439869280256 [Eh]
	 Correlation Energy        =      -1.7302295612897780 [Eh]
	 Total Energy              =   -1189.4284091740917120 [Eh]

	 ================> DF-SCS-MP2 Energies <==================
	-----------------------------------------------------------
	 SCS Same-Spin Scale       =       0.3333333333333333 [-]
	 SCS Opposite-Spin Scale   =       1.2000000000000000 [-]
	 SCS Same-Spin Energy      =      -0.1432951914539175 [Eh]
	 SCS Opposite-Spin Energy  =      -1.5604127843136306 [Eh]
	 SCS Correlation Energy    =      -1.7037079757675482 [Eh]
	 SCS Total Energy          =   -1189.4018875885694797 [Eh]
	-----------------------------------------------------------

  Dipole Moment: [D]
     X:     0.0000      Y:     2.1182      Z:     0.0203     Total:     2.1183

*** Psi4 exiting successfully. Buy a developer a beer!
