                               Psi4 1.4a3.dev225

  ==> Input File <==

--------------------------------------------------------------------------
#psi4
#
memory 32 gb

molecule  {
0 1
 Cl        2.7008340    -1.2489210     0.0016850
 Cl       -2.7008440    -1.2489040     0.0016850
  C        0.0000030     1.7216440    -0.0170270
  C       -1.2072320     1.0139100    -0.0094880
  C        1.2072370     1.0139020    -0.0094890
  C        0.0000180     3.2280150     0.0131190
  C        1.2175481    -0.4218770     0.0001230
  C       -1.1931340    -0.3797940    -0.0002610
  C       -0.0000050    -1.1002640     0.0063140
  H       -2.1570970     1.5426200    -0.0181830
  H        2.1571050     1.5426070    -0.0181850
  H        0.0002870     3.5975410     1.0439770
  H        0.8855000     3.6300440    -0.4862980
  H       -0.8857170     3.6300520    -0.4858430
  H       -0.0000070    -2.1855250     0.0098050
units angstrom
no_reorient  #important for SAPT in psi4, default
symmetry c1  #important for SAPT in psi4, default
}

set PROPERTIES_ORIGIN ["COM"]
properties('MP2/aug-cc-pvtz', properties = ['dipole'])
--------------------------------------------------------------------------

    Molecular point group: c1
  Charge       = 0
  Multiplicity = 1
  Basis Set: AUG-CC-PVTZ
    Blend: AUG-CC-PVTZ
  Basis Set: (AUG-CC-PVTZ AUX)
    Blend: AUG-CC-PVTZ-JKFIT

    Orbital Energies [Eh]
    ---------------------

    Doubly Occupied:

       1A   -104.853910     2A   -104.848568     3A    -11.319220
       4A    -11.317018     5A    -11.269324     6A    -11.259082
       7A    -11.257266     8A    -11.254199     9A    -11.240821
      10A    -10.578323    11A    -10.572325    12A     -8.045336
      13A     -8.043268    14A     -8.043248    15A     -8.039230
      16A     -8.037301    17A     -8.037298    18A     -1.211541
      19A     -1.166795    20A     -1.118886    21A     -1.042956
      22A     -0.992721    23A     -0.955702    24A     -0.824416
      25A     -0.811993    26A     -0.704063    27A     -0.679500
      28A     -0.632838    29A     -0.596683    30A     -0.595584
      31A     -0.588744    32A     -0.563133    33A     -0.556210
      34A     -0.525392    35A     -0.520151    36A     -0.514051
      37A     -0.465750    38A     -0.458418    39A     -0.451059
      40A     -0.345784    41A     -0.335591

  @DF-RHF Final Energy: -1187.69663303576544

   => Energetics <=

    Nuclear Repulsion Energy =            542.7044383993537622
    One-Electron Energy =               -2711.4547446141345972
    Two-Electron Energy =                 981.0536731790153908
    Total Energy =                      -1187.6966330357654442
  Basis Set: (AUG-CC-PVTZ AUX)
    Blend: AUG-CC-PVTZ-RI
    Molecular point group: c1

    Geometry (in Angstrom), charge = 0, multiplicity = 1:

       Center              X                  Y                   Z               Mass
    ------------   -----------------  -----------------  -----------------  -----------------
         CL           2.699002930226    -1.157722867010     0.001916495350    34.968852682000
         CL          -2.702675069774    -1.157705867010     0.001916495350    34.968852682000
         C           -0.001828069774     1.812842132990    -0.016795504650    12.000000000000
         C           -1.209063069774     1.105108132990    -0.009256504650    12.000000000000
         C            1.205405930226     1.105100132990    -0.009257504650    12.000000000000
         C           -0.001813069774     3.319213132990     0.013350495350    12.000000000000
         C            1.215717030226    -0.330678867010     0.000354495350    12.000000000000
         C           -1.194965069774    -0.288595867010    -0.000029504650    12.000000000000
         C           -0.001836069774    -1.009065867010     0.006545495350    12.000000000000
         H           -2.158928069774     1.633818132990    -0.017951504650     1.007825032230
         H            2.155273930226     1.633805132990    -0.017953504650     1.007825032230
         H           -0.001544069774     3.688739132990     1.044208495350     1.007825032230
         H            0.883668930226     3.721242132990    -0.486066504650     1.007825032230
         H           -0.887548069774     3.721250132990    -0.485611504650     1.007825032230
         H           -0.001838069774    -2.094326867010     0.010036495350     1.007825032230

  Basis Set: AUG-CC-PVTZ
    Blend: AUG-CC-PVTZ
  Basis Set: (AUG-CC-PVTZ AUX)
    Blend: AUG-CC-PVTZ-JKFIT
	 Reference Energy          =   -1187.6966330357654442 [Eh]
	 Singles Energy            =      -0.0000000000000000 [Eh]
	 Same-Spin Energy          =      -0.4303247991331852 [Eh]
	 Opposite-Spin Energy      =      -1.3007608611909702 [Eh]
	 Correlation Energy        =      -1.7310856603241553 [Eh]
	 Total Energy              =   -1189.4277186960896415 [Eh]

	 ================> DF-SCS-MP2 Energies <==================
	-----------------------------------------------------------
	 SCS Same-Spin Scale       =       0.3333333333333333 [-]
	 SCS Opposite-Spin Scale   =       1.2000000000000000 [-]
	 SCS Same-Spin Energy      =      -0.1434415997110617 [Eh]
	 SCS Opposite-Spin Energy  =      -1.5609130334291643 [Eh]
	 SCS Correlation Energy    =      -1.7043546331402259 [Eh]
	 SCS Total Energy          =   -1189.4009876689056000 [Eh]
	-----------------------------------------------------------

  Dipole Moment: [D]
     X:     0.1921      Y:     2.0122      Z:     0.0354     Total:     2.0216

*** Psi4 exiting successfully. Buy a developer a beer!
