                               Psi4 1.4a3.dev225

  ==> Input File <==

--------------------------------------------------------------------------
#psi4
#
memory 32 gb

molecule  {
0 1
 Cl        2.7008340    -1.2489210     0.0016850
 Cl       -2.7008440    -1.2489040     0.0016850
  C        0.0000030     1.7216440    -0.0170270
  C       -1.2072320     1.0139100    -0.0094880
  C        1.2072370     1.0139020    -0.0094890
  C        0.0000180     3.2280150     0.0131190
  C        1.1931300    -0.3798000    -0.0002610
  C       -1.1921225    -0.4797867     0.0004010
  C       -0.0000050    -1.1002640     0.0063140
  H       -2.1570970     1.5426200    -0.0181830
  H        2.1571050     1.5426070    -0.0181850
  H        0.0002870     3.5975410     1.0439770
  H        0.8855000     3.6300440    -0.4862980
  H       -0.8857170     3.6300520    -0.4858430
  H       -0.0000070    -2.1855250     0.0098050
units angstrom
no_reorient  #important for SAPT in psi4, default
symmetry c1  #important for SAPT in psi4, default
}

set PROPERTIES_ORIGIN ["COM"]
properties('MP2/aug-cc-pvtz', properties = ['dipole'])
--------------------------------------------------------------------------

    Molecular point group: c1
  Charge       = 0
  Multiplicity = 1
  Basis Set: AUG-CC-PVTZ
    Blend: AUG-CC-PVTZ
  Basis Set: (AUG-CC-PVTZ AUX)
    Blend: AUG-CC-PVTZ-JKFIT

    Orbital Energies [Eh]
    ---------------------

    Doubly Occupied:

       1A   -104.854506     2A   -104.848975     3A    -11.318140
       4A    -11.317357     5A    -11.267987     6A    -11.261035
       7A    -11.254809     8A    -11.253988     9A    -11.240229
      10A    -10.578979    11A    -10.572700    12A     -8.046004
      13A     -8.043916    14A     -8.043894    15A     -8.039604
      16A     -8.037676    17A     -8.037674    18A     -1.212633
      19A     -1.167275    20A     -1.117813    21A     -1.049415
      22A     -0.988127    23A     -0.953989    24A     -0.830989
      25A     -0.805710    26A     -0.703916    27A     -0.678800
      28A     -0.634840    29A     -0.598318    30A     -0.595473
      31A     -0.584551    32A     -0.564012    33A     -0.557780
      34A     -0.524041    35A     -0.519962    36A     -0.514130
      37A     -0.462980    38A     -0.458870    39A     -0.450564
      40A     -0.352879    41A     -0.329550

  @DF-RHF Final Energy: -1187.68874699450043

   => Energetics <=

    Nuclear Repulsion Energy =            542.7689880326947787
    One-Electron Energy =               -2711.5672839791195656
    Two-Electron Energy =                 981.1095489519244666
    Total Energy =                      -1187.6887469945004341
  Basis Set: (AUG-CC-PVTZ AUX)
    Blend: AUG-CC-PVTZ-RI
    Molecular point group: c1

    Geometry (in Angstrom), charge = 0, multiplicity = 1:

       Center              X                  Y                   Z               Mass
    ------------   -----------------  -----------------  -----------------  -----------------
         CL           2.700758593599    -1.153378772900     0.001895643350    34.968852682000
         CL          -2.700919406401    -1.153361772900     0.001895643350    34.968852682000
         C           -0.000072406401     1.817186227100    -0.016816356650    12.000000000000
         C           -1.207307406401     1.109452227100    -0.009277356650    12.000000000000
         C            1.207161593599     1.109444227100    -0.009278356650    12.000000000000
         C           -0.000057406401     3.323557227100     0.013329643350    12.000000000000
         C            1.193054593599    -0.284257772900    -0.000050356650    12.000000000000
         C           -1.192197906401    -0.384244472900     0.000611643350    12.000000000000
         C           -0.000080406401    -1.004721772900     0.006524643350    12.000000000000
         H           -2.157172406401     1.638162227100    -0.017972356650     1.007825032230
         H            2.157029593599     1.638149227100    -0.017974356650     1.007825032230
         H            0.000211593599     3.693083227100     1.044187643350     1.007825032230
         H            0.885424593599     3.725586227100    -0.486087356650     1.007825032230
         H           -0.885792406401     3.725594227100    -0.485632356650     1.007825032230
         H           -0.000082406401    -2.089982772900     0.010015643350     1.007825032230

  Basis Set: AUG-CC-PVTZ
    Blend: AUG-CC-PVTZ
  Basis Set: (AUG-CC-PVTZ AUX)
    Blend: AUG-CC-PVTZ-JKFIT
	 Reference Energy          =   -1187.6887469945004341 [Eh]
	 Singles Energy            =      -0.0000000000000000 [Eh]
	 Same-Spin Energy          =      -0.4300809914755385 [Eh]
	 Opposite-Spin Energy      =      -1.3011362528949482 [Eh]
	 Correlation Energy        =      -1.7312172443704865 [Eh]
	 Total Energy              =   -1189.4199642388709890 [Eh]

	 ================> DF-SCS-MP2 Energies <==================
	-----------------------------------------------------------
	 SCS Same-Spin Scale       =       0.3333333333333333 [-]
	 SCS Opposite-Spin Scale   =       1.2000000000000000 [-]
	 SCS Same-Spin Energy      =      -0.1433603304918462 [Eh]
	 SCS Opposite-Spin Energy  =      -1.5613635034739377 [Eh]
	 SCS Correlation Energy    =      -1.7047238339657838 [Eh]
	 SCS Total Energy          =   -1189.3934708284662065 [Eh]
	-----------------------------------------------------------

  Dipole Moment: [D]
     X:    -0.2029      Y:     1.9679      Z:     0.0358     Total:     1.9786

*** Psi4 exiting successfully. Buy a developer a beer!
