                               Psi4 1.4a3.dev225

  ==> Input File <==

--------------------------------------------------------------------------
#psi4
#
memory 32 gb

molecule  {
0 1
 Cl        2.7008340    -1.2489210     0.0016850
 Cl       -2.7008440    -1.2489040     0.0016850
  C        0.0000030     1.7216440    -0.0170270
  C       -1.2072320     1.0139100    -0.0094880
  C        1.1266870     0.8916202    -0.0133841
  C        0.0000180     3.2280150     0.0131190
  C        1.1931300    -0.3798000    -0.0002610
  C       -1.1931340    -0.3797940    -0.0002610
  C       -0.0000050    -1.1002640     0.0063140
  H       -2.1570970     1.5426200    -0.0181830
  H        2.1571050     1.5426070    -0.0181850
  H        0.0002870     3.5975410     1.0439770
  H        0.8855000     3.6300440    -0.4862980
  H       -0.8857170     3.6300520    -0.4858430
  H       -0.0000070    -2.1855250     0.0098050
units angstrom
no_reorient  #important for SAPT in psi4, default
symmetry c1  #important for SAPT in psi4, default
}

set PROPERTIES_ORIGIN ["COM"]
properties('MP2/aug-cc-pvtz', properties = ['dipole'])
--------------------------------------------------------------------------

    Molecular point group: c1
  Charge       = 0
  Multiplicity = 1
  Basis Set: AUG-CC-PVTZ
    Blend: AUG-CC-PVTZ
  Basis Set: (AUG-CC-PVTZ AUX)
    Blend: AUG-CC-PVTZ-JKFIT

    Orbital Energies [Eh]
    ---------------------

    Doubly Occupied:

       1A   -104.850221     2A   -104.847732     3A    -11.314942
       4A    -11.302626     5A    -11.272198     6A    -11.260209
       7A    -11.255190     8A    -11.252156     9A    -11.246476
      10A    -10.573905    11A    -10.571516    12A     -8.040814
      13A     -8.038850    14A     -8.038846    15A     -8.038426
      16A     -8.036495    17A     -8.036491    18A     -1.223389
      19A     -1.163364    20A     -1.119894    21A     -1.047663
      22A     -1.005658    23A     -0.961886    24A     -0.833597
      25A     -0.813820    26A     -0.698094    27A     -0.688583
      28A     -0.626062    29A     -0.602218    30A     -0.596692
      31A     -0.582138    32A     -0.563017    33A     -0.559513
      34A     -0.537969    35A     -0.512918    36A     -0.488379
      37A     -0.468862    38A     -0.457433    39A     -0.455834
      40A     -0.354110    41A     -0.342066

  @DF-RHF Final Energy: -1187.67220963509408

   => Energetics <=

    Nuclear Repulsion Energy =            545.4279684371448411
    One-Electron Energy =               -2716.8398511932514339
    Two-Electron Energy =                 983.7396731210125154
    Total Energy =                      -1187.6722096350940774
  Basis Set: (AUG-CC-PVTZ AUX)
    Blend: AUG-CC-PVTZ-RI
    Molecular point group: c1

    Geometry (in Angstrom), charge = 0, multiplicity = 1:

       Center              X                  Y                   Z               Mass
    ------------   -----------------  -----------------  -----------------  -----------------
         CL           2.706876292804    -1.151706930065     0.002237458631    34.968852682000
         CL          -2.694801707196    -1.151689930065     0.002237458631    34.968852682000
         C            0.006045292804     1.818858069935    -0.016474541369    12.000000000000
         C           -1.201189707196     1.111124069935    -0.008935541369    12.000000000000
         C            1.132729292804     0.988834269935    -0.012831641369    12.000000000000
         C            0.006060292804     3.325229069935     0.013671458631    12.000000000000
         C            1.199172292804    -0.282585930065     0.000291458631    12.000000000000
         C           -1.187091707196    -0.282579930065     0.000291458631    12.000000000000
         C            0.006037292804    -1.003049930065     0.006866458631    12.000000000000
         H           -2.151054707196     1.639834069935    -0.017630541369     1.007825032230
         H            2.163147292804     1.639821069935    -0.017632541369     1.007825032230
         H            0.006329292804     3.694755069935     1.044529458631     1.007825032230
         H            0.891542292804     3.727258069935    -0.485745541369     1.007825032230
         H           -0.879674707196     3.727266069935    -0.485290541369     1.007825032230
         H            0.006035292804    -2.088310930065     0.010357458631     1.007825032230

  Basis Set: AUG-CC-PVTZ
    Blend: AUG-CC-PVTZ
  Basis Set: (AUG-CC-PVTZ AUX)
    Blend: AUG-CC-PVTZ-JKFIT
	 Reference Energy          =   -1187.6722096350940774 [Eh]
	 Singles Energy            =      -0.0000000000000000 [Eh]
	 Same-Spin Energy          =      -0.4302599741095321 [Eh]
	 Opposite-Spin Energy      =      -1.3007942657981115 [Eh]
	 Correlation Energy        =      -1.7310542399076436 [Eh]
	 Total Energy              =   -1189.4032638750018123 [Eh]

	 ================> DF-SCS-MP2 Energies <==================
	-----------------------------------------------------------
	 SCS Same-Spin Scale       =       0.3333333333333333 [-]
	 SCS Opposite-Spin Scale   =       1.2000000000000000 [-]
	 SCS Same-Spin Energy      =      -0.1434199913698440 [Eh]
	 SCS Opposite-Spin Energy  =      -1.5609531189577337 [Eh]
	 SCS Correlation Energy    =      -1.7043731103275777 [Eh]
	 SCS Total Energy          =   -1189.3765827454217288 [Eh]
	-----------------------------------------------------------

  Dipole Moment: [D]
     X:    -0.0609      Y:     2.2277      Z:     0.0385     Total:     2.2289

*** Psi4 exiting successfully. Buy a developer a beer!
