                               Psi4 1.4a3.dev225

  ==> Input File <==

--------------------------------------------------------------------------
#psi4
#
memory 32 gb

molecule  {
0 1
 Cl        2.7008340    -1.2489210     0.0016850
 Cl       -2.7008440    -1.2489040     0.0016850
  C        0.0228250     1.7216119    -0.0039641
  C       -1.2072320     1.0139100    -0.0094880
  C        1.2072370     1.0139020    -0.0094890
  C        0.0000180     3.2280150     0.0131190
  C        1.1931300    -0.3798000    -0.0002610
  C       -1.1931340    -0.3797940    -0.0002610
  C       -0.0000050    -1.1002640     0.0063140
  H       -2.1570970     1.5426200    -0.0181830
  H        2.1571050     1.5426070    -0.0181850
  H        0.0002870     3.5975410     1.0439770
  H        0.8855000     3.6300440    -0.4862980
  H       -0.8857170     3.6300520    -0.4858430
  H       -0.0000070    -2.1855250     0.0098050
units angstrom
no_reorient  #important for SAPT in psi4, default
symmetry c1  #important for SAPT in psi4, default
}

set PROPERTIES_ORIGIN ["COM"]
properties('MP2/aug-cc-pvtz', properties = ['dipole'])
--------------------------------------------------------------------------

    Molecular point group: c1
  Charge       = 0
  Multiplicity = 1
  Basis Set: AUG-CC-PVTZ
    Blend: AUG-CC-PVTZ
  Basis Set: (AUG-CC-PVTZ AUX)
    Blend: AUG-CC-PVTZ-JKFIT

    Orbital Energies [Eh]
    ---------------------

    Doubly Occupied:

       1A   -104.849470     2A   -104.848981     3A    -11.318503
       4A    -11.317866     5A    -11.271083     6A    -11.260370
       7A    -11.256712     8A    -11.252977     9A    -11.241891
      10A    -10.573243    11A    -10.572778    12A     -8.040146
      13A     -8.039681    14A     -8.038220    15A     -8.038212
      16A     -8.037754    17A     -8.037748    18A     -1.212084
      19A     -1.160798    20A     -1.118660    21A     -1.043658
      22A     -0.998173    23A     -0.958710    24A     -0.823953
      25A     -0.814979    26A     -0.707468    27A     -0.682195
      28A     -0.626817    29A     -0.598207    30A     -0.596042
      31A     -0.592873    32A     -0.563599    33A     -0.556033
      34A     -0.527052    35A     -0.515936    36A     -0.510693
      37A     -0.465944    38A     -0.457791    39A     -0.452132
      40A     -0.347270    41A     -0.340659

  @DF-RHF Final Energy: -1187.69963274212455

   => Energetics <=

    Nuclear Repulsion Energy =            542.8336745962177474
    One-Electron Energy =               -2711.7318849995535857
    Two-Electron Energy =                 981.1985776612111749
    Total Energy =                      -1187.6996327421245496
  Basis Set: (AUG-CC-PVTZ AUX)
    Blend: AUG-CC-PVTZ-RI
    Molecular point group: c1

    Geometry (in Angstrom), charge = 0, multiplicity = 1:

       Center              X                  Y                   Z               Mass
    ------------   -----------------  -----------------  -----------------  -----------------
         CL           2.699122649208    -1.160876536956     0.000965486645    34.968852682000
         CL          -2.702555350792    -1.160859536956     0.000965486645    34.968852682000
         C            0.021113649208     1.809656363044    -0.004683613355    12.000000000000
         C           -1.208943350792     1.101954463044    -0.010207513355    12.000000000000
         C            1.205525649208     1.101946463044    -0.010208513355    12.000000000000
         C           -0.001693350792     3.316059463044     0.012399486645    12.000000000000
         C            1.191418649208    -0.291755536956    -0.000980513355    12.000000000000
         C           -1.194845350792    -0.291749536956    -0.000980513355    12.000000000000
         C           -0.001716350792    -1.012219536956     0.005594486645    12.000000000000
         H           -2.158808350792     1.630664463044    -0.018902513355     1.007825032230
         H            2.155393649208     1.630651463044    -0.018904513355     1.007825032230
         H           -0.001424350792     3.685585463044     1.043257486645     1.007825032230
         H            0.883788649208     3.718088463044    -0.487017513355     1.007825032230
         H           -0.887428350792     3.718096463044    -0.486562513355     1.007825032230
         H           -0.001718350792    -2.097480536956     0.009085486645     1.007825032230

  Basis Set: AUG-CC-PVTZ
    Blend: AUG-CC-PVTZ
  Basis Set: (AUG-CC-PVTZ AUX)
    Blend: AUG-CC-PVTZ-JKFIT
	 Reference Energy          =   -1187.6996327421245496 [Eh]
	 Singles Energy            =      -0.0000000000000000 [Eh]
	 Same-Spin Energy          =      -0.4298656115796373 [Eh]
	 Opposite-Spin Energy      =      -1.3000437783902397 [Eh]
	 Correlation Energy        =      -1.7299093899698770 [Eh]
	 Total Energy              =   -1189.4295421320944115 [Eh]

	 ================> DF-SCS-MP2 Energies <==================
	-----------------------------------------------------------
	 SCS Same-Spin Scale       =       0.3333333333333333 [-]
	 SCS Opposite-Spin Scale   =       1.2000000000000000 [-]
	 SCS Same-Spin Energy      =      -0.1432885371932124 [Eh]
	 SCS Opposite-Spin Energy  =      -1.5600525340682876 [Eh]
	 SCS Correlation Energy    =      -1.7033410712615000 [Eh]
	 SCS Total Energy          =   -1189.4029738133860974 [Eh]
	-----------------------------------------------------------

  Dipole Moment: [D]
     X:     0.0105      Y:     2.1422      Z:     0.0310     Total:     2.1425

*** Psi4 exiting successfully. Buy a developer a beer!
