                               Psi4 1.4a3.dev225

  ==> Input File <==

--------------------------------------------------------------------------
#psi4
#
memory 32 gb

molecule  {
0 1
 Cl        2.7008340    -1.2489210     0.0016850
 Cl       -2.7008440    -1.2489040     0.0016850
  C        0.0000030     1.7216440    -0.0170270
  C       -1.2072320     1.0139100    -0.0094880
  C        1.0614752     1.0077432    -0.0092265
  C        0.0000180     3.2280150     0.0131190
  C        1.1931300    -0.3798000    -0.0002610
  C       -1.1931340    -0.3797940    -0.0002610
  C       -0.0000050    -1.1002640     0.0063140
  H       -2.1570970     1.5426200    -0.0181830
  H        2.1571050     1.5426070    -0.0181850
  H        0.0002870     3.5975410     1.0439770
  H        0.8855000     3.6300440    -0.4862980
  H       -0.8857170     3.6300520    -0.4858430
  H       -0.0000070    -2.1855250     0.0098050
units angstrom
no_reorient  #important for SAPT in psi4, default
symmetry c1  #important for SAPT in psi4, default
}

set PROPERTIES_ORIGIN ["COM"]
properties('MP2/aug-cc-pvtz', properties = ['dipole'])
--------------------------------------------------------------------------

    Molecular point group: c1
  Charge       = 0
  Multiplicity = 1
  Basis Set: AUG-CC-PVTZ
    Blend: AUG-CC-PVTZ
  Basis Set: (AUG-CC-PVTZ AUX)
    Blend: AUG-CC-PVTZ-JKFIT

    Orbital Energies [Eh]
    ---------------------

    Doubly Occupied:

       1A   -104.856085     2A   -104.847675     3A    -11.317566
       4A    -11.314510     5A    -11.261414     6A    -11.256204
       7A    -11.254502     8A    -11.251715     9A    -11.242089
      10A    -10.579359    11A    -10.571459    12A     -8.046270
      13A     -8.044311    14A     -8.044306    15A     -8.038369
      16A     -8.036440    17A     -8.036433    18A     -1.219810
      19A     -1.160128    20A     -1.132731    21A     -1.047231
      22A     -0.996070    23A     -0.961098    24A     -0.837739
      25A     -0.811919    26A     -0.697506    27A     -0.688006
      28A     -0.626329    29A     -0.602500    30A     -0.597135
      31A     -0.582917    32A     -0.557774    33A     -0.554629
      34A     -0.536553    35A     -0.511534    36A     -0.494581
      37A     -0.467105    38A     -0.460788    39A     -0.458287
      40A     -0.357568    41A     -0.339027

  @DF-RHF Final Energy: -1187.67218449915936

   => Energetics <=

    Nuclear Repulsion Energy =            544.9571164958066447
    One-Electron Energy =               -2715.8632568702914796
    Two-Electron Energy =                 983.2339558753255915
    Total Energy =                      -1187.6721844991593571
  Basis Set: (AUG-CC-PVTZ AUX)
    Blend: AUG-CC-PVTZ-RI
    Molecular point group: c1

    Geometry (in Angstrom), charge = 0, multiplicity = 1:

       Center              X                  Y                   Z               Mass
    ------------   -----------------  -----------------  -----------------  -----------------
         CL           2.711767646898    -1.160416990384     0.001925608724    34.968852682000
         CL          -2.689910353102    -1.160399990384     0.001925608724    34.968852682000
         C            0.010936646898     1.810148009616    -0.016786391276    12.000000000000
         C           -1.196298353102     1.102414009616    -0.009247391276    12.000000000000
         C            1.072408846898     1.096247209616    -0.008985891276    12.000000000000
         C            0.010951646898     3.316519009616     0.013359608724    12.000000000000
         C            1.204063646898    -0.291295990384    -0.000020391276    12.000000000000
         C           -1.182200353102    -0.291289990384    -0.000020391276    12.000000000000
         C            0.010928646898    -1.011759990384     0.006554608724    12.000000000000
         H           -2.146163353102     1.631124009616    -0.017942391276     1.007825032230
         H            2.168038646898     1.631111009616    -0.017944391276     1.007825032230
         H            0.011220646898     3.686045009616     1.044217608724     1.007825032230
         H            0.896433646898     3.718548009616    -0.486057391276     1.007825032230
         H           -0.874783353102     3.718556009616    -0.485602391276     1.007825032230
         H            0.010926646898    -2.097020990384     0.010045608724     1.007825032230

  Basis Set: AUG-CC-PVTZ
    Blend: AUG-CC-PVTZ
  Basis Set: (AUG-CC-PVTZ AUX)
    Blend: AUG-CC-PVTZ-JKFIT
	 Reference Energy          =   -1187.6721844991593571 [Eh]
	 Singles Energy            =      -0.0000000000000000 [Eh]
	 Same-Spin Energy          =      -0.4303680287448894 [Eh]
	 Opposite-Spin Energy      =      -1.3012462844662269 [Eh]
	 Correlation Energy        =      -1.7316143132111164 [Eh]
	 Total Energy              =   -1189.4037988123704963 [Eh]

	 ================> DF-SCS-MP2 Energies <==================
	-----------------------------------------------------------
	 SCS Same-Spin Scale       =       0.3333333333333333 [-]
	 SCS Opposite-Spin Scale   =       1.2000000000000000 [-]
	 SCS Same-Spin Energy      =      -0.1434560095816298 [Eh]
	 SCS Opposite-Spin Energy  =      -1.5614955413594722 [Eh]
	 SCS Correlation Energy    =      -1.7049515509411020 [Eh]
	 SCS Total Energy          =   -1189.3771360501004892 [Eh]
	-----------------------------------------------------------

  Dipole Moment: [D]
     X:     0.0754      Y:     1.9847      Z:     0.0340     Total:     1.9864

*** Psi4 exiting successfully. Buy a developer a beer!
