                               Psi4 1.4a3.dev225

  ==> Input File <==

--------------------------------------------------------------------------
#psi4
#
memory 32 gb

molecule  {
0 1
 Cl        2.7008340    -1.2489210     0.0016850
 Cl       -2.7008440    -1.2489040     0.0016850
  C        0.0000030     1.7216440    -0.0170270
  C       -1.2072320     1.0139100    -0.0094880
  C        1.2072370     1.0139020    -0.0094890
  C        0.0000180     3.2280150     0.0131190
  C        1.1931300    -0.3798000    -0.0002610
  C       -1.1931340    -0.3797940    -0.0002610
  C       -0.0000050    -1.1002640     0.0063140
  H       -2.1570970     1.5426200    -0.0181830
  H        2.1571050     1.5426070    -0.0181850
  H        0.0002379     3.5300531     0.8557076
  H        0.8855000     3.6300440    -0.4862980
  H       -0.8857170     3.6300520    -0.4858430
  H       -0.0000070    -2.1855250     0.0098050
units angstrom
no_reorient  #important for SAPT in psi4, default
symmetry c1  #important for SAPT in psi4, default
}

set PROPERTIES_ORIGIN ["COM"]
properties('MP2/aug-cc-pvtz', properties = ['dipole'])
--------------------------------------------------------------------------

    Molecular point group: c1
  Charge       = 0
  Multiplicity = 1
  Basis Set: AUG-CC-PVTZ
    Blend: AUG-CC-PVTZ
  Basis Set: (AUG-CC-PVTZ AUX)
    Blend: AUG-CC-PVTZ-JKFIT

    Orbital Energies [Eh]
    ---------------------

    Doubly Occupied:

       1A   -104.849050     2A   -104.849050     3A    -11.317951
       4A    -11.317944     5A    -11.270139     6A    -11.260145
       7A    -11.254576     8A    -11.254520     9A    -11.217597
      10A    -10.572837    11A    -10.572837    12A     -8.039740
      13A     -8.039740    14A     -8.037814    15A     -8.037814
      16A     -8.037808    17A     -8.037807    18A     -1.211923
      19A     -1.160606    20A     -1.120643    21A     -1.049039
      22A     -0.997858    23A     -0.975384    24A     -0.822727
      25A     -0.822461    26A     -0.708281    27A     -0.681787
      28A     -0.636609    29A     -0.622845    30A     -0.594415
      31A     -0.593487    32A     -0.562204    33A     -0.561156
      34A     -0.525781    35A     -0.516956    36A     -0.510534
      37A     -0.465838    38A     -0.457632    39A     -0.453385
      40A     -0.347081    41A     -0.341599

  @DF-RHF Final Energy: -1187.66654587744711

   => Energetics <=

    Nuclear Repulsion Energy =            543.8422500158425237
    One-Electron Energy =               -2713.6023864869689532
    Two-Electron Energy =                 982.0935905936792096
    Total Energy =                      -1187.6665458774471062
  Basis Set: (AUG-CC-PVTZ AUX)
    Blend: AUG-CC-PVTZ-RI
    Molecular point group: c1

    Geometry (in Angstrom), charge = 0, multiplicity = 1:

       Center              X                  Y                   Z               Mass
    ------------   -----------------  -----------------  -----------------  -----------------
         CL           2.700834772681    -1.160453803946     0.003131303191    34.968852682000
         CL          -2.700843227319    -1.160436803946     0.003131303191    34.968852682000
         C            0.000003772681     1.810111196054    -0.015580696809    12.000000000000
         C           -1.207231227319     1.102377196054    -0.008041696809    12.000000000000
         C            1.207237772681     1.102369196054    -0.008042696809    12.000000000000
         C            0.000018772681     3.316482196054     0.014565303191    12.000000000000
         C            1.193130772681    -0.291332803946     0.001185303191    12.000000000000
         C           -1.193133227319    -0.291326803946     0.001185303191    12.000000000000
         C           -0.000004227319    -1.011796803946     0.007760303191    12.000000000000
         H           -2.157096227319     1.631087196054    -0.016736696809     1.007825032230
         H            2.157105772681     1.631074196054    -0.016738696809     1.007825032230
         H            0.000238672681     3.618520296054     0.857153903191     1.007825032230
         H            0.885500772681     3.718511196054    -0.484851696809     1.007825032230
         H           -0.885716227319     3.718519196054    -0.484396696809     1.007825032230
         H           -0.000006227319    -2.097057803946     0.011251303191     1.007825032230

  Basis Set: AUG-CC-PVTZ
    Blend: AUG-CC-PVTZ
  Basis Set: (AUG-CC-PVTZ AUX)
    Blend: AUG-CC-PVTZ-JKFIT
	 Reference Energy          =   -1187.6665458774471062 [Eh]
	 Singles Energy            =      -0.0000000000000000 [Eh]
	 Same-Spin Energy          =      -0.4299984687048898 [Eh]
	 Opposite-Spin Energy      =      -1.2994249765863479 [Eh]
	 Correlation Energy        =      -1.7294234452912378 [Eh]
	 Total Energy              =   -1189.3959693227384378 [Eh]

	 ================> DF-SCS-MP2 Energies <==================
	-----------------------------------------------------------
	 SCS Same-Spin Scale       =       0.3333333333333333 [-]
	 SCS Opposite-Spin Scale   =       1.2000000000000000 [-]
	 SCS Same-Spin Energy      =      -0.1433328229016299 [Eh]
	 SCS Opposite-Spin Energy  =      -1.5593099719036174 [Eh]
	 SCS Correlation Energy    =      -1.7026427948052474 [Eh]
	 SCS Total Energy          =   -1189.3691886722524487 [Eh]
	-----------------------------------------------------------

  Dipole Moment: [D]
     X:     0.0000      Y:     2.1764      Z:     0.0649     Total:     2.1773

*** Psi4 exiting successfully. Buy a developer a beer!
