                               Psi4 1.4a3.dev225

  ==> Input File <==

--------------------------------------------------------------------------
#psi4
#
memory 32 gb

molecule  {
0 1
 Cl        2.7008340    -1.2489210     0.0016850
 Cl       -2.7008440    -1.2489040     0.0016850
  C        0.0000030     1.7216440    -0.0170270
  C       -1.2072320     1.0139100    -0.0094880
  C        1.2072370     1.0139020    -0.0094890
  C        0.0000160     3.0280550     0.0091173
  C        1.1931300    -0.3798000    -0.0002610
  C       -1.1931340    -0.3797940    -0.0002610
  C       -0.0000050    -1.1002640     0.0063140
  H       -2.1570970     1.5426200    -0.0181830
  H        2.1571050     1.5426070    -0.0181850
  H        0.0002870     3.5975410     1.0439770
  H        0.8855000     3.6300440    -0.4862980
  H       -0.8857170     3.6300520    -0.4858430
  H       -0.0000070    -2.1855250     0.0098050
units angstrom
no_reorient  #important for SAPT in psi4, default
symmetry c1  #important for SAPT in psi4, default
}

set PROPERTIES_ORIGIN ["COM"]
properties('MP2/aug-cc-pvtz', properties = ['dipole'])
--------------------------------------------------------------------------

    Molecular point group: c1
  Charge       = 0
  Multiplicity = 1
  Basis Set: AUG-CC-PVTZ
    Blend: AUG-CC-PVTZ
  Basis Set: (AUG-CC-PVTZ AUX)
    Blend: AUG-CC-PVTZ-JKFIT

    Orbital Energies [Eh]
    ---------------------

    Doubly Occupied:

       1A   -104.849827     2A   -104.849827     3A    -11.318895
       4A    -11.318887     5A    -11.261077     6A    -11.259870
       7A    -11.255590     8A    -11.255419     9A    -11.251700
      10A    -10.573604    11A    -10.573603    12A     -8.040507
      13A     -8.040506    14A     -8.038579    15A     -8.038579
      16A     -8.038571    17A     -8.038570    18A     -1.216933
      19A     -1.161465    20A     -1.141320    21A     -1.056340
      22A     -1.000356    23A     -0.957755    24A     -0.827273
      25A     -0.809221    26A     -0.708601    27A     -0.689044
      28A     -0.657646    29A     -0.606417    30A     -0.595317
      31A     -0.592972    32A     -0.545813    33A     -0.543157
      34A     -0.542624    35A     -0.511322    36A     -0.491667
      37A     -0.468251    38A     -0.457237    39A     -0.445417
      40A     -0.342998    41A     -0.338543

  @DF-RHF Final Energy: -1187.64763527562786

   => Energetics <=

    Nuclear Repulsion Energy =            546.8027895844454633
    One-Electron Energy =               -2719.4782484382226357
    Two-Electron Energy =                 985.0278235781490821
    Total Energy =                      -1187.6476352756278629
  Basis Set: (AUG-CC-PVTZ AUX)
    Blend: AUG-CC-PVTZ-RI
    Molecular point group: c1

    Geometry (in Angstrom), charge = 0, multiplicity = 1:

       Center              X                  Y                   Z               Mass
    ------------   -----------------  -----------------  -----------------  -----------------
         CL           2.700834613390    -1.145880506295     0.002245454398    34.968852682000
         CL          -2.700843386610    -1.145863506295     0.002245454398    34.968852682000
         C            0.000003613390     1.824684493705    -0.016466545602    12.000000000000
         C           -1.207231386610     1.116950493705    -0.008927545602    12.000000000000
         C            1.207237613390     1.116942493705    -0.008928545602    12.000000000000
         C            0.000016613390     3.131095493705     0.009677754398    12.000000000000
         C            1.193130613390    -0.276759506295     0.000299454398    12.000000000000
         C           -1.193133386610    -0.276753506295     0.000299454398    12.000000000000
         C           -0.000004386610    -0.997223506295     0.006874454398    12.000000000000
         H           -2.157096386610     1.645660493705    -0.017622545602     1.007825032230
         H            2.157105613390     1.645647493705    -0.017624545602     1.007825032230
         H            0.000287613390     3.700581493705     1.044537454398     1.007825032230
         H            0.885500613390     3.733084493705    -0.485737545602     1.007825032230
         H           -0.885716386610     3.733092493705    -0.485282545602     1.007825032230
         H           -0.000006386610    -2.082484506295     0.010365454398     1.007825032230

  Basis Set: AUG-CC-PVTZ
    Blend: AUG-CC-PVTZ
  Basis Set: (AUG-CC-PVTZ AUX)
    Blend: AUG-CC-PVTZ-JKFIT
	 Reference Energy          =   -1187.6476352756278629 [Eh]
	 Singles Energy            =      -0.0000000000000000 [Eh]
	 Same-Spin Energy          =      -0.4334705084906417 [Eh]
	 Opposite-Spin Energy      =      -1.3047542316241514 [Eh]
	 Correlation Energy        =      -1.7382247401147932 [Eh]
	 Total Energy              =   -1189.3858600157427645 [Eh]

	 ================> DF-SCS-MP2 Energies <==================
	-----------------------------------------------------------
	 SCS Same-Spin Scale       =       0.3333333333333333 [-]
	 SCS Opposite-Spin Scale   =       1.2000000000000000 [-]
	 SCS Same-Spin Energy      =      -0.1444901694968806 [Eh]
	 SCS Opposite-Spin Energy  =      -1.5657050779489816 [Eh]
	 SCS Correlation Energy    =      -1.7101952474458622 [Eh]
	 SCS Total Energy          =   -1189.3578305230737442 [Eh]
	-----------------------------------------------------------

  Dipole Moment: [D]
     X:     0.0000      Y:     2.1377      Z:     0.0497     Total:     2.1383

*** Psi4 exiting successfully. Buy a developer a beer!
