                               Psi4 1.4a3.dev225

  ==> Input File <==

--------------------------------------------------------------------------
#psi4
#
memory 32 gb

molecule  {
0 1
 Cl        2.7008340    -1.2489210     0.0016850
 Cl       -2.7008440    -1.2489040     0.0016850
  C        0.0000030     1.7216440    -0.0170270
  C       -1.2072320     1.0139100    -0.0094880
  C        1.2072370     1.0139020    -0.0094890
  C        0.0000180     3.2280150     0.0131190
  C        1.1931300    -0.3798000    -0.0002610
  C       -1.1931340    -0.3797940    -0.0002610
  C       -0.0000050    -1.1002640     0.0063140
  H       -2.1570970     1.5426200    -0.0181830
  H        2.1571050     1.5426070    -0.0181850
  H        0.0002919     3.6042898     1.0628039
  H        0.8855000     3.6300440    -0.4862980
  H       -0.8857170     3.6300520    -0.4858430
  H       -0.0000070    -2.1855250     0.0098050
units angstrom
no_reorient  #important for SAPT in psi4, default
symmetry c1  #important for SAPT in psi4, default
}

set PROPERTIES_ORIGIN ["COM"]
properties('MP2/aug-cc-pvtz', properties = ['dipole'])
--------------------------------------------------------------------------

    Molecular point group: c1
  Charge       = 0
  Multiplicity = 1
  Basis Set: AUG-CC-PVTZ
    Blend: AUG-CC-PVTZ
  Basis Set: (AUG-CC-PVTZ AUX)
    Blend: AUG-CC-PVTZ-JKFIT

    Orbital Energies [Eh]
    ---------------------

    Doubly Occupied:

       1A   -104.849281     2A   -104.849281     3A    -11.318260
       4A    -11.318253     5A    -11.271251     6A    -11.260488
       7A    -11.255043     8A    -11.254989     9A    -11.244204
      10A    -10.573066    11A    -10.573066    12A     -8.039969
      13A     -8.039969    14A     -8.038042    15A     -8.038042
      16A     -8.038036    17A     -8.038035    18A     -1.212116
      19A     -1.160857    20A     -1.118462    21A     -1.043367
      22A     -0.998233    23A     -0.957529    24A     -0.823116
      25A     -0.815427    26A     -0.707464    27A     -0.682380
      28A     -0.626713    29A     -0.595388    30A     -0.594756
      31A     -0.594101    32A     -0.563785    33A     -0.555005
      34A     -0.525730    35A     -0.517536    36A     -0.510773
      37A     -0.466062    38A     -0.457868    39A     -0.451940
      40A     -0.345921    41A     -0.341918

  @DF-RHF Final Energy: -1187.69974560454466

   => Energetics <=

    Nuclear Repulsion Energy =            542.7393190494392456
    One-Electron Energy =               -2711.5466904913878352
    Two-Electron Energy =                 981.1076258374042709
    Total Energy =                      -1187.6997456045446597
  Basis Set: (AUG-CC-PVTZ AUX)
    Blend: AUG-CC-PVTZ-RI
    Molecular point group: c1

    Geometry (in Angstrom), charge = 0, multiplicity = 1:

       Center              X                  Y                   Z               Mass
    ------------   -----------------  -----------------  -----------------  -----------------
         CL           2.700834432508    -1.160921458824     0.001826697856    34.968852682000
         CL          -2.700843567492    -1.160904458824     0.001826697856    34.968852682000
         C            0.000003432508     1.809643541176    -0.016885302144    12.000000000000
         C           -1.207231567492     1.101909541176    -0.009346302144    12.000000000000
         C            1.207237432508     1.101901541176    -0.009347302144    12.000000000000
         C            0.000018432508     3.316014541176     0.013260697856    12.000000000000
         C            1.193130432508    -0.291800458824    -0.000119302144    12.000000000000
         C           -1.193133567492    -0.291794458824    -0.000119302144    12.000000000000
         C           -0.000004567492    -1.012264458824     0.006455697856    12.000000000000
         H           -2.157096567492     1.630619541176    -0.018041302144     1.007825032230
         H            2.157105432508     1.630606541176    -0.018043302144     1.007825032230
         H            0.000292332508     3.692289341176     1.062945597856     1.007825032230
         H            0.885500432508     3.718043541176    -0.486156302144     1.007825032230
         H           -0.885716567492     3.718051541176    -0.485701302144     1.007825032230
         H           -0.000006567492    -2.097525458824     0.009946697856     1.007825032230

  Basis Set: AUG-CC-PVTZ
    Blend: AUG-CC-PVTZ
  Basis Set: (AUG-CC-PVTZ AUX)
    Blend: AUG-CC-PVTZ-JKFIT
	 Reference Energy          =   -1187.6997456045446597 [Eh]
	 Singles Energy            =      -0.0000000000000000 [Eh]
	 Same-Spin Energy          =      -0.4298855020084718 [Eh]
	 Opposite-Spin Energy      =      -1.3001451559194044 [Eh]
	 Correlation Energy        =      -1.7300306579278761 [Eh]
	 Total Energy              =   -1189.4297762624726147 [Eh]

	 ================> DF-SCS-MP2 Energies <==================
	-----------------------------------------------------------
	 SCS Same-Spin Scale       =       0.3333333333333333 [-]
	 SCS Opposite-Spin Scale   =       1.2000000000000000 [-]
	 SCS Same-Spin Energy      =      -0.1432951673361572 [Eh]
	 SCS Opposite-Spin Energy  =      -1.5601741871032853 [Eh]
	 SCS Correlation Energy    =      -1.7034693544394426 [Eh]
	 SCS Total Energy          =   -1189.4032149589841083 [Eh]
	-----------------------------------------------------------

  Dipole Moment: [D]
     X:     0.0000      Y:     2.1305      Z:     0.0298     Total:     2.1307

*** Psi4 exiting successfully. Buy a developer a beer!
