                               Psi4 1.4a3.dev225

  ==> Input File <==

--------------------------------------------------------------------------
#psi4
#
memory 32 gb

molecule  {
0 1
 Cl        2.7008340    -1.2489210     0.0016850
 Cl       -2.7008440    -1.2489040     0.0016850
  C       -0.0912153     1.7263589    -0.0691471
  C       -1.2072320     1.0139100    -0.0094880
  C        1.2072370     1.0139020    -0.0094890
  C        0.0000180     3.2280150     0.0131190
  C        1.1931300    -0.3798000    -0.0002610
  C       -1.1931340    -0.3797940    -0.0002610
  C       -0.0000050    -1.1002640     0.0063140
  H       -2.1570970     1.5426200    -0.0181830
  H        2.1571050     1.5426070    -0.0181850
  H        0.0002870     3.5975410     1.0439770
  H        0.8855000     3.6300440    -0.4862980
  H       -0.8857170     3.6300520    -0.4858430
  H       -0.0000070    -2.1855250     0.0098050
units angstrom
no_reorient  #important for SAPT in psi4, default
symmetry c1  #important for SAPT in psi4, default
}

set PROPERTIES_ORIGIN ["COM"]
properties('MP2/aug-cc-pvtz', properties = ['dipole'])
--------------------------------------------------------------------------

    Molecular point group: c1
  Charge       = 0
  Multiplicity = 1
  Basis Set: AUG-CC-PVTZ
    Blend: AUG-CC-PVTZ
  Basis Set: (AUG-CC-PVTZ AUX)
    Blend: AUG-CC-PVTZ-JKFIT

    Orbital Energies [Eh]
    ---------------------

    Doubly Occupied:

       1A   -104.850174     2A   -104.848222     3A    -11.319297
       4A    -11.316767     5A    -11.270371     6A    -11.261830
       7A    -11.261176     8A    -11.247436     9A    -11.242189
      10A    -10.573912    11A    -10.572055    12A     -8.040815
      13A     -8.038959    14A     -8.038889    15A     -8.038880
      16A     -8.037031    17A     -8.037026    18A     -1.212308
      19A     -1.160834    20A     -1.119806    21A     -1.044270
      22A     -0.997987    23A     -0.958184    24A     -0.830744
      25A     -0.808179    26A     -0.707706    27A     -0.681024
      28A     -0.627483    29A     -0.602072    30A     -0.597285
      31A     -0.588200    32A     -0.563733    33A     -0.555933
      34A     -0.535138    35A     -0.510802    36A     -0.503586
      37A     -0.465201    38A     -0.457419    39A     -0.452487
      40A     -0.355249    41A     -0.334321

  @DF-RHF Final Energy: -1187.68893402111007

   => Energetics <=

    Nuclear Repulsion Energy =            542.7547193333456335
    One-Electron Energy =               -2711.5573446583448458
    Two-Electron Energy =                 981.1136913038890270
    Total Energy =                      -1187.6889340211100716
  Basis Set: (AUG-CC-PVTZ AUX)
    Blend: AUG-CC-PVTZ-RI
    Molecular point group: c1

    Geometry (in Angstrom), charge = 0, multiplicity = 1:

       Center              X                  Y                   Z               Mass
    ------------   -----------------  -----------------  -----------------  -----------------
         CL           2.707676492045    -1.161232596103     0.005854680533    34.968852682000
         CL          -2.694001507955    -1.161215596103     0.005854680533    34.968852682000
         C           -0.084372807955     1.814047303897    -0.064977419467    12.000000000000
         C           -1.200389507955     1.101598403897    -0.005318319467    12.000000000000
         C            1.214079492045     1.101590403897    -0.005319319467    12.000000000000
         C            0.006860492045     3.315703403897     0.017288680533    12.000000000000
         C            1.199972492045    -0.292111596103     0.003908680533    12.000000000000
         C           -1.186291507955    -0.292105596103     0.003908680533    12.000000000000
         C            0.006837492045    -1.012575596103     0.010483680533    12.000000000000
         H           -2.150254507955     1.630308403897    -0.014013319467     1.007825032230
         H            2.163947492045     1.630295403897    -0.014015319467     1.007825032230
         H            0.007129492045     3.685229403897     1.048146680533     1.007825032230
         H            0.892342492045     3.717732403897    -0.482128319467     1.007825032230
         H           -0.878874507955     3.717740403897    -0.481673319467     1.007825032230
         H            0.006835492045    -2.097836596103     0.013974680533     1.007825032230

  Basis Set: AUG-CC-PVTZ
    Blend: AUG-CC-PVTZ
  Basis Set: (AUG-CC-PVTZ AUX)
    Blend: AUG-CC-PVTZ-JKFIT
	 Reference Energy          =   -1187.6889340211100716 [Eh]
	 Singles Energy            =      -0.0000000000000000 [Eh]
	 Same-Spin Energy          =      -0.4296997932132318 [Eh]
	 Opposite-Spin Energy      =      -1.3006200297348611 [Eh]
	 Correlation Energy        =      -1.7303198229480929 [Eh]
	 Total Energy              =   -1189.4192538440581757 [Eh]

	 ================> DF-SCS-MP2 Energies <==================
	-----------------------------------------------------------
	 SCS Same-Spin Scale       =       0.3333333333333333 [-]
	 SCS Opposite-Spin Scale   =       1.2000000000000000 [-]
	 SCS Same-Spin Energy      =      -0.1432332644044106 [Eh]
	 SCS Opposite-Spin Energy  =      -1.5607440356818334 [Eh]
	 SCS Correlation Energy    =      -1.7039773000862439 [Eh]
	 SCS Total Energy          =   -1189.3929113211963795 [Eh]
	-----------------------------------------------------------

  Dipole Moment: [D]
     X:    -0.0449      Y:     2.1233      Z:     0.0534     Total:     2.1244

*** Psi4 exiting successfully. Buy a developer a beer!
