                               Psi4 1.4a3.dev225

  ==> Input File <==

--------------------------------------------------------------------------
#psi4
#
memory 32 gb

molecule  {
0 1
 Cl        2.7008340    -1.2489210     0.0016850
 Cl       -2.7008440    -1.2489040     0.0016850
  C        0.0000030     1.7216440    -0.0170270
  C       -1.2072320     1.0139100    -0.0094880
  C        1.2072370     1.0139020    -0.0094890
  C        0.0000178     3.2080190     0.0127188
  C        1.1931300    -0.3798000    -0.0002610
  C       -1.1931340    -0.3797940    -0.0002610
  C       -0.0000050    -1.1002640     0.0063140
  H       -2.1570970     1.5426200    -0.0181830
  H        2.1571050     1.5426070    -0.0181850
  H        0.0002870     3.5975410     1.0439770
  H        0.8855000     3.6300440    -0.4862980
  H       -0.8857170     3.6300520    -0.4858430
  H       -0.0000070    -2.1855250     0.0098050
units angstrom
no_reorient  #important for SAPT in psi4, default
symmetry c1  #important for SAPT in psi4, default
}

set PROPERTIES_ORIGIN ["COM"]
properties('MP2/aug-cc-pvtz', properties = ['dipole'])
--------------------------------------------------------------------------

    Molecular point group: c1
  Charge       = 0
  Multiplicity = 1
  Basis Set: AUG-CC-PVTZ
    Blend: AUG-CC-PVTZ
  Basis Set: (AUG-CC-PVTZ AUX)
    Blend: AUG-CC-PVTZ-JKFIT

    Orbital Energies [Eh]
    ---------------------

    Doubly Occupied:

       1A   -104.849302     2A   -104.849302     3A    -11.318282
       4A    -11.318274     5A    -11.270299     6A    -11.260475
       7A    -11.254988     8A    -11.254932     9A    -11.242425
      10A    -10.573087    11A    -10.573086    12A     -8.039990
      13A     -8.039990    14A     -8.038063    15A     -8.038062
      16A     -8.038056    17A     -8.038056    18A     -1.212366
      19A     -1.160878    20A     -1.120060    21A     -1.044796
      22A     -0.998352    23A     -0.958369    24A     -0.823386
      25A     -0.815579    26A     -0.707573    27A     -0.682798
      28A     -0.628697    29A     -0.597638    30A     -0.595090
      31A     -0.594733    32A     -0.560254    33A     -0.554841
      34A     -0.528792    35A     -0.516373    36A     -0.510789
      37A     -0.466381    38A     -0.457842    39A     -0.451677
      40A     -0.345601    41A     -0.341969

  @DF-RHF Final Energy: -1187.69956471405521

   => Energetics <=

    Nuclear Repulsion Energy =            543.1964801324500058
    One-Electron Energy =               -2712.4490756654522556
    Two-Electron Energy =                 981.5530308189469224
    Total Energy =                      -1187.6995647140552137
  Basis Set: (AUG-CC-PVTZ AUX)
    Blend: AUG-CC-PVTZ-RI
    Molecular point group: c1

    Geometry (in Angstrom), charge = 0, multiplicity = 1:

       Center              X                  Y                   Z               Mass
    ------------   -----------------  -----------------  -----------------  -----------------
         CL           2.700834478377    -1.159379100848     0.001975315991    34.968852682000
         CL          -2.700843521623    -1.159362100848     0.001975315991    34.968852682000
         C            0.000003478377     1.811185899152    -0.016736684009    12.000000000000
         C           -1.207231521623     1.103451899152    -0.009197684009    12.000000000000
         C            1.207237478377     1.103443899152    -0.009198684009    12.000000000000
         C            0.000018278377     3.297560899152     0.013009115991    12.000000000000
         C            1.193130478377    -0.290258100848     0.000029315991    12.000000000000
         C           -1.193133521623    -0.290252100848     0.000029315991    12.000000000000
         C           -0.000004521623    -1.010722100848     0.006604315991    12.000000000000
         H           -2.157096521623     1.632161899152    -0.017892684009     1.007825032230
         H            2.157105478377     1.632148899152    -0.017894684009     1.007825032230
         H            0.000287478377     3.687082899152     1.044267315991     1.007825032230
         H            0.885500478377     3.719585899152    -0.486007684009     1.007825032230
         H           -0.885716521623     3.719593899152    -0.485552684009     1.007825032230
         H           -0.000006521623    -2.095983100848     0.010095315991     1.007825032230

  Basis Set: AUG-CC-PVTZ
    Blend: AUG-CC-PVTZ
  Basis Set: (AUG-CC-PVTZ AUX)
    Blend: AUG-CC-PVTZ-JKFIT
	 Reference Energy          =   -1187.6995647140552137 [Eh]
	 Singles Energy            =      -0.0000000000000000 [Eh]
	 Same-Spin Energy          =      -0.4300741459001620 [Eh]
	 Opposite-Spin Energy      =      -1.3002089626292490 [Eh]
	 Correlation Energy        =      -1.7302831085294110 [Eh]
	 Total Energy              =   -1189.4298478225846338 [Eh]

	 ================> DF-SCS-MP2 Energies <==================
	-----------------------------------------------------------
	 SCS Same-Spin Scale       =       0.3333333333333333 [-]
	 SCS Opposite-Spin Scale   =       1.2000000000000000 [-]
	 SCS Same-Spin Energy      =      -0.1433580486333873 [Eh]
	 SCS Opposite-Spin Energy  =      -1.5602507551550988 [Eh]
	 SCS Correlation Energy    =      -1.7036088037884862 [Eh]
	 SCS Total Energy          =   -1189.4031735178436975 [Eh]
	-----------------------------------------------------------

  Dipole Moment: [D]
     X:     0.0000      Y:     2.1396      Z:     0.0364     Total:     2.1399

*** Psi4 exiting successfully. Buy a developer a beer!
