                               Psi4 1.4a3.dev225

  ==> Input File <==

--------------------------------------------------------------------------
#psi4
#
memory 32 gb

molecule  {
0 1
 Cl        2.7008340    -1.2489210     0.0016850
 Cl       -2.7008440    -1.2489040     0.0016850
  C        0.0000030     1.7216440    -0.0170270
  C       -1.2072320     1.0139100    -0.0094880
  C        1.2072370     1.0139020    -0.0094890
  C        0.0000180     3.2280150     0.0131190
  C        1.2619060    -0.5084582     0.0009131
  C       -1.1931340    -0.3797940    -0.0002610
  C       -0.0000050    -1.1002640     0.0063140
  H       -2.1570970     1.5426200    -0.0181830
  H        2.1571050     1.5426070    -0.0181850
  H        0.0002870     3.5975410     1.0439770
  H        0.8855000     3.6300440    -0.4862980
  H       -0.8857170     3.6300520    -0.4858430
  H       -0.0000070    -2.1855250     0.0098050
units angstrom
no_reorient  #important for SAPT in psi4, default
symmetry c1  #important for SAPT in psi4, default
}

set PROPERTIES_ORIGIN ["COM"]
properties('MP2/aug-cc-pvtz', properties = ['dipole'])
--------------------------------------------------------------------------

    Molecular point group: c1
  Charge       = 0
  Multiplicity = 1
  Basis Set: AUG-CC-PVTZ
    Blend: AUG-CC-PVTZ
  Basis Set: (AUG-CC-PVTZ AUX)
    Blend: AUG-CC-PVTZ-JKFIT

    Orbital Energies [Eh]
    ---------------------

    Doubly Occupied:

       1A   -104.862022     2A   -104.847353     3A    -11.321807
       4A    -11.315038     5A    -11.266136     6A    -11.261123
       7A    -11.256991     8A    -11.252750     9A    -11.238975
      10A    -10.588075    11A    -10.571054    12A     -8.055338
      13A     -8.052920    14A     -8.052868    15A     -8.037962
      16A     -8.036031    17A     -8.036027    18A     -1.219087
      19A     -1.177833    20A     -1.116820    21A     -1.041355
      22A     -0.984163    23A     -0.948851    24A     -0.827203
      25A     -0.804183    26A     -0.697685    27A     -0.675462
      28A     -0.648894    29A     -0.596284    30A     -0.593897
      31A     -0.579742    32A     -0.561753    33A     -0.559964
      34A     -0.529576    35A     -0.520261    36A     -0.519964
      37A     -0.461361    38A     -0.455624    39A     -0.448114
      40A     -0.345618    41A     -0.323626

  @DF-RHF Final Energy: -1187.67518002952784

   => Energetics <=

    Nuclear Repulsion Energy =            542.5944171410169474
    One-Electron Energy =               -2711.1596189145657263
    Two-Electron Energy =                 980.8900217440208280
    Total Energy =                      -1187.6751800295278372
  Basis Set: (AUG-CC-PVTZ AUX)
    Blend: AUG-CC-PVTZ-RI
    Molecular point group: c1

    Geometry (in Angstrom), charge = 0, multiplicity = 1:

       Center              X                  Y                   Z               Mass
    ------------   -----------------  -----------------  -----------------  -----------------
         CL           2.695675768642    -1.151228654198     0.001857232166    34.968852682000
         CL          -2.706002231358    -1.151211654198     0.001857232166    34.968852682000
         C           -0.005155231358     1.819336345802    -0.016854767834    12.000000000000
         C           -1.212390231358     1.111602345802    -0.009315767834    12.000000000000
         C            1.202078768642     1.111594345802    -0.009316767834    12.000000000000
         C           -0.005140231358     3.325707345802     0.013291232166    12.000000000000
         C            1.256747768642    -0.410765854198     0.001085332166    12.000000000000
         C           -1.198292231358    -0.282101654198    -0.000088767834    12.000000000000
         C           -0.005163231358    -1.002571654198     0.006486232166    12.000000000000
         H           -2.162255231358     1.640312345802    -0.018010767834     1.007825032230
         H            2.151946768642     1.640299345802    -0.018012767834     1.007825032230
         H           -0.004871231358     3.695233345802     1.044149232166     1.007825032230
         H            0.880341768642     3.727736345802    -0.486125767834     1.007825032230
         H           -0.890875231358     3.727744345802    -0.485670767834     1.007825032230
         H           -0.005165231358    -2.087832654198     0.009977232166     1.007825032230

  Basis Set: AUG-CC-PVTZ
    Blend: AUG-CC-PVTZ
  Basis Set: (AUG-CC-PVTZ AUX)
    Blend: AUG-CC-PVTZ-JKFIT
	 Reference Energy          =   -1187.6751800295278372 [Eh]
	 Singles Energy            =      -0.0000000000000000 [Eh]
	 Same-Spin Energy          =      -0.4315284455442133 [Eh]
	 Opposite-Spin Energy      =      -1.3031578368644343 [Eh]
	 Correlation Energy        =      -1.7346862824086475 [Eh]
	 Total Energy              =   -1189.4098663119364119 [Eh]

	 ================> DF-SCS-MP2 Energies <==================
	-----------------------------------------------------------
	 SCS Same-Spin Scale       =       0.3333333333333333 [-]
	 SCS Opposite-Spin Scale   =       1.2000000000000000 [-]
	 SCS Same-Spin Energy      =      -0.1438428151814044 [Eh]
	 SCS Opposite-Spin Energy  =      -1.5637894042373210 [Eh]
	 SCS Correlation Energy    =      -1.7076322194187254 [Eh]
	 SCS Total Energy          =   -1189.3828122489464931 [Eh]
	-----------------------------------------------------------

  Dipole Moment: [D]
     X:     0.5650      Y:     1.7783      Z:     0.0352     Total:     1.8662

*** Psi4 exiting successfully. Buy a developer a beer!
