                               Psi4 1.4a3.dev225

  ==> Input File <==

--------------------------------------------------------------------------
#psi4
#
memory 32 gb

molecule  {
0 1
 Cl        2.7008340    -1.2489210     0.0016850
 Cl       -2.7008440    -1.2489040     0.0016850
  C        0.0000030     1.7216440    -0.0170270
  C       -1.2072320     1.0139100    -0.0094880
  C        1.2072370     1.0139020    -0.0094890
  C        0.0000180     3.2280150     0.0131190
  C        1.1921179    -0.4797927     0.0004011
  C       -1.1931340    -0.3797940    -0.0002610
  C       -0.0000050    -1.1002640     0.0063140
  H       -2.1570970     1.5426200    -0.0181830
  H        2.1571050     1.5426070    -0.0181850
  H        0.0002870     3.5975410     1.0439770
  H        0.8855000     3.6300440    -0.4862980
  H       -0.8857170     3.6300520    -0.4858430
  H       -0.0000070    -2.1855250     0.0098050
units angstrom
no_reorient  #important for SAPT in psi4, default
symmetry c1  #important for SAPT in psi4, default
}

set PROPERTIES_ORIGIN ["COM"]
properties('MP2/aug-cc-pvtz', properties = ['dipole'])
--------------------------------------------------------------------------

    Molecular point group: c1
  Charge       = 0
  Multiplicity = 1
  Basis Set: AUG-CC-PVTZ
    Blend: AUG-CC-PVTZ
  Basis Set: (AUG-CC-PVTZ AUX)
    Blend: AUG-CC-PVTZ-JKFIT

    Orbital Energies [Eh]
    ---------------------

    Doubly Occupied:

       1A   -104.854506     2A   -104.848975     3A    -11.318140
       4A    -11.317356     5A    -11.267987     6A    -11.261035
       7A    -11.254810     8A    -11.253988     9A    -11.240229
      10A    -10.578979    11A    -10.572700    12A     -8.046004
      13A     -8.043916    14A     -8.043894    15A     -8.039604
      16A     -8.037676    17A     -8.037674    18A     -1.212633
      19A     -1.167275    20A     -1.117813    21A     -1.049415
      22A     -0.988127    23A     -0.953989    24A     -0.830989
      25A     -0.805710    26A     -0.703916    27A     -0.678800
      28A     -0.634840    29A     -0.598318    30A     -0.595473
      31A     -0.584551    32A     -0.564011    33A     -0.557780
      34A     -0.524042    35A     -0.519962    36A     -0.514130
      37A     -0.462980    38A     -0.458870    39A     -0.450564
      40A     -0.352879    41A     -0.329549

  @DF-RHF Final Energy: -1187.68874651597616

   => Energetics <=

    Nuclear Repulsion Energy =            542.7689855853934660
    One-Electron Energy =               -2711.5672830911844358
    Two-Electron Energy =                 981.1095509898149203
    Total Energy =                      -1187.6887465159761632
  Basis Set: (AUG-CC-PVTZ AUX)
    Blend: AUG-CC-PVTZ-RI
    Molecular point group: c1

    Geometry (in Angstrom), charge = 0, multiplicity = 1:

       Center              X                  Y                   Z               Mass
    ------------   -----------------  -----------------  -----------------  -----------------
         CL           2.700910378156    -1.153378772900     0.001895635849    34.968852682000
         CL          -2.700767621844    -1.153361772900     0.001895635849    34.968852682000
         C            0.000079378156     1.817186227100    -0.016816364151    12.000000000000
         C           -1.207155621844     1.109452227100    -0.009277364151    12.000000000000
         C            1.207313378156     1.109444227100    -0.009278364151    12.000000000000
         C            0.000094378156     3.323557227100     0.013329635849    12.000000000000
         C            1.192194278156    -0.384250472900     0.000611735849    12.000000000000
         C           -1.193057621844    -0.284251772900    -0.000050364151    12.000000000000
         C            0.000071378156    -1.004721772900     0.006524635849    12.000000000000
         H           -2.157020621844     1.638162227100    -0.017972364151     1.007825032230
         H            2.157181378156     1.638149227100    -0.017974364151     1.007825032230
         H            0.000363378156     3.693083227100     1.044187635849     1.007825032230
         H            0.885576378156     3.725586227100    -0.486087364151     1.007825032230
         H           -0.885640621844     3.725594227100    -0.485632364151     1.007825032230
         H            0.000069378156    -2.089982772900     0.010015635849     1.007825032230

  Basis Set: AUG-CC-PVTZ
    Blend: AUG-CC-PVTZ
  Basis Set: (AUG-CC-PVTZ AUX)
    Blend: AUG-CC-PVTZ-JKFIT
	 Reference Energy          =   -1187.6887465159761632 [Eh]
	 Singles Energy            =      -0.0000000000000000 [Eh]
	 Same-Spin Energy          =      -0.4300812467141261 [Eh]
	 Opposite-Spin Energy      =      -1.3011364315874896 [Eh]
	 Correlation Energy        =      -1.7312176783016158 [Eh]
	 Total Energy              =   -1189.4199641942777816 [Eh]

	 ================> DF-SCS-MP2 Energies <==================
	-----------------------------------------------------------
	 SCS Same-Spin Scale       =       0.3333333333333333 [-]
	 SCS Opposite-Spin Scale   =       1.2000000000000000 [-]
	 SCS Same-Spin Energy      =      -0.1433604155713754 [Eh]
	 SCS Opposite-Spin Energy  =      -1.5613637179049875 [Eh]
	 SCS Correlation Energy    =      -1.7047241334763628 [Eh]
	 SCS Total Energy          =   -1189.3934706494526381 [Eh]
	-----------------------------------------------------------

  Dipole Moment: [D]
     X:     0.2030      Y:     1.9679      Z:     0.0358     Total:     1.9786

*** Psi4 exiting successfully. Buy a developer a beer!
