                               Psi4 1.4a3.dev225

  ==> Input File <==

--------------------------------------------------------------------------
#psi4
#
memory 32 gb

molecule  {
0 1
 Cl        2.7008340    -1.2489210     0.0016850
 Cl       -2.7008440    -1.2489040     0.0016850
  C        0.0673718     1.5915895    -0.0151632
  C       -1.2072320     1.0139100    -0.0094880
  C        1.2072370     1.0139020    -0.0094890
  C        0.0000180     3.2280150     0.0131190
  C        1.1931300    -0.3798000    -0.0002610
  C       -1.1931340    -0.3797940    -0.0002610
  C       -0.0000050    -1.1002640     0.0063140
  H       -2.1570970     1.5426200    -0.0181830
  H        2.1571050     1.5426070    -0.0181850
  H        0.0002870     3.5975410     1.0439770
  H        0.8855000     3.6300440    -0.4862980
  H       -0.8857170     3.6300520    -0.4858430
  H       -0.0000070    -2.1855250     0.0098050
units angstrom
no_reorient  #important for SAPT in psi4, default
symmetry c1  #important for SAPT in psi4, default
}

set PROPERTIES_ORIGIN ["COM"]
properties('MP2/aug-cc-pvtz', properties = ['dipole'])
--------------------------------------------------------------------------

    Molecular point group: c1
  Charge       = 0
  Multiplicity = 1
  Basis Set: AUG-CC-PVTZ
    Blend: AUG-CC-PVTZ
  Basis Set: (AUG-CC-PVTZ AUX)
    Blend: AUG-CC-PVTZ-JKFIT

    Orbital Energies [Eh]
    ---------------------

    Doubly Occupied:

       1A   -104.850251     2A   -104.848708     3A    -11.320580
       4A    -11.318655     5A    -11.262047     6A    -11.260174
       7A    -11.256401     8A    -11.243000     9A    -11.242602
      10A    -10.574086    11A    -10.572615    12A     -8.040980
      13A     -8.039511    14A     -8.039075    15A     -8.039054
      16A     -8.037603    17A     -8.037586    18A     -1.221280
      19A     -1.162500    20A     -1.124306    21A     -1.037248
      22A     -1.008186    23A     -0.947348    24A     -0.832128
      25A     -0.812951    26A     -0.715115    27A     -0.686112
      28A     -0.621097    29A     -0.610550    30A     -0.592029
      31A     -0.589040    32A     -0.557567    33A     -0.556265
      34A     -0.534609    35A     -0.511506    36A     -0.493489
      37A     -0.461157    38A     -0.458911    39A     -0.455497
      40A     -0.360612    41A     -0.340758

  @DF-RHF Final Energy: -1187.67560774455296

   => Energetics <=

    Nuclear Repulsion Energy =            544.6673629169341666
    One-Electron Energy =               -2715.3395591424759914
    Two-Electron Energy =                 982.9965884809889758
    Total Energy =                      -1187.6756077445529627
  Basis Set: (AUG-CC-PVTZ AUX)
    Blend: AUG-CC-PVTZ-RI
    Molecular point group: c1

    Geometry (in Angstrom), charge = 0, multiplicity = 1:

       Center              X                  Y                   Z               Mass
    ------------   -----------------  -----------------  -----------------  -----------------
         CL           2.695781318765    -1.151123921653     0.001805499705    34.968852682000
         CL          -2.705896681235    -1.151106921653     0.001805499705    34.968852682000
         C            0.062319118765     1.689386578347    -0.015042700295    12.000000000000
         C           -1.212284681235     1.111707078347    -0.009367500295    12.000000000000
         C            1.202184318765     1.111699078347    -0.009368500295    12.000000000000
         C           -0.005034681235     3.325812078347     0.013239499705    12.000000000000
         C            1.188077318765    -0.282002921653    -0.000140500295    12.000000000000
         C           -1.198186681235    -0.281996921653    -0.000140500295    12.000000000000
         C           -0.005057681235    -1.002466921653     0.006434499705    12.000000000000
         H           -2.162149681235     1.640417078347    -0.018062500295     1.007825032230
         H            2.152052318765     1.640404078347    -0.018064500295     1.007825032230
         H           -0.004765681235     3.695338078347     1.044097499705     1.007825032230
         H            0.880447318765     3.727841078347    -0.486177500295     1.007825032230
         H           -0.890769681235     3.727849078347    -0.485722500295     1.007825032230
         H           -0.005059681235    -2.087727921653     0.009925499705     1.007825032230

  Basis Set: AUG-CC-PVTZ
    Blend: AUG-CC-PVTZ
  Basis Set: (AUG-CC-PVTZ AUX)
    Blend: AUG-CC-PVTZ-JKFIT
	 Reference Energy          =   -1187.6756077445529627 [Eh]
	 Singles Energy            =      -0.0000000000000000 [Eh]
	 Same-Spin Energy          =      -0.4295656595855866 [Eh]
	 Opposite-Spin Energy      =      -1.3000753876341873 [Eh]
	 Correlation Energy        =      -1.7296410472197739 [Eh]
	 Total Energy              =   -1189.4052487917726921 [Eh]

	 ================> DF-SCS-MP2 Energies <==================
	-----------------------------------------------------------
	 SCS Same-Spin Scale       =       0.3333333333333333 [-]
	 SCS Opposite-Spin Scale   =       1.2000000000000000 [-]
	 SCS Same-Spin Energy      =      -0.1431885531951955 [Eh]
	 SCS Opposite-Spin Energy  =      -1.5600904651610248 [Eh]
	 SCS Correlation Energy    =      -1.7032790183562203 [Eh]
	 SCS Total Energy          =   -1189.3788867629091328 [Eh]
	-----------------------------------------------------------

  Dipole Moment: [D]
     X:     0.0317      Y:     1.9257      Z:     0.0230     Total:     1.9261

*** Psi4 exiting successfully. Buy a developer a beer!
