                               Psi4 1.4a3.dev225

  ==> Input File <==

--------------------------------------------------------------------------
#psi4
#
memory 32 gb

molecule  {
0 1
 Cl        2.7008340    -1.2489210     0.0016850
 Cl       -2.7008440    -1.2489040     0.0016850
  C        0.0000030     1.7216440    -0.0170270
  C       -1.2072320     1.0139100    -0.0094880
  C        1.1829109     1.0139362    -0.0094522
  C        0.0000180     3.2280150     0.0131190
  C        1.1931300    -0.3798000    -0.0002610
  C       -1.1931340    -0.3797940    -0.0002610
  C       -0.0000050    -1.1002640     0.0063140
  H       -2.1570970     1.5426200    -0.0181830
  H        2.1571050     1.5426070    -0.0181850
  H        0.0002870     3.5975410     1.0439770
  H        0.8855000     3.6300440    -0.4862980
  H       -0.8857170     3.6300520    -0.4858430
  H       -0.0000070    -2.1855250     0.0098050
units angstrom
no_reorient  #important for SAPT in psi4, default
symmetry c1  #important for SAPT in psi4, default
}

set PROPERTIES_ORIGIN ["COM"]
properties('MP2/aug-cc-pvtz', properties = ['dipole'])
--------------------------------------------------------------------------

    Molecular point group: c1
  Charge       = 0
  Multiplicity = 1
  Basis Set: AUG-CC-PVTZ
    Blend: AUG-CC-PVTZ
  Basis Set: (AUG-CC-PVTZ AUX)
    Blend: AUG-CC-PVTZ-JKFIT

    Orbital Energies [Eh]
    ---------------------

    Doubly Occupied:

       1A   -104.850418     2A   -104.848912     3A    -11.317900
       4A    -11.317510     5A    -11.268332     6A    -11.260495
       7A    -11.254994     8A    -11.254366     9A    -11.241813
      10A    -10.574114    11A    -10.572697    12A     -8.041019
      13A     -8.039602    14A     -8.039089    15A     -8.039082
      16A     -8.037673    17A     -8.037669    18A     -1.213015
      19A     -1.160644    20A     -1.120691    21A     -1.044084
      22A     -0.997843    23A     -0.958890    24A     -0.823759
      25A     -0.816610    26A     -0.705319    27A     -0.683291
      28A     -0.626254    29A     -0.598748    30A     -0.594460
      31A     -0.592034    32A     -0.562224    33A     -0.556189
      34A     -0.526204    35A     -0.516754    36A     -0.510826
      37A     -0.466499    38A     -0.458013    39A     -0.453333
      40A     -0.347650    41A     -0.341474

  @DF-RHF Final Energy: -1187.69960652226041

   => Energetics <=

    Nuclear Repulsion Energy =            543.1589209652319141
    One-Electron Energy =               -2712.3760714916825236
    Two-Electron Energy =                 981.5175440041901993
    Total Energy =                      -1187.6996065222601828
  Basis Set: (AUG-CC-PVTZ AUX)
    Blend: AUG-CC-PVTZ-RI
    Molecular point group: c1

    Geometry (in Angstrom), charge = 0, multiplicity = 1:

       Center              X                  Y                   Z               Mass
    ------------   -----------------  -----------------  -----------------  -----------------
         CL           2.702659095863    -1.160881509933     0.001942537847    34.968852682000
         CL          -2.699018904137    -1.160864509933     0.001942537847    34.968852682000
         C            0.001828095863     1.809683490067    -0.016769462153    12.000000000000
         C           -1.205406904137     1.101949490067    -0.009230462153    12.000000000000
         C            1.184735995863     1.101975690067    -0.009194662153    12.000000000000
         C            0.001843095863     3.316054490067     0.013376537847    12.000000000000
         C            1.194955095863    -0.291760509933    -0.000003462153    12.000000000000
         C           -1.191308904137    -0.291754509933    -0.000003462153    12.000000000000
         C            0.001820095863    -1.012224509933     0.006571537847    12.000000000000
         H           -2.155271904137     1.630659490067    -0.017925462153     1.007825032230
         H            2.158930095863     1.630646490067    -0.017927462153     1.007825032230
         H            0.002112095863     3.685580490067     1.044234537847     1.007825032230
         H            0.887325095863     3.718083490067    -0.486040462153     1.007825032230
         H           -0.883891904137     3.718091490067    -0.485585462153     1.007825032230
         H            0.001818095863    -2.097485509933     0.010062537847     1.007825032230

  Basis Set: AUG-CC-PVTZ
    Blend: AUG-CC-PVTZ
  Basis Set: (AUG-CC-PVTZ AUX)
    Blend: AUG-CC-PVTZ-JKFIT
	 Reference Energy          =   -1187.6996065222604102 [Eh]
	 Singles Energy            =      -0.0000000000000000 [Eh]
	 Same-Spin Energy          =      -0.4299238990182905 [Eh]
	 Opposite-Spin Energy      =      -1.3000370598533821 [Eh]
	 Correlation Energy        =      -1.7299609588716727 [Eh]
	 Total Energy              =   -1189.4295674811321533 [Eh]

	 ================> DF-SCS-MP2 Energies <==================
	-----------------------------------------------------------
	 SCS Same-Spin Scale       =       0.3333333333333333 [-]
	 SCS Opposite-Spin Scale   =       1.2000000000000000 [-]
	 SCS Same-Spin Energy      =      -0.1433079663394302 [Eh]
	 SCS Opposite-Spin Energy  =      -1.5600444718240585 [Eh]
	 SCS Correlation Energy    =      -1.7033524381634886 [Eh]
	 SCS Total Energy          =   -1189.4029589604238026 [Eh]
	-----------------------------------------------------------

  Dipole Moment: [D]
     X:     0.0208      Y:     2.1159      Z:     0.0351     Total:     2.1163

*** Psi4 exiting successfully. Buy a developer a beer!
