                               Psi4 1.4a3.dev225

  ==> Input File <==

--------------------------------------------------------------------------
#psi4
#
memory 32 gb

molecule  {
0 1
 Cl        2.7008340    -1.2489210     0.0016850
 Cl       -2.7008440    -1.2489040     0.0016850
  C        0.0000030     1.7216440    -0.0170270
  C       -1.2072320     1.0139100    -0.0094880
  C        1.2072370     1.0139020    -0.0094890
  C        0.0000180     3.2280150     0.0131190
  C        1.1936361    -0.3298037    -0.0005920
  C       -1.1931340    -0.3797940    -0.0002610
  C       -0.0000050    -1.1002640     0.0063140
  H       -2.1570970     1.5426200    -0.0181830
  H        2.1571050     1.5426070    -0.0181850
  H        0.0002870     3.5975410     1.0439770
  H        0.8855000     3.6300440    -0.4862980
  H       -0.8857170     3.6300520    -0.4858430
  H       -0.0000070    -2.1855250     0.0098050
units angstrom
no_reorient  #important for SAPT in psi4, default
symmetry c1  #important for SAPT in psi4, default
}

set PROPERTIES_ORIGIN ["COM"]
properties('MP2/aug-cc-pvtz', properties = ['dipole'])
--------------------------------------------------------------------------

    Molecular point group: c1
  Charge       = 0
  Multiplicity = 1
  Basis Set: AUG-CC-PVTZ
    Blend: AUG-CC-PVTZ
  Basis Set: (AUG-CC-PVTZ AUX)
    Blend: AUG-CC-PVTZ-JKFIT

    Orbital Energies [Eh]
    ---------------------

    Doubly Occupied:

       1A   -104.849348     2A   -104.846357     3A    -11.318599
       4A    -11.317540     5A    -11.272780     6A    -11.263592
       7A    -11.255165     8A    -11.250934     9A    -11.242734
      10A    -10.573162    11A    -10.569833    12A     -8.040064
      13A     -8.038138    14A     -8.038130    15A     -8.036676
      16A     -8.034824    17A     -8.034823    18A     -1.213005
      19A     -1.158746    20A     -1.117790    21A     -1.041112
      22A     -1.005773    23A     -0.959444    24A     -0.821709
      25A     -0.818124    26A     -0.709509    27A     -0.683896
      28A     -0.624050    29A     -0.600493    30A     -0.598750
      31A     -0.591947    32A     -0.563291    33A     -0.555772
      34A     -0.528598    35A     -0.512663    36A     -0.509433
      37A     -0.466291    38A     -0.456145    39A     -0.452709
      40A     -0.349376    41A     -0.342601

  @DF-RHF Final Energy: -1187.69794283670217

   => Energetics <=

    Nuclear Repulsion Energy =            542.8935967651505052
    One-Electron Energy =               -2711.8552338889985549
    Two-Electron Energy =                 981.2636942871458814
    Total Energy =                      -1187.6979428367021683
  Basis Set: (AUG-CC-PVTZ AUX)
    Blend: AUG-CC-PVTZ-RI
    Molecular point group: c1

    Geometry (in Angstrom), charge = 0, multiplicity = 1:

       Center              X                  Y                   Z               Mass
    ------------   -----------------  -----------------  -----------------  -----------------
         CL           2.700796502235    -1.164629026830     0.001970125493    34.968852682000
         CL          -2.700881497765    -1.164612026830     0.001970125493    34.968852682000
         C           -0.000034497765     1.805935973170    -0.016741874507    12.000000000000
         C           -1.207269497765     1.098201973170    -0.009202874507    12.000000000000
         C            1.207199502235     1.098193973170    -0.009203874507    12.000000000000
         C           -0.000019497765     3.312306973170     0.013404125493    12.000000000000
         C            1.193598602235    -0.245511726830    -0.000306874507    12.000000000000
         C           -1.193171497765    -0.295502026830     0.000024125493    12.000000000000
         C           -0.000042497765    -1.015972026830     0.006599125493    12.000000000000
         H           -2.157134497765     1.626911973170    -0.017897874507     1.007825032230
         H            2.157067502235     1.626898973170    -0.017899874507     1.007825032230
         H            0.000249502235     3.681832973170     1.044262125493     1.007825032230
         H            0.885462502235     3.714335973170    -0.486012874507     1.007825032230
         H           -0.885754497765     3.714343973170    -0.485557874507     1.007825032230
         H           -0.000044497765    -2.101233026830     0.010090125493     1.007825032230

  Basis Set: AUG-CC-PVTZ
    Blend: AUG-CC-PVTZ
  Basis Set: (AUG-CC-PVTZ AUX)
    Blend: AUG-CC-PVTZ-JKFIT
	 Reference Energy          =   -1187.6979428367021683 [Eh]
	 Singles Energy            =      -0.0000000000000000 [Eh]
	 Same-Spin Energy          =      -0.4296035627183283 [Eh]
	 Opposite-Spin Energy      =      -1.2998001964385995 [Eh]
	 Correlation Energy        =      -1.7294037591569278 [Eh]
	 Total Energy              =   -1189.4273465958590350 [Eh]

	 ================> DF-SCS-MP2 Energies <==================
	-----------------------------------------------------------
	 SCS Same-Spin Scale       =       0.3333333333333333 [-]
	 SCS Opposite-Spin Scale   =       1.2000000000000000 [-]
	 SCS Same-Spin Energy      =      -0.1432011875727761 [Eh]
	 SCS Opposite-Spin Energy  =      -1.5597602357263194 [Eh]
	 SCS Correlation Energy    =      -1.7029614232990955 [Eh]
	 SCS Total Energy          =   -1189.4009042600011981 [Eh]
	-----------------------------------------------------------

  Dipole Moment: [D]
     X:    -0.1027      Y:     2.2308      Z:     0.0352     Total:     2.2335

*** Psi4 exiting successfully. Buy a developer a beer!
