                               Psi4 1.4a3.dev225

  ==> Input File <==

--------------------------------------------------------------------------
#psi4
#
memory 32 gb

molecule  {
0 1
 Cl        2.7008340    -1.2489210     0.0016850
 Cl       -2.7008440    -1.2489040     0.0016850
  C        0.0000030     1.7216440    -0.0170270
  C       -1.2072320     1.0139100    -0.0094880
  C        1.2072370     1.0139020    -0.0094890
  C        0.0000180     3.2280150     0.0131190
  C        1.1931300    -0.3798000    -0.0002610
  C       -1.1931340    -0.3797940    -0.0002610
  C        0.0427965    -1.0744187     0.0060781
  H       -2.1570970     1.5426200    -0.0181830
  H        2.1571050     1.5426070    -0.0181850
  H        0.0002870     3.5975410     1.0439770
  H        0.8855000     3.6300440    -0.4862980
  H       -0.8857170     3.6300520    -0.4858430
  H       -0.0000070    -2.1855250     0.0098050
units angstrom
no_reorient  #important for SAPT in psi4, default
symmetry c1  #important for SAPT in psi4, default
}

set PROPERTIES_ORIGIN ["COM"]
properties('MP2/aug-cc-pvtz', properties = ['dipole'])
--------------------------------------------------------------------------

    Molecular point group: c1
  Charge       = 0
  Multiplicity = 1
  Basis Set: AUG-CC-PVTZ
    Blend: AUG-CC-PVTZ
  Basis Set: (AUG-CC-PVTZ AUX)
    Blend: AUG-CC-PVTZ-JKFIT

    Orbital Energies [Eh]
    ---------------------

    Doubly Occupied:

       1A   -104.851867     2A   -104.847892     3A    -11.320235
       4A    -11.311994     5A    -11.270271     6A    -11.259284
       7A    -11.255353     8A    -11.254324     9A    -11.241498
      10A    -10.575461    11A    -10.571758    12A     -8.042366
      13A     -8.040437    14A     -8.040427    15A     -8.038663
      16A     -8.036726    17A     -8.036725    18A     -1.214289
      19A     -1.161444    20A     -1.118528    21A     -1.045960
      22A     -0.998660    23A     -0.957998    24A     -0.826623
      25A     -0.813895    26A     -0.704546    27A     -0.683817
      28A     -0.626651    29A     -0.598115    30A     -0.596390
      31A     -0.588203    32A     -0.563546    33A     -0.557558
      34A     -0.524484    35A     -0.516491    36A     -0.511262
      37A     -0.466088    38A     -0.458747    39A     -0.452741
      40A     -0.350088    41A     -0.339725

  @DF-RHF Final Energy: -1187.69719848740851

   => Energetics <=

    Nuclear Repulsion Energy =            543.2756035398554104
    One-Electron Energy =               -2712.6033407805175557
    Two-Electron Energy =                 981.6305387532534041
    Total Energy =                      -1187.6971984874085138
  Basis Set: (AUG-CC-PVTZ AUX)
    Blend: AUG-CC-PVTZ-RI
    Molecular point group: c1

    Geometry (in Angstrom), charge = 0, multiplicity = 1:

       Center              X                  Y                   Z               Mass
    ------------   -----------------  -----------------  -----------------  -----------------
         CL           2.697624042987    -1.162817528103     0.001962992309    34.968852682000
         CL          -2.704053957013    -1.162800528103     0.001962992309    34.968852682000
         C           -0.003206957013     1.807747471897    -0.016749007691    12.000000000000
         C           -1.210441957013     1.100013471897    -0.009210007691    12.000000000000
         C            1.204027042987     1.100005471897    -0.009211007691    12.000000000000
         C           -0.003191957013     3.314118471897     0.013396992309    12.000000000000
         C            1.189920042987    -0.293696528103     0.000016992309    12.000000000000
         C           -1.196343957013    -0.293690528103     0.000016992309    12.000000000000
         C            0.039586542987    -0.988315228103     0.006356092309    12.000000000000
         H           -2.160306957013     1.628723471897    -0.017905007691     1.007825032230
         H            2.153895042987     1.628710471897    -0.017907007691     1.007825032230
         H           -0.002922957013     3.683644471897     1.044254992309     1.007825032230
         H            0.882290042987     3.716147471897    -0.486020007691     1.007825032230
         H           -0.888926957013     3.716155471897    -0.485565007691     1.007825032230
         H           -0.003216957013    -2.099421528103     0.010082992309     1.007825032230

  Basis Set: AUG-CC-PVTZ
    Blend: AUG-CC-PVTZ
  Basis Set: (AUG-CC-PVTZ AUX)
    Blend: AUG-CC-PVTZ-JKFIT
	 Reference Energy          =   -1187.6971984874085138 [Eh]
	 Singles Energy            =      -0.0000000000000000 [Eh]
	 Same-Spin Energy          =      -0.4298594645464759 [Eh]
	 Opposite-Spin Energy      =      -1.3000369381670001 [Eh]
	 Correlation Energy        =      -1.7298964027134760 [Eh]
	 Total Energy              =   -1189.4270948901219072 [Eh]

	 ================> DF-SCS-MP2 Energies <==================
	-----------------------------------------------------------
	 SCS Same-Spin Scale       =       0.3333333333333333 [-]
	 SCS Opposite-Spin Scale   =       1.2000000000000000 [-]
	 SCS Same-Spin Energy      =      -0.1432864881821586 [Eh]
	 SCS Opposite-Spin Energy  =      -1.5600443258004000 [Eh]
	 SCS Correlation Energy    =      -1.7033308139825587 [Eh]
	 SCS Total Energy          =   -1189.4005293013910887 [Eh]
	-----------------------------------------------------------

  Dipole Moment: [D]
     X:    -0.0977      Y:     2.1228      Z:     0.0355     Total:     2.1253

*** Psi4 exiting successfully. Buy a developer a beer!
