                               Psi4 1.4a3.dev225

  ==> Input File <==

--------------------------------------------------------------------------
#psi4
#
memory 32 gb

molecule  {
0 1
 Cl        2.7008340    -1.2489210     0.0016850
 Cl       -2.7008440    -1.2489040     0.0016850
  C        0.0912214     1.7242680     0.0352400
  C       -1.2072320     1.0139100    -0.0094880
  C        1.2072370     1.0139020    -0.0094890
  C        0.0000180     3.2280150     0.0131190
  C        1.1931300    -0.3798000    -0.0002610
  C       -1.1931340    -0.3797940    -0.0002610
  C       -0.0000050    -1.1002640     0.0063140
  H       -2.1570970     1.5426200    -0.0181830
  H        2.1571050     1.5426070    -0.0181850
  H        0.0002870     3.5975410     1.0439770
  H        0.8855000     3.6300440    -0.4862980
  H       -0.8857170     3.6300520    -0.4858430
  H       -0.0000070    -2.1855250     0.0098050
units angstrom
no_reorient  #important for SAPT in psi4, default
symmetry c1  #important for SAPT in psi4, default
}

set PROPERTIES_ORIGIN ["COM"]
properties('MP2/aug-cc-pvtz', properties = ['dipole'])
--------------------------------------------------------------------------

    Molecular point group: c1
  Charge       = 0
  Multiplicity = 1
  Basis Set: AUG-CC-PVTZ
    Blend: AUG-CC-PVTZ
  Basis Set: (AUG-CC-PVTZ AUX)
    Blend: AUG-CC-PVTZ-JKFIT

    Orbital Energies [Eh]
    ---------------------

    Doubly Occupied:

       1A   -104.850073     2A   -104.848138     3A    -11.319210
       4A    -11.316689     5A    -11.270436     6A    -11.261534
       7A    -11.260568     8A    -11.246847     9A    -11.242330
      10A    -10.573809    11A    -10.571970    12A     -8.040711
      13A     -8.038873    14A     -8.038787    15A     -8.038777
      16A     -8.036947    17A     -8.036940    18A     -1.212320
      19A     -1.160721    20A     -1.120056    21A     -1.044170
      22A     -0.998084    23A     -0.958338    24A     -0.830684
      25A     -0.808127    26A     -0.707588    27A     -0.680928
      28A     -0.627779    29A     -0.601234    30A     -0.598399
      31A     -0.588420    32A     -0.563903    33A     -0.556192
      34A     -0.534873    35A     -0.510754    36A     -0.504027
      37A     -0.464995    38A     -0.457317    39A     -0.452563
      40A     -0.355003    41A     -0.334143

  @DF-RHF Final Energy: -1187.68943801494675

   => Energetics <=

    Nuclear Repulsion Energy =            542.8246964453464898
    One-Electron Energy =               -2711.7017614717683500
    Two-Electron Energy =                 981.1876270114751151
    Total Energy =                      -1187.6894380149467452
  Basis Set: (AUG-CC-PVTZ AUX)
    Blend: AUG-CC-PVTZ-RI
    Molecular point group: c1

    Geometry (in Angstrom), charge = 0, multiplicity = 1:

       Center              X                  Y                   Z               Mass
    ------------   -----------------  -----------------  -----------------  -----------------
         CL           2.693992427205    -1.161075763563    -0.001975102865    34.968852682000
         CL          -2.707685572795    -1.161058763563    -0.001975102865    34.968852682000
         C            0.084379827205     1.812113236437     0.031579897135    12.000000000000
         C           -1.214073572795     1.101755236437    -0.013148102865    12.000000000000
         C            1.200395427205     1.101747236437    -0.013149102865    12.000000000000
         C           -0.006823572795     3.315860236437     0.009458897135    12.000000000000
         C            1.186288427205    -0.291954763563    -0.003921102865    12.000000000000
         C           -1.199975572795    -0.291948763563    -0.003921102865    12.000000000000
         C           -0.006846572795    -1.012418763563     0.002653897135    12.000000000000
         H           -2.163938572795     1.630465236437    -0.021843102865     1.007825032230
         H            2.150263427205     1.630452236437    -0.021845102865     1.007825032230
         H           -0.006554572795     3.685386236437     1.040316897135     1.007825032230
         H            0.878658427205     3.717889236437    -0.489958102865     1.007825032230
         H           -0.892558572795     3.717897236437    -0.489503102865     1.007825032230
         H           -0.006848572795    -2.097679763563     0.006144897135     1.007825032230

  Basis Set: AUG-CC-PVTZ
    Blend: AUG-CC-PVTZ
  Basis Set: (AUG-CC-PVTZ AUX)
    Blend: AUG-CC-PVTZ-JKFIT
	 Reference Energy          =   -1187.6894380149467452 [Eh]
	 Singles Energy            =      -0.0000000000000000 [Eh]
	 Same-Spin Energy          =      -0.4296502817890128 [Eh]
	 Opposite-Spin Energy      =      -1.3005121089066947 [Eh]
	 Correlation Energy        =      -1.7301623906957073 [Eh]
	 Total Energy              =   -1189.4196004056425409 [Eh]

	 ================> DF-SCS-MP2 Energies <==================
	-----------------------------------------------------------
	 SCS Same-Spin Scale       =       0.3333333333333333 [-]
	 SCS Opposite-Spin Scale   =       1.2000000000000000 [-]
	 SCS Same-Spin Energy      =      -0.1432167605963376 [Eh]
	 SCS Opposite-Spin Energy  =      -1.5606145306880335 [Eh]
	 SCS Correlation Energy    =      -1.7038312912843709 [Eh]
	 SCS Total Energy          =   -1189.3932693062311046 [Eh]
	-----------------------------------------------------------

  Dipole Moment: [D]
     X:     0.0423      Y:     2.1563      Z:     0.0181     Total:     2.1568

*** Psi4 exiting successfully. Buy a developer a beer!
