                               Psi4 1.4a3.dev225

  ==> Input File <==

--------------------------------------------------------------------------
#psi4
#
memory 32 gb

molecule  {
0 1
 Cl        2.7008340    -1.2489210     0.0016850
 Cl       -2.7008440    -1.2489040     0.0016850
  C        0.0000030     1.7216440    -0.0170270
  C       -1.2072320     1.0139100    -0.0094880
  C        1.2072370     1.0139020    -0.0094890
  C        0.0000180     3.2280150     0.0131190
  C        1.1931300    -0.3798000    -0.0002610
  C       -1.1931340    -0.3797940    -0.0002610
  C        0.1712009    -0.9968829     0.0053705
  H       -2.1570970     1.5426200    -0.0181830
  H        2.1571050     1.5426070    -0.0181850
  H        0.0002870     3.5975410     1.0439770
  H        0.8855000     3.6300440    -0.4862980
  H       -0.8857170     3.6300520    -0.4858430
  H       -0.0000070    -2.1855250     0.0098050
units angstrom
no_reorient  #important for SAPT in psi4, default
symmetry c1  #important for SAPT in psi4, default
}

set PROPERTIES_ORIGIN ["COM"]
properties('MP2/aug-cc-pvtz', properties = ['dipole'])
--------------------------------------------------------------------------

    Molecular point group: c1
  Charge       = 0
  Multiplicity = 1
  Basis Set: AUG-CC-PVTZ
    Blend: AUG-CC-PVTZ
  Basis Set: (AUG-CC-PVTZ AUX)
    Blend: AUG-CC-PVTZ-JKFIT

    Orbital Energies [Eh]
    ---------------------

    Doubly Occupied:

       1A   -104.859006     2A   -104.843626     3A    -11.326283
       4A    -11.289169     5A    -11.268395     6A    -11.256746
       7A    -11.253822     8A    -11.252688     9A    -11.240742
      10A    -10.582095    11A    -10.567791    12A     -8.049002
      13A     -8.047054    14A     -8.047046    15A     -8.034691
      16A     -8.032727    17A     -8.032710    18A     -1.227040
      19A     -1.164484    20A     -1.118982    21A     -1.056073
      22A     -0.999411    23A     -0.958071    24A     -0.835388
      25A     -0.805304    26A     -0.697882    27A     -0.688017
      28A     -0.627044    29A     -0.602916    30A     -0.599645
      31A     -0.573151    32A     -0.565648    33A     -0.562013
      34A     -0.529402    35A     -0.514418    36A     -0.496247
      37A     -0.464370    38A     -0.455981    39A     -0.454327
      40A     -0.369697    41A     -0.330930

  @DF-RHF Final Energy: -1187.63746685602177

   => Energetics <=

    Nuclear Repulsion Energy =            544.9532762960142236
    One-Electron Energy =               -2715.8214201075425080
    Two-Electron Energy =                 983.2306769555063966
    Total Energy =                      -1187.6374668560217742
  Basis Set: (AUG-CC-PVTZ AUX)
    Blend: AUG-CC-PVTZ-RI
    Molecular point group: c1

    Geometry (in Angstrom), charge = 0, multiplicity = 1:

       Center              X                  Y                   Z               Mass
    ------------   -----------------  -----------------  -----------------  -----------------
         CL           2.687992789323    -1.168633270848     0.002016067399    34.968852682000
         CL          -2.713685210677    -1.168616270848     0.002016067399    34.968852682000
         C           -0.012838210677     1.801931729152    -0.016695932601    12.000000000000
         C           -1.220073210677     1.094197729152    -0.009156932601    12.000000000000
         C            1.194395789323     1.094189729152    -0.009157932601    12.000000000000
         C           -0.012823210677     3.308302729152     0.013450067399    12.000000000000
         C            1.180288789323    -0.299512270848     0.000070067399    12.000000000000
         C           -1.205975210677    -0.299506270848     0.000070067399    12.000000000000
         C            0.158359689323    -0.916595170848     0.005701567399    12.000000000000
         H           -2.169938210677     1.622907729152    -0.017851932601     1.007825032230
         H            2.144263789323     1.622894729152    -0.017853932601     1.007825032230
         H           -0.012554210677     3.677828729152     1.044308067399     1.007825032230
         H            0.872658789323     3.710331729152    -0.485966932601     1.007825032230
         H           -0.898558210677     3.710339729152    -0.485511932601     1.007825032230
         H           -0.012848210677    -2.105237270848     0.010136067399     1.007825032230

  Basis Set: AUG-CC-PVTZ
    Blend: AUG-CC-PVTZ
  Basis Set: (AUG-CC-PVTZ AUX)
    Blend: AUG-CC-PVTZ-JKFIT
	 Reference Energy          =   -1187.6374668560217742 [Eh]
	 Singles Energy            =      -0.0000000000000000 [Eh]
	 Same-Spin Energy          =      -0.4294277220377263 [Eh]
	 Opposite-Spin Energy      =      -1.3014037368251321 [Eh]
	 Correlation Energy        =      -1.7308314588628584 [Eh]
	 Total Energy              =   -1189.3682983148846688 [Eh]

	 ================> DF-SCS-MP2 Energies <==================
	-----------------------------------------------------------
	 SCS Same-Spin Scale       =       0.3333333333333333 [-]
	 SCS Opposite-Spin Scale   =       1.2000000000000000 [-]
	 SCS Same-Spin Energy      =      -0.1431425740125754 [Eh]
	 SCS Opposite-Spin Energy  =      -1.5616844841901585 [Eh]
	 SCS Correlation Energy    =      -1.7048270582027338 [Eh]
	 SCS Total Energy          =   -1189.3422939142244559 [Eh]
	-----------------------------------------------------------

  Dipole Moment: [D]
     X:    -0.4171      Y:     2.0989      Z:     0.0355     Total:     2.1403

*** Psi4 exiting successfully. Buy a developer a beer!
