                               Psi4 1.4a3.dev225

  ==> Input File <==

--------------------------------------------------------------------------
#psi4
#
memory 32 gb

molecule  {
0 1
 Cl        2.7008340    -1.2489210     0.0016850
 Cl       -2.7008440    -1.2489040     0.0016850
  C        0.0464338     1.6357162    -0.0157924
  C       -1.2072320     1.0139100    -0.0094880
  C        1.2072370     1.0139020    -0.0094890
  C        0.0000180     3.2280150     0.0131190
  C        1.1931300    -0.3798000    -0.0002610
  C       -1.1931340    -0.3797940    -0.0002610
  C       -0.0000050    -1.1002640     0.0063140
  H       -2.1570970     1.5426200    -0.0181830
  H        2.1571050     1.5426070    -0.0181850
  H        0.0002870     3.5975410     1.0439770
  H        0.8855000     3.6300440    -0.4862980
  H       -0.8857170     3.6300520    -0.4858430
  H       -0.0000070    -2.1855250     0.0098050
units angstrom
no_reorient  #important for SAPT in psi4, default
symmetry c1  #important for SAPT in psi4, default
}

set PROPERTIES_ORIGIN ["COM"]
properties('MP2/aug-cc-pvtz', properties = ['dipole'])
--------------------------------------------------------------------------

    Molecular point group: c1
  Charge       = 0
  Multiplicity = 1
  Basis Set: AUG-CC-PVTZ
    Blend: AUG-CC-PVTZ
  Basis Set: (AUG-CC-PVTZ AUX)
    Blend: AUG-CC-PVTZ-JKFIT

    Orbital Energies [Eh]
    ---------------------

    Doubly Occupied:

       1A   -104.849928     2A   -104.848891     3A    -11.319726
       4A    -11.318423     5A    -11.264866     6A    -11.260268
       7A    -11.255705     8A    -11.246790     9A    -11.242879
      10A    -10.573745    11A    -10.572756    12A     -8.040642
      13A     -8.039654    14A     -8.038730    15A     -8.038713
      16A     -8.037740    17A     -8.037727    18A     -1.217665
      19A     -1.161858    20A     -1.121690    21A     -1.038449
      22A     -1.005012    23A     -0.951391    24A     -0.828867
      25A     -0.814533    26A     -0.712408    27A     -0.684651
      28A     -0.622206    29A     -0.604882    30A     -0.593304
      31A     -0.590430    32A     -0.559475    33A     -0.556400
      34A     -0.530403    35A     -0.511225    36A     -0.503496
      37A     -0.461684    38A     -0.458160    39A     -0.457765
      40A     -0.355539    41A     -0.341273

  @DF-RHF Final Energy: -1187.69010397274997

   => Energetics <=

    Nuclear Repulsion Energy =            544.0105820930407390
    One-Electron Energy =               -2714.0614720463195226
    Two-Electron Energy =                 982.3607859805287035
    Total Energy =                      -1187.6901039727499665
  Basis Set: (AUG-CC-PVTZ AUX)
    Blend: AUG-CC-PVTZ-RI
    Molecular point group: c1

    Geometry (in Angstrom), charge = 0, multiplicity = 1:

       Center              X                  Y                   Z               Mass
    ------------   -----------------  -----------------  -----------------  -----------------
         CL           2.697351819380    -1.154433741574     0.001852694231    34.968852682000
         CL          -2.704326180620    -1.154416741574     0.001852694231    34.968852682000
         C            0.042951619380     1.730203458426    -0.015624705769    12.000000000000
         C           -1.210714180620     1.108397258426    -0.009320305769    12.000000000000
         C            1.203754819380     1.108389258426    -0.009321305769    12.000000000000
         C           -0.003464180620     3.322502258426     0.013286694231    12.000000000000
         C            1.189647819380    -0.285312741574    -0.000093305769    12.000000000000
         C           -1.196616180620    -0.285306741574    -0.000093305769    12.000000000000
         C           -0.003487180620    -1.005776741574     0.006481694231    12.000000000000
         H           -2.160579180620     1.637107258426    -0.018015305769     1.007825032230
         H            2.153622819380     1.637094258426    -0.018017305769     1.007825032230
         H           -0.003195180620     3.692028258426     1.044144694231     1.007825032230
         H            0.882017819380     3.724531258426    -0.486130305769     1.007825032230
         H           -0.889199180620     3.724539258426    -0.485675305769     1.007825032230
         H           -0.003489180620    -2.091037741574     0.009972694231     1.007825032230

  Basis Set: AUG-CC-PVTZ
    Blend: AUG-CC-PVTZ
  Basis Set: (AUG-CC-PVTZ AUX)
    Blend: AUG-CC-PVTZ-JKFIT
	 Reference Energy          =   -1187.6901039727499665 [Eh]
	 Singles Energy            =      -0.0000000000000000 [Eh]
	 Same-Spin Energy          =      -0.4295103070861755 [Eh]
	 Opposite-Spin Energy      =      -1.2996833292659360 [Eh]
	 Correlation Energy        =      -1.7291936363521114 [Eh]
	 Total Energy              =   -1189.4192976091021592 [Eh]

	 ================> DF-SCS-MP2 Energies <==================
	-----------------------------------------------------------
	 SCS Same-Spin Scale       =       0.3333333333333333 [-]
	 SCS Opposite-Spin Scale   =       1.2000000000000000 [-]
	 SCS Same-Spin Energy      =      -0.1431701023620585 [Eh]
	 SCS Opposite-Spin Energy  =      -1.5596199951191232 [Eh]
	 SCS Correlation Energy    =      -1.7027900974811816 [Eh]
	 SCS Total Energy          =   -1189.3928940702312502 [Eh]
	-----------------------------------------------------------

  Dipole Moment: [D]
     X:     0.0216      Y:     1.9956      Z:     0.0267     Total:     1.9959

*** Psi4 exiting successfully. Buy a developer a beer!
