                               Psi4 1.4a3.dev225

  ==> Input File <==

--------------------------------------------------------------------------
#psi4
#
memory 32 gb

molecule  {
0 1
 Cl        2.7008340    -1.2489210     0.0016850
 Cl       -2.7008440    -1.2489040     0.0016850
  C        0.0000030     1.7216440    -0.0170270
  C       -1.2072320     1.0139100    -0.0094880
  C        1.2072370     1.0139020    -0.0094890
  C        0.0000170     3.1280350     0.0111182
  C        1.1931300    -0.3798000    -0.0002610
  C       -1.1931340    -0.3797940    -0.0002610
  C       -0.0000050    -1.1002640     0.0063140
  H       -2.1570970     1.5426200    -0.0181830
  H        2.1571050     1.5426070    -0.0181850
  H        0.0002870     3.5975410     1.0439770
  H        0.8855000     3.6300440    -0.4862980
  H       -0.8857170     3.6300520    -0.4858430
  H       -0.0000070    -2.1855250     0.0098050
units angstrom
no_reorient  #important for SAPT in psi4, default
symmetry c1  #important for SAPT in psi4, default
}

set PROPERTIES_ORIGIN ["COM"]
properties('MP2/aug-cc-pvtz', properties = ['dipole'])
--------------------------------------------------------------------------

    Molecular point group: c1
  Charge       = 0
  Multiplicity = 1
  Basis Set: AUG-CC-PVTZ
    Blend: AUG-CC-PVTZ
  Basis Set: (AUG-CC-PVTZ AUX)
    Blend: AUG-CC-PVTZ-JKFIT

    Orbital Energies [Eh]
    ---------------------

    Doubly Occupied:

       1A   -104.849525     2A   -104.849525     3A    -11.318541
       4A    -11.318533     5A    -11.266310     6A    -11.260704
       7A    -11.255141     8A    -11.255068     9A    -11.245795
      10A    -10.573306    11A    -10.573305    12A     -8.040209
      13A     -8.040208    14A     -8.038282    15A     -8.038281
      16A     -8.038274    17A     -8.038274    18A     -1.213851
      19A     -1.161122    20A     -1.127641    21A     -1.049784
      22A     -0.999127    23A     -0.957506    24A     -0.824876
      25A     -0.813642    26A     -0.707991    27A     -0.685155
      28A     -0.639627    29A     -0.602314    30A     -0.594925
      31A     -0.592891    32A     -0.549531    33A     -0.549439
      34A     -0.538262    35A     -0.511029    36A     -0.508919
      37A     -0.467420    38A     -0.457794    39A     -0.449443
      40A     -0.343297    41A     -0.342378

  @DF-RHF Final Energy: -1187.68778066940285

   => Energetics <=

    Nuclear Repulsion Energy =            544.7301231182534593
    One-Electron Energy =               -2715.4613241499855576
    Two-Electron Energy =                 983.0434203623290159
    Total Energy =                      -1187.6877806694028550
  Basis Set: (AUG-CC-PVTZ AUX)
    Blend: AUG-CC-PVTZ-RI
    Molecular point group: c1

    Geometry (in Angstrom), charge = 0, multiplicity = 1:

       Center              X                  Y                   Z               Mass
    ------------   -----------------  -----------------  -----------------  -----------------
         CL           2.700834538383    -1.153379725491     0.002095372504    34.968852682000
         CL          -2.700843461617    -1.153362725491     0.002095372504    34.968852682000
         C            0.000003538383     1.817185274509    -0.016616627496    12.000000000000
         C           -1.207231461617     1.109451274509    -0.009077627496    12.000000000000
         C            1.207237538383     1.109443274509    -0.009078627496    12.000000000000
         C            0.000017538383     3.223576274509     0.011528572504    12.000000000000
         C            1.193130538383    -0.284258725491     0.000149372504    12.000000000000
         C           -1.193133461617    -0.284252725491     0.000149372504    12.000000000000
         C           -0.000004461617    -1.004722725491     0.006724372504    12.000000000000
         H           -2.157096461617     1.638161274509    -0.017772627496     1.007825032230
         H            2.157105538383     1.638148274509    -0.017774627496     1.007825032230
         H            0.000287538383     3.693082274509     1.044387372504     1.007825032230
         H            0.885500538383     3.725585274509    -0.485887627496     1.007825032230
         H           -0.885716461617     3.725593274509    -0.485432627496     1.007825032230
         H           -0.000006461617    -2.089983725491     0.010215372504     1.007825032230

  Basis Set: AUG-CC-PVTZ
    Blend: AUG-CC-PVTZ
  Basis Set: (AUG-CC-PVTZ AUX)
    Blend: AUG-CC-PVTZ-JKFIT
	 Reference Energy          =   -1187.6877806694028550 [Eh]
	 Singles Energy            =      -0.0000000000000000 [Eh]
	 Same-Spin Energy          =      -0.4311827109164458 [Eh]
	 Opposite-Spin Energy      =      -1.3015547855521352 [Eh]
	 Correlation Energy        =      -1.7327374964685811 [Eh]
	 Total Energy              =   -1189.4205181658714991 [Eh]

	 ================> DF-SCS-MP2 Energies <==================
	-----------------------------------------------------------
	 SCS Same-Spin Scale       =       0.3333333333333333 [-]
	 SCS Opposite-Spin Scale   =       1.2000000000000000 [-]
	 SCS Same-Spin Energy      =      -0.1437275703054819 [Eh]
	 SCS Opposite-Spin Energy  =      -1.5618657426625622 [Eh]
	 SCS Correlation Energy    =      -1.7055933129680441 [Eh]
	 SCS Total Energy          =   -1189.3933739823708038 [Eh]
	-----------------------------------------------------------

  Dipole Moment: [D]
     X:     0.0000      Y:     2.1443      Z:     0.0410     Total:     2.1447

*** Psi4 exiting successfully. Buy a developer a beer!
