                               Psi4 1.4a3.dev225

  ==> Input File <==

--------------------------------------------------------------------------
#psi4
#
memory 32 gb

molecule  {
0 1
 Cl        2.7008340    -1.2489210     0.0016850
 Cl       -2.7008440    -1.2489040     0.0016850
  C        0.0000030     1.7216440    -0.0170270
  C       -1.2072320     1.0139100    -0.0094880
  C        1.2072370     1.0139020    -0.0094890
  C        0.0000180     3.2280150     0.0131190
  C        1.1931300    -0.3798000    -0.0002610
  C       -1.1941455    -0.2798013    -0.0009230
  C       -0.0000050    -1.1002640     0.0063140
  H       -2.1570970     1.5426200    -0.0181830
  H        2.1571050     1.5426070    -0.0181850
  H        0.0002870     3.5975410     1.0439770
  H        0.8855000     3.6300440    -0.4862980
  H       -0.8857170     3.6300520    -0.4858430
  H       -0.0000070    -2.1855250     0.0098050
units angstrom
no_reorient  #important for SAPT in psi4, default
symmetry c1  #important for SAPT in psi4, default
}

set PROPERTIES_ORIGIN ["COM"]
properties('MP2/aug-cc-pvtz', properties = ['dipole'])
--------------------------------------------------------------------------

    Molecular point group: c1
  Charge       = 0
  Multiplicity = 1
  Basis Set: AUG-CC-PVTZ
    Blend: AUG-CC-PVTZ
  Basis Set: (AUG-CC-PVTZ AUX)
    Blend: AUG-CC-PVTZ-JKFIT

    Orbital Energies [Eh]
    ---------------------

    Doubly Occupied:

       1A   -104.849444     2A   -104.843210     3A    -11.318962
       4A    -11.316306     5A    -11.274522     6A    -11.266671
       7A    -11.255533     8A    -11.246340     9A    -11.243682
      10A    -10.573286    11A    -10.566416    12A     -8.040187
      13A     -8.038262    14A     -8.038252    15A     -8.033200
      16A     -8.031423    17A     -8.031415    18A     -1.214905
      19A     -1.158115    20A     -1.115891    21A     -1.038894
      22A     -1.014384    23A     -0.959392    24A     -0.826495
      25A     -0.814003    26A     -0.711788    27A     -0.685160
      28A     -0.622201    29A     -0.605333    30A     -0.600660
      31A     -0.589505    32A     -0.563111    33A     -0.556050
      34A     -0.531171    35A     -0.508688    36A     -0.506690
      37A     -0.466110    38A     -0.453735    39A     -0.453087
      40A     -0.357223    41A     -0.339724

  @DF-RHF Final Energy: -1187.68891588847987

   => Energetics <=

    Nuclear Repulsion Energy =            542.9949103649778408
    One-Electron Energy =               -2712.0488015038149570
    Two-Electron Energy =                 981.3649752503572472
    Total Energy =                      -1187.6889158884798690
  Basis Set: (AUG-CC-PVTZ AUX)
    Blend: AUG-CC-PVTZ-RI
    Molecular point group: c1

    Geometry (in Angstrom), charge = 0, multiplicity = 1:

       Center              X                  Y                   Z               Mass
    ------------   -----------------  -----------------  -----------------  -----------------
         CL           2.700910333151    -1.168379116474     0.001994952874    34.968852682000
         CL          -2.700767666849    -1.168362116474     0.001994952874    34.968852682000
         C            0.000079333151     1.802185883526    -0.016717047126    12.000000000000
         C           -1.207155666849     1.094451883526    -0.009178047126    12.000000000000
         C            1.207313333151     1.094443883526    -0.009179047126    12.000000000000
         C            0.000094333151     3.308556883526     0.013428952874    12.000000000000
         C            1.193206333151    -0.299258116474     0.000048952874    12.000000000000
         C           -1.194069166849    -0.199259416474    -0.000613047126    12.000000000000
         C            0.000071333151    -1.019722116474     0.006623952874    12.000000000000
         H           -2.157020666849     1.623161883526    -0.017873047126     1.007825032230
         H            2.157181333151     1.623148883526    -0.017875047126     1.007825032230
         H            0.000363333151     3.678082883526     1.044286952874     1.007825032230
         H            0.885576333151     3.710585883526    -0.485988047126     1.007825032230
         H           -0.885640666849     3.710593883526    -0.485533047126     1.007825032230
         H            0.000069333151    -2.104983116474     0.010114952874     1.007825032230

  Basis Set: AUG-CC-PVTZ
    Blend: AUG-CC-PVTZ
  Basis Set: (AUG-CC-PVTZ AUX)
    Blend: AUG-CC-PVTZ-JKFIT
	 Reference Energy          =   -1187.6889158884798690 [Eh]
	 Singles Energy            =      -0.0000000000000000 [Eh]
	 Same-Spin Energy          =      -0.4291904665587555 [Eh]
	 Opposite-Spin Energy      =      -1.2997721058058895 [Eh]
	 Correlation Energy        =      -1.7289625723646451 [Eh]
	 Total Energy              =   -1189.4178784608445767 [Eh]

	 ================> DF-SCS-MP2 Energies <==================
	-----------------------------------------------------------
	 SCS Same-Spin Scale       =       0.3333333333333333 [-]
	 SCS Opposite-Spin Scale   =       1.2000000000000000 [-]
	 SCS Same-Spin Energy      =      -0.1430634888529185 [Eh]
	 SCS Opposite-Spin Energy  =      -1.5597265269670675 [Eh]
	 SCS Correlation Energy    =      -1.7027900158199860 [Eh]
	 SCS Total Energy          =   -1189.3917059042998972 [Eh]
	-----------------------------------------------------------

  Dipole Moment: [D]
     X:     0.2063      Y:     2.3323      Z:     0.0349     Total:     2.3417

*** Psi4 exiting successfully. Buy a developer a beer!
