                               Psi4 1.4a3.dev225

  ==> Input File <==

--------------------------------------------------------------------------
#psi4
#
memory 32 gb

molecule  {
0 1
 Cl        2.7008340    -1.2489210     0.0016850
 Cl       -2.7008440    -1.2489040     0.0016850
  C       -0.0125332     1.7426032    -0.0173301
  C       -1.2072320     1.0139100    -0.0094880
  C        1.2072370     1.0139020    -0.0094890
  C        0.0000180     3.2280150     0.0131190
  C        1.1931300    -0.3798000    -0.0002610
  C       -1.1931340    -0.3797940    -0.0002610
  C       -0.0000050    -1.1002640     0.0063140
  H       -2.1570970     1.5426200    -0.0181830
  H        2.1571050     1.5426070    -0.0181850
  H        0.0002870     3.5975410     1.0439770
  H        0.8855000     3.6300440    -0.4862980
  H       -0.8857170     3.6300520    -0.4858430
  H       -0.0000070    -2.1855250     0.0098050
units angstrom
no_reorient  #important for SAPT in psi4, default
symmetry c1  #important for SAPT in psi4, default
}

set PROPERTIES_ORIGIN ["COM"]
properties('MP2/aug-cc-pvtz', properties = ['dipole'])
--------------------------------------------------------------------------

    Molecular point group: c1
  Charge       = 0
  Multiplicity = 1
  Basis Set: AUG-CC-PVTZ
    Blend: AUG-CC-PVTZ
  Basis Set: (AUG-CC-PVTZ AUX)
    Blend: AUG-CC-PVTZ-JKFIT

    Orbital Energies [Eh]
    ---------------------

    Doubly Occupied:

       1A   -104.849319     2A   -104.849052     3A    -11.318191
       4A    -11.317839     5A    -11.272733     6A    -11.260433
       7A    -11.256811     8A    -11.254856     9A    -11.241496
      10A    -10.573085    11A    -10.572831    12A     -8.039989
      13A     -8.039736    14A     -8.038059    15A     -8.038054
      16A     -8.037805    17A     -8.037801    18A     -1.210941
      19A     -1.160580    20A     -1.118344    21A     -1.045325
      22A     -0.996604    23A     -0.960248    24A     -0.822566
      25A     -0.815088    26A     -0.706324    27A     -0.681820
      28A     -0.628558    29A     -0.599900    30A     -0.595101
      31A     -0.592462    32A     -0.564645    33A     -0.555809
      34A     -0.530302    35A     -0.513699    36A     -0.510609
      37A     -0.466497    38A     -0.457671    39A     -0.450840
      40A     -0.344839    41A     -0.340880

  @DF-RHF Final Energy: -1187.69900850632121

   => Energetics <=

    Nuclear Repulsion Energy =            542.5590758492703571
    One-Electron Energy =               -2711.1806905436737907
    Two-Electron Energy =                 980.9226061880822272
    Total Energy =                      -1187.6990085063212064
  Basis Set: (AUG-CC-PVTZ AUX)
    Blend: AUG-CC-PVTZ-RI
    Molecular point group: c1

    Geometry (in Angstrom), charge = 0, multiplicity = 1:

       Center              X                  Y                   Z               Mass
    ------------   -----------------  -----------------  -----------------  -----------------
         CL           2.701774768553    -1.162451035455     0.001968032792    34.968852682000
         CL          -2.699903231447    -1.162434035455     0.001968032792    34.968852682000
         C           -0.011592431447     1.829073164545    -0.017047067208    12.000000000000
         C           -1.206291231447     1.100379964545    -0.009204967208    12.000000000000
         C            1.208177768553     1.100371964545    -0.009205967208    12.000000000000
         C            0.000958768553     3.314484964545     0.013402032792    12.000000000000
         C            1.194070768553    -0.293330035455     0.000022032792    12.000000000000
         C           -1.192193231447    -0.293324035455     0.000022032792    12.000000000000
         C            0.000935768553    -1.013794035455     0.006597032792    12.000000000000
         H           -2.156156231447     1.629089964545    -0.017899967208     1.007825032230
         H            2.158045768553     1.629076964545    -0.017901967208     1.007825032230
         H            0.001227768553     3.684010964545     1.044260032792     1.007825032230
         H            0.886440768553     3.716513964545    -0.486014967208     1.007825032230
         H           -0.884776231447     3.716521964545    -0.485559967208     1.007825032230
         H            0.000933768553    -2.099055035455     0.010088032792     1.007825032230

  Basis Set: AUG-CC-PVTZ
    Blend: AUG-CC-PVTZ
  Basis Set: (AUG-CC-PVTZ AUX)
    Blend: AUG-CC-PVTZ-JKFIT
	 Reference Energy          =   -1187.6990085063212064 [Eh]
	 Singles Energy            =      -0.0000000000000000 [Eh]
	 Same-Spin Energy          =      -0.4300728123600193 [Eh]
	 Opposite-Spin Energy      =      -1.3003428050855177 [Eh]
	 Correlation Energy        =      -1.7304156174455370 [Eh]
	 Total Energy              =   -1189.4294241237666938 [Eh]

	 ================> DF-SCS-MP2 Energies <==================
	-----------------------------------------------------------
	 SCS Same-Spin Scale       =       0.3333333333333333 [-]
	 SCS Opposite-Spin Scale   =       1.2000000000000000 [-]
	 SCS Same-Spin Energy      =      -0.1433576041200064 [Eh]
	 SCS Opposite-Spin Energy  =      -1.5604113661026211 [Eh]
	 SCS Correlation Energy    =      -1.7037689702226275 [Eh]
	 SCS Total Energy          =   -1189.4027774765438608 [Eh]
	-----------------------------------------------------------

  Dipole Moment: [D]
     X:    -0.0057      Y:     2.1756      Z:     0.0379     Total:     2.1760

*** Psi4 exiting successfully. Buy a developer a beer!
