                               Psi4 1.4a3.dev225

  ==> Input File <==

--------------------------------------------------------------------------
#psi4
#
memory 32 gb

molecule  {
0 1
 Cl        2.7008340    -1.2489210     0.0016850
 Cl       -2.7008440    -1.2489040     0.0016850
  C        0.0000030     1.7216440    -0.0170270
  C       -1.2072320     1.0139100    -0.0094880
  C        1.1099809     1.0114920    -0.0093251
  C        0.0000180     3.2280150     0.0131190
  C        1.1931300    -0.3798000    -0.0002610
  C       -1.1931340    -0.3797940    -0.0002610
  C       -0.0000050    -1.1002640     0.0063140
  H       -2.1570970     1.5426200    -0.0181830
  H        2.1571050     1.5426070    -0.0181850
  H        0.0002870     3.5975410     1.0439770
  H        0.8855000     3.6300440    -0.4862980
  H       -0.8857170     3.6300520    -0.4858430
  H       -0.0000070    -2.1855250     0.0098050
units angstrom
no_reorient  #important for SAPT in psi4, default
symmetry c1  #important for SAPT in psi4, default
}

set PROPERTIES_ORIGIN ["COM"]
properties('MP2/aug-cc-pvtz', properties = ['dipole'])
--------------------------------------------------------------------------

    Molecular point group: c1
  Charge       = 0
  Multiplicity = 1
  Basis Set: AUG-CC-PVTZ
    Blend: AUG-CC-PVTZ
  Basis Set: (AUG-CC-PVTZ AUX)
    Blend: AUG-CC-PVTZ-JKFIT

    Orbital Energies [Eh]
    ---------------------

    Doubly Occupied:

       1A   -104.853869     2A   -104.848076     3A    -11.317450
       4A    -11.315598     5A    -11.260933     6A    -11.259947
       7A    -11.255373     8A    -11.252825     9A    -11.241875
      10A    -10.577306    11A    -10.571861    12A     -8.044216
      13A     -8.042270    14A     -8.042263    15A     -8.038769
      16A     -8.036839    17A     -8.036836    18A     -1.216635
      19A     -1.160261    20A     -1.127701    21A     -1.045785
      22A     -0.996798    23A     -0.959933    24A     -0.831510
      25A     -0.814106    26A     -0.700019    27A     -0.686263
      28A     -0.625965    29A     -0.600734    30A     -0.595788
      31A     -0.585682    32A     -0.557662    33A     -0.556875
      34A     -0.532273    35A     -0.511202    36A     -0.505552
      37A     -0.467504    38A     -0.458244    39A     -0.457530
      40A     -0.353429    41A     -0.339928

  @DF-RHF Final Energy: -1187.68800173020463

   => Energetics <=

    Nuclear Repulsion Energy =            544.2112703898588961
    One-Electron Energy =               -2714.4311764650756231
    Two-Electron Energy =                 982.5319043450120944
    Total Energy =                      -1187.6880017302046326
  Basis Set: (AUG-CC-PVTZ AUX)
    Blend: AUG-CC-PVTZ-RI
    Molecular point group: c1

    Geometry (in Angstrom), charge = 0, multiplicity = 1:

       Center              X                  Y                   Z               Mass
    ------------   -----------------  -----------------  -----------------  -----------------
         CL           2.708129370477    -1.160698177351     0.001933004433    34.968852682000
         CL          -2.693548629523    -1.160681177351     0.001933004433    34.968852682000
         C            0.007298370477     1.809866822649    -0.016778995567    12.000000000000
         C           -1.199936629523     1.102132822649    -0.009239995567    12.000000000000
         C            1.117276270477     1.099714822649    -0.009077095567    12.000000000000
         C            0.007313370477     3.316237822649     0.013367004433    12.000000000000
         C            1.200425370477    -0.291577177351    -0.000012995567    12.000000000000
         C           -1.185838629523    -0.291571177351    -0.000012995567    12.000000000000
         C            0.007290370477    -1.012041177351     0.006562004433    12.000000000000
         H           -2.149801629523     1.630842822649    -0.017934995567     1.007825032230
         H            2.164400370477     1.630829822649    -0.017936995567     1.007825032230
         H            0.007582370477     3.685763822649     1.044225004433     1.007825032230
         H            0.892795370477     3.718266822649    -0.486049995567     1.007825032230
         H           -0.878421629523     3.718274822649    -0.485594995567     1.007825032230
         H            0.007288370477    -2.097302177351     0.010053004433     1.007825032230

  Basis Set: AUG-CC-PVTZ
    Blend: AUG-CC-PVTZ
  Basis Set: (AUG-CC-PVTZ AUX)
    Blend: AUG-CC-PVTZ-JKFIT
	 Reference Energy          =   -1187.6880017302046326 [Eh]
	 Singles Energy            =      -0.0000000000000000 [Eh]
	 Same-Spin Energy          =      -0.4301375007956196 [Eh]
	 Opposite-Spin Energy      =      -1.3005505568589313 [Eh]
	 Correlation Energy        =      -1.7306880576545509 [Eh]
	 Total Energy              =   -1189.4186897878591935 [Eh]

	 ================> DF-SCS-MP2 Energies <==================
	-----------------------------------------------------------
	 SCS Same-Spin Scale       =       0.3333333333333333 [-]
	 SCS Opposite-Spin Scale   =       1.2000000000000000 [-]
	 SCS Same-Spin Energy      =      -0.1433791669318732 [Eh]
	 SCS Opposite-Spin Energy  =      -1.5606606682307176 [Eh]
	 SCS Correlation Energy    =      -1.7040398351625907 [Eh]
	 SCS Total Energy          =   -1189.3920415653672080 [Eh]
	-----------------------------------------------------------

  Dipole Moment: [D]
     X:     0.0649      Y:     2.0415      Z:     0.0343     Total:     2.0428

*** Psi4 exiting successfully. Buy a developer a beer!
