                               Psi4 1.4a3.dev225

  ==> Input File <==

--------------------------------------------------------------------------
#psi4
#
memory 32 gb

molecule  {
0 1
 Cl        2.7008340    -1.2489210     0.0016850
 Cl       -2.7008440    -1.2489040     0.0016850
  C        0.0000030     1.7216440    -0.0170270
  C       -1.2072320     1.0139100    -0.0094880
  C        1.2072370     1.0139020    -0.0094890
  C        0.0000175     3.1780250     0.0121186
  C        1.1931300    -0.3798000    -0.0002610
  C       -1.1931340    -0.3797940    -0.0002610
  C       -0.0000050    -1.1002640     0.0063140
  H       -2.1570970     1.5426200    -0.0181830
  H        2.1571050     1.5426070    -0.0181850
  H        0.0002870     3.5975410     1.0439770
  H        0.8855000     3.6300440    -0.4862980
  H       -0.8857170     3.6300520    -0.4858430
  H       -0.0000070    -2.1855250     0.0098050
units angstrom
no_reorient  #important for SAPT in psi4, default
symmetry c1  #important for SAPT in psi4, default
}

set PROPERTIES_ORIGIN ["COM"]
properties('MP2/aug-cc-pvtz', properties = ['dipole'])
--------------------------------------------------------------------------

    Molecular point group: c1
  Charge       = 0
  Multiplicity = 1
  Basis Set: AUG-CC-PVTZ
    Blend: AUG-CC-PVTZ
  Basis Set: (AUG-CC-PVTZ AUX)
    Blend: AUG-CC-PVTZ-JKFIT

    Orbital Energies [Eh]
    ---------------------

    Doubly Occupied:

       1A   -104.849388     2A   -104.849388     3A    -11.318381
       4A    -11.318374     5A    -11.268936     6A    -11.260560
       7A    -11.255035     8A    -11.254974     9A    -11.243502
      10A    -10.573170    11A    -10.573170    12A     -8.040073
      13A     -8.040073    14A     -8.038147    15A     -8.038146
      16A     -8.038140    17A     -8.038139    18A     -1.212859
      19A     -1.160971    20A     -1.122601    21A     -1.046611
      22A     -0.998629    23A     -0.957942    24A     -0.823912
      25A     -0.814989    26A     -0.707726    27A     -0.683616
      28A     -0.632233    29A     -0.599110    30A     -0.594795
      31A     -0.594445    32A     -0.555664    33A     -0.552946
      34A     -0.532833    35A     -0.514239    36A     -0.510867
      37A     -0.466833    38A     -0.457846    39A     -0.450944
      40A     -0.344864    41A     -0.342119

  @DF-RHF Final Energy: -1187.69693307279817

   => Energetics <=

    Nuclear Repulsion Energy =            543.7604152836939875
    One-Electron Energy =               -2713.5603244767985416
    Two-Electron Energy =                 982.1029761203066073
    Total Energy =                      -1187.6969330727979468
  Basis Set: (AUG-CC-PVTZ AUX)
    Blend: AUG-CC-PVTZ-RI
    Molecular point group: c1

    Geometry (in Angstrom), charge = 0, multiplicity = 1:

       Center              X                  Y                   Z               Mass
    ------------   -----------------  -----------------  -----------------  -----------------
         CL           2.700834500879    -1.157129335089     0.002020335308    34.968852682000
         CL          -2.700843499121    -1.157112335089     0.002020335308    34.968852682000
         C            0.000003500879     1.813435664911    -0.016691664692    12.000000000000
         C           -1.207231499121     1.105701664911    -0.009152664692    12.000000000000
         C            1.207237500879     1.105693664911    -0.009153664692    12.000000000000
         C            0.000018000879     3.269816664911     0.012453935308    12.000000000000
         C            1.193130500879    -0.288008335089     0.000074335308    12.000000000000
         C           -1.193133499121    -0.288002335089     0.000074335308    12.000000000000
         C           -0.000004499121    -1.008472335089     0.006649335308    12.000000000000
         H           -2.157096499121     1.634411664911    -0.017847664692     1.007825032230
         H            2.157105500879     1.634398664911    -0.017849664692     1.007825032230
         H            0.000287500879     3.689332664911     1.044312335308     1.007825032230
         H            0.885500500879     3.721835664911    -0.485962664692     1.007825032230
         H           -0.885716499121     3.721843664911    -0.485507664692     1.007825032230
         H           -0.000006499121    -2.093733335089     0.010140335308     1.007825032230

  Basis Set: AUG-CC-PVTZ
    Blend: AUG-CC-PVTZ
  Basis Set: (AUG-CC-PVTZ AUX)
    Blend: AUG-CC-PVTZ-JKFIT
	 Reference Energy          =   -1187.6969330727981742 [Eh]
	 Singles Energy            =      -0.0000000000000000 [Eh]
	 Same-Spin Energy          =      -0.4304208392823163 [Eh]
	 Opposite-Spin Energy      =      -1.3005976935661074 [Eh]
	 Correlation Energy        =      -1.7310185328484238 [Eh]
	 Total Energy              =   -1189.4279516056465127 [Eh]

	 ================> DF-SCS-MP2 Energies <==================
	-----------------------------------------------------------
	 SCS Same-Spin Scale       =       0.3333333333333333 [-]
	 SCS Opposite-Spin Scale   =       1.2000000000000000 [-]
	 SCS Same-Spin Energy      =      -0.1434736130941054 [Eh]
	 SCS Opposite-Spin Energy  =      -1.5607172322793288 [Eh]
	 SCS Correlation Energy    =      -1.7041908453734342 [Eh]
	 SCS Total Energy          =   -1189.4011239181716064 [Eh]
	-----------------------------------------------------------

  Dipole Moment: [D]
     X:     0.0000      Y:     2.1418      Z:     0.0379     Total:     2.1422

*** Psi4 exiting successfully. Buy a developer a beer!
