                               Psi4 1.4a3.dev225

  ==> Input File <==

--------------------------------------------------------------------------
#psi4
#
memory 32 gb

molecule  {
0 1
 Cl        2.7008340    -1.2489210     0.0016850
 Cl       -2.7008440    -1.2489040     0.0016850
  C        0.0000030     1.7216440    -0.0170270
  C       -1.2072320     1.0139100    -0.0094880
  C        1.2072370     1.0139020    -0.0094890
  C        0.0000180     3.2280150     0.0131190
  C        1.1931300    -0.3798000    -0.0002610
  C       -1.1931340    -0.3797940    -0.0002610
  C       -0.0000050    -1.1002640     0.0063140
  H       -2.1570970     1.5426200    -0.0181830
  H        2.1571050     1.5426070    -0.0181850
  H        0.0003116     3.6312850     1.1381117
  H        0.8855000     3.6300440    -0.4862980
  H       -0.8857170     3.6300520    -0.4858430
  H       -0.0000070    -2.1855250     0.0098050
units angstrom
no_reorient  #important for SAPT in psi4, default
symmetry c1  #important for SAPT in psi4, default
}

set PROPERTIES_ORIGIN ["COM"]
properties('MP2/aug-cc-pvtz', properties = ['dipole'])
--------------------------------------------------------------------------

    Molecular point group: c1
  Charge       = 0
  Multiplicity = 1
  Basis Set: AUG-CC-PVTZ
    Blend: AUG-CC-PVTZ
  Basis Set: (AUG-CC-PVTZ AUX)
    Blend: AUG-CC-PVTZ-JKFIT

    Orbital Energies [Eh]
    ---------------------

    Doubly Occupied:

       1A   -104.849469     2A   -104.849469     3A    -11.318494
       4A    -11.318487     5A    -11.271838     6A    -11.260852
       7A    -11.255457     8A    -11.255404     9A    -11.253310
      10A    -10.573252    11A    -10.573252    12A     -8.040156
      13A     -8.040155    14A     -8.038228    15A     -8.038227
      16A     -8.038221    17A     -8.038221    18A     -1.212372
      19A     -1.161067    20A     -1.118327    21A     -1.042635
      22A     -0.998532    23A     -0.953588    24A     -0.823422
      25A     -0.813893    26A     -0.707551    27A     -0.682802
      28A     -0.626872    29A     -0.595035    30A     -0.594695
      31A     -0.585539    32A     -0.564818    33A     -0.549578
      34A     -0.525351    35A     -0.517942    36A     -0.510971
      37A     -0.466256    38A     -0.458064    39A     -0.451190
      40A     -0.345541    41A     -0.342158

  @DF-RHF Final Energy: -1187.69381323090897

   => Energetics <=

    Nuclear Repulsion Energy =            542.4066516791099275
    One-Electron Energy =               -2710.8795546352112069
    Two-Electron Energy =                 980.7790897251921933
    Total Energy =                      -1187.6938132309091998
  Basis Set: (AUG-CC-PVTZ AUX)
    Blend: AUG-CC-PVTZ-RI
    Molecular point group: c1

    Geometry (in Angstrom), charge = 0, multiplicity = 1:

       Center              X                  Y                   Z               Mass
    ------------   -----------------  -----------------  -----------------  -----------------
         CL           2.700834308407    -1.161091515372     0.001352295572    34.968852682000
         CL          -2.700843691593    -1.161074515372     0.001352295572    34.968852682000
         C            0.000003308407     1.809473484628    -0.017359704428    12.000000000000
         C           -1.207231691593     1.101739484628    -0.009820704428    12.000000000000
         C            1.207237308407     1.101731484628    -0.009821704428    12.000000000000
         C            0.000018308407     3.315844484628     0.012786295572    12.000000000000
         C            1.193130308407    -0.291970515372    -0.000593704428    12.000000000000
         C           -1.193133691593    -0.291964515372    -0.000593704428    12.000000000000
         C           -0.000004691593    -1.012434515372     0.005981295572    12.000000000000
         H           -2.157096691593     1.630449484628    -0.018515704428     1.007825032230
         H            2.157105308407     1.630436484628    -0.018517704428     1.007825032230
         H            0.000311908407     3.719114484628     1.137778995572     1.007825032230
         H            0.885500308407     3.717873484628    -0.486630704428     1.007825032230
         H           -0.885716691593     3.717881484628    -0.486175704428     1.007825032230
         H           -0.000006691593    -2.097695515372     0.009472295572     1.007825032230

  Basis Set: AUG-CC-PVTZ
    Blend: AUG-CC-PVTZ
  Basis Set: (AUG-CC-PVTZ AUX)
    Blend: AUG-CC-PVTZ-JKFIT
	 Reference Energy          =   -1187.6938132309089724 [Eh]
	 Singles Energy            =      -0.0000000000000000 [Eh]
	 Same-Spin Energy          =      -0.4298874302541184 [Eh]
	 Opposite-Spin Energy      =      -1.3007089353317203 [Eh]
	 Correlation Energy        =      -1.7305963655858387 [Eh]
	 Total Energy              =   -1189.4244095964947974 [Eh]

	 ================> DF-SCS-MP2 Energies <==================
	-----------------------------------------------------------
	 SCS Same-Spin Scale       =       0.3333333333333333 [-]
	 SCS Opposite-Spin Scale   =       1.2000000000000000 [-]
	 SCS Same-Spin Energy      =      -0.1432958100847061 [Eh]
	 SCS Opposite-Spin Energy  =      -1.5608507223980643 [Eh]
	 SCS Correlation Energy    =      -1.7041465324827705 [Eh]
	 SCS Total Energy          =   -1189.3979597633917820 [Eh]
	-----------------------------------------------------------

  Dipole Moment: [D]
     X:     0.0000      Y:     2.0943      Z:     0.0019     Total:     2.0943

*** Psi4 exiting successfully. Buy a developer a beer!
