                               Psi4 1.4a3.dev225

  ==> Input File <==

--------------------------------------------------------------------------
#psi4
#
memory 32 gb

molecule  {
0 1
 Cl        2.7008340    -1.2489210     0.0016850
 Cl       -2.7008440    -1.2489040     0.0016850
  C       -0.1366855     1.7314626    -0.0950727
  C       -1.2072320     1.0139100    -0.0094880
  C        1.2072370     1.0139020    -0.0094890
  C        0.0000180     3.2280150     0.0131190
  C        1.1931300    -0.3798000    -0.0002610
  C       -1.1931340    -0.3797940    -0.0002610
  C       -0.0000050    -1.1002640     0.0063140
  H       -2.1570970     1.5426200    -0.0181830
  H        2.1571050     1.5426070    -0.0181850
  H        0.0002870     3.5975410     1.0439770
  H        0.8855000     3.6300440    -0.4862980
  H       -0.8857170     3.6300520    -0.4858430
  H       -0.0000070    -2.1855250     0.0098050
units angstrom
no_reorient  #important for SAPT in psi4, default
symmetry c1  #important for SAPT in psi4, default
}

set PROPERTIES_ORIGIN ["COM"]
properties('MP2/aug-cc-pvtz', properties = ['dipole'])
--------------------------------------------------------------------------

    Molecular point group: c1
  Charge       = 0
  Multiplicity = 1
  Basis Set: AUG-CC-PVTZ
    Blend: AUG-CC-PVTZ
  Basis Set: (AUG-CC-PVTZ AUX)
    Blend: AUG-CC-PVTZ-JKFIT

    Orbital Energies [Eh]
    ---------------------

    Doubly Occupied:

       1A   -104.850551     2A   -104.847638     3A    -11.319651
       4A    -11.315891     5A    -11.269667     6A    -11.264519
       7A    -11.261872     8A    -11.243754     9A    -11.242706
      10A    -10.574265    11A    -10.571494    12A     -8.041168
      13A     -8.039242    14A     -8.039232    15A     -8.038397
      16A     -8.036471    17A     -8.036464    18A     -1.212599
      19A     -1.160806    20A     -1.121415    21A     -1.044967
      22A     -0.997826    23A     -0.957641    24A     -0.835632
      25A     -0.803282    26A     -0.707918    27A     -0.679509
      28A     -0.628627    29A     -0.605045    30A     -0.597660
      31A     -0.585551    32A     -0.564104    33A     -0.556004
      34A     -0.539579    35A     -0.510750    36A     -0.494434
      37A     -0.463923    38A     -0.456630    39A     -0.452788
      40A     -0.360952    41A     -0.330374

  @DF-RHF Final Energy: -1187.67521399463953

   => Energetics <=

    Nuclear Repulsion Energy =            542.6877975412236310
    One-Electron Energy =               -2711.4040236372597974
    Two-Electron Energy =                 981.0410121013968592
    Total Energy =                      -1187.6752139946393072
  Basis Set: (AUG-CC-PVTZ AUX)
    Blend: AUG-CC-PVTZ-RI
    Molecular point group: c1

    Geometry (in Angstrom), charge = 0, multiplicity = 1:

       Center              X                  Y                   Z               Mass
    ------------   -----------------  -----------------  -----------------  -----------------
         CL           2.711087084130    -1.161615410316     0.007799287026    34.968852682000
         CL          -2.690590915870    -1.161598410316     0.007799287026    34.968852682000
         C           -0.126432415870     1.818768189684    -0.088958412974    12.000000000000
         C           -1.196978915870     1.101215589684    -0.003373712974    12.000000000000
         C            1.217490084130     1.101207589684    -0.003374712974    12.000000000000
         C            0.010271084130     3.315320589684     0.019233287026    12.000000000000
         C            1.203383084130    -0.292494410316     0.005853287026    12.000000000000
         C           -1.182880915870    -0.292488410316     0.005853287026    12.000000000000
         C            0.010248084130    -1.012958410316     0.012428287026    12.000000000000
         H           -2.146843915870     1.629925589684    -0.012068712974     1.007825032230
         H            2.167358084130     1.629912589684    -0.012070712974     1.007825032230
         H            0.010540084130     3.684846589684     1.050091287026     1.007825032230
         H            0.895753084130     3.717349589684    -0.480183712974     1.007825032230
         H           -0.875463915870     3.717357589684    -0.479728712974     1.007825032230
         H            0.010246084130    -2.098219410316     0.015919287026     1.007825032230

  Basis Set: AUG-CC-PVTZ
    Blend: AUG-CC-PVTZ
  Basis Set: (AUG-CC-PVTZ AUX)
    Blend: AUG-CC-PVTZ-JKFIT
	 Reference Energy          =   -1187.6752139946395346 [Eh]
	 Singles Energy            =      -0.0000000000000000 [Eh]
	 Same-Spin Energy          =      -0.4295167420790825 [Eh]
	 Opposite-Spin Energy      =      -1.3013127423441004 [Eh]
	 Correlation Energy        =      -1.7308294844231829 [Eh]
	 Total Energy              =   -1189.4060434790626459 [Eh]

	 ================> DF-SCS-MP2 Energies <==================
	-----------------------------------------------------------
	 SCS Same-Spin Scale       =       0.3333333333333333 [-]
	 SCS Opposite-Spin Scale   =       1.2000000000000000 [-]
	 SCS Same-Spin Energy      =      -0.1431722473596942 [Eh]
	 SCS Opposite-Spin Energy  =      -1.5615752908129206 [Eh]
	 SCS Correlation Energy    =      -1.7047475381726147 [Eh]
	 SCS Total Energy          =   -1189.3799615328121035 [Eh]
	-----------------------------------------------------------

  Dipole Moment: [D]
     X:    -0.0716      Y:     2.1188      Z:     0.0616     Total:     2.1209

*** Psi4 exiting successfully. Buy a developer a beer!
