                               Psi4 1.4a3.dev225

  ==> Input File <==

--------------------------------------------------------------------------
#psi4
#
memory 32 gb

molecule  {
0 1
 Cl        2.7008340    -1.2489210     0.0016850
 Cl       -2.7008440    -1.2489040     0.0016850
  C        0.0000030     1.7216440    -0.0170270
  C       -1.2072320     1.0139100    -0.0094880
  C        1.2072370     1.0139020    -0.0094890
  C        0.0000185     3.2780050     0.0141194
  C        1.1931300    -0.3798000    -0.0002610
  C       -1.1931340    -0.3797940    -0.0002610
  C       -0.0000050    -1.1002640     0.0063140
  H       -2.1570970     1.5426200    -0.0181830
  H        2.1571050     1.5426070    -0.0181850
  H        0.0002870     3.5975410     1.0439770
  H        0.8855000     3.6300440    -0.4862980
  H       -0.8857170     3.6300520    -0.4858430
  H       -0.0000070    -2.1855250     0.0098050
units angstrom
no_reorient  #important for SAPT in psi4, default
symmetry c1  #important for SAPT in psi4, default
}

set PROPERTIES_ORIGIN ["COM"]
properties('MP2/aug-cc-pvtz', properties = ['dipole'])
--------------------------------------------------------------------------

    Molecular point group: c1
  Charge       = 0
  Multiplicity = 1
  Basis Set: AUG-CC-PVTZ
    Blend: AUG-CC-PVTZ
  Basis Set: (AUG-CC-PVTZ AUX)
    Blend: AUG-CC-PVTZ-JKFIT

    Orbital Energies [Eh]
    ---------------------

    Doubly Occupied:

       1A   -104.849087     2A   -104.849087     3A    -11.318030
       4A    -11.318023     5A    -11.272873     6A    -11.260268
       7A    -11.254899     8A    -11.254849     9A    -11.240941
      10A    -10.572875    11A    -10.572875    12A     -8.039779
      13A     -8.039778    14A     -8.037852    15A     -8.037851
      16A     -8.037846    17A     -8.037845    18A     -1.211408
      19A     -1.160650    20A     -1.115260    21A     -1.040896
      22A     -0.997743    23A     -0.959780    24A     -0.822277
      25A     -0.816464    26A     -0.707221    27A     -0.681156
      28A     -0.623009    29A     -0.602094    30A     -0.594667
      31A     -0.589820    32A     -0.572293    33A     -0.558436
      34A     -0.519257    35A     -0.517061    36A     -0.510587
      37A     -0.464843    38A     -0.457761    39A     -0.452952
      40A     -0.346839    41A     -0.341619

  @DF-RHF Final Energy: -1187.69870470569549

   => Energetics <=

    Nuclear Repulsion Energy =            541.9251149619526586
    One-Electron Energy =               -2709.9299351036997905
    Two-Electron Energy =                 980.3061154360515275
    Total Energy =                      -1187.6987047056954907
  Basis Set: (AUG-CC-PVTZ AUX)
    Blend: AUG-CC-PVTZ-RI
    Molecular point group: c1

    Geometry (in Angstrom), charge = 0, multiplicity = 1:

       Center              X                  Y                   Z               Mass
    ------------   -----------------  -----------------  -----------------  -----------------
         CL           2.700834425872    -1.164628554285     0.001870260916    34.968852682000
         CL          -2.700843574128    -1.164611554285     0.001870260916    34.968852682000
         C            0.000003425872     1.805936445715    -0.016841739084    12.000000000000
         C           -1.207231574128     1.098202445715    -0.009302739084    12.000000000000
         C            1.207237425872     1.098194445715    -0.009303739084    12.000000000000
         C            0.000018925872     3.362297445715     0.014304660916    12.000000000000
         C            1.193130425872    -0.295507554285    -0.000075739084    12.000000000000
         C           -1.193133574128    -0.295501554285    -0.000075739084    12.000000000000
         C           -0.000004574128    -1.015971554285     0.006499260916    12.000000000000
         H           -2.157096574128     1.626912445715    -0.017997739084     1.007825032230
         H            2.157105425872     1.626899445715    -0.017999739084     1.007825032230
         H            0.000287425872     3.681833445715     1.044162260916     1.007825032230
         H            0.885500425872     3.714336445715    -0.486112739084     1.007825032230
         H           -0.885716574128     3.714344445715    -0.485657739084     1.007825032230
         H           -0.000006574128    -2.101232554285     0.009990260916     1.007825032230

  Basis Set: AUG-CC-PVTZ
    Blend: AUG-CC-PVTZ
  Basis Set: (AUG-CC-PVTZ AUX)
    Blend: AUG-CC-PVTZ-JKFIT
	 Reference Energy          =   -1187.6987047056954907 [Eh]
	 Singles Energy            =      -0.0000000000000000 [Eh]
	 Same-Spin Energy          =      -0.4295598599313716 [Eh]
	 Opposite-Spin Energy      =      -1.2997957164785221 [Eh]
	 Correlation Energy        =      -1.7293555764098938 [Eh]
	 Total Energy              =   -1189.4280602821054345 [Eh]

	 ================> DF-SCS-MP2 Energies <==================
	-----------------------------------------------------------
	 SCS Same-Spin Scale       =       0.3333333333333333 [-]
	 SCS Opposite-Spin Scale   =       1.2000000000000000 [-]
	 SCS Same-Spin Energy      =      -0.1431866199771239 [Eh]
	 SCS Opposite-Spin Energy  =      -1.5597548597742266 [Eh]
	 SCS Correlation Energy    =      -1.7029414797513505 [Eh]
	 SCS Total Energy          =   -1189.4016461854469071 [Eh]
	-----------------------------------------------------------

  Dipole Moment: [D]
     X:     0.0000      Y:     2.1327      Z:     0.0335     Total:     2.1330

*** Psi4 exiting successfully. Buy a developer a beer!
