                               Psi4 1.4a3.dev225

  ==> Input File <==

--------------------------------------------------------------------------
#psi4
#
memory 32 gb

molecule  {
0 1
 Cl        2.7008340    -1.2489210     0.0016850
 Cl       -2.7008440    -1.2489040     0.0016850
  C        0.0456400     1.7220386     0.0091041
  C       -1.2072320     1.0139100    -0.0094880
  C        1.2072370     1.0139020    -0.0094890
  C        0.0000180     3.2280150     0.0131190
  C        1.1931300    -0.3798000    -0.0002610
  C       -1.1931340    -0.3797940    -0.0002610
  C       -0.0000050    -1.1002640     0.0063140
  H       -2.1570970     1.5426200    -0.0181830
  H        2.1571050     1.5426070    -0.0181850
  H        0.0002870     3.5975410     1.0439770
  H        0.8855000     3.6300440    -0.4862980
  H       -0.8857170     3.6300520    -0.4858430
  H       -0.0000070    -2.1855250     0.0098050
units angstrom
no_reorient  #important for SAPT in psi4, default
symmetry c1  #important for SAPT in psi4, default
}

set PROPERTIES_ORIGIN ["COM"]
properties('MP2/aug-cc-pvtz', properties = ['dipole'])
--------------------------------------------------------------------------

    Molecular point group: c1
  Charge       = 0
  Multiplicity = 1
  Basis Set: AUG-CC-PVTZ
    Blend: AUG-CC-PVTZ
  Basis Set: (AUG-CC-PVTZ AUX)
    Blend: AUG-CC-PVTZ-JKFIT

    Orbital Energies [Eh]
    ---------------------

    Doubly Occupied:

       1A   -104.849684     2A   -104.848709     3A    -11.318769
       4A    -11.317497     5A    -11.270951     6A    -11.260379
       7A    -11.258415     8A    -11.250963     9A    -11.241985
      10A    -10.573445    11A    -10.572518    12A     -8.040348
      13A     -8.039421    14A     -8.038422    15A     -8.038414
      16A     -8.037494    17A     -8.037488    18A     -1.212132
      19A     -1.160776    20A     -1.118957    21A     -1.043761
      22A     -0.998155    23A     -0.958643    24A     -0.825931
      25A     -0.812970    26A     -0.707487    27A     -0.681931
      28A     -0.627016    29A     -0.598423    30A     -0.597557
      31A     -0.591368    32A     -0.563665    33A     -0.556076
      34A     -0.529633    35A     -0.512690    36A     -0.510534
      37A     -0.465755    38A     -0.457701    39A     -0.452218
      40A     -0.349633    41A     -0.338526

  @DF-RHF Final Energy: -1187.69761604188852

   => Energetics <=

    Nuclear Repulsion Energy =            542.8354926822927382
    One-Electron Energy =               -2711.7333409349339490
    Two-Electron Energy =                 981.2002322107529153
    Total Energy =                      -1187.6976160418885229
  Basis Set: (AUG-CC-PVTZ AUX)
    Blend: AUG-CC-PVTZ-RI
    Molecular point group: c1

    Geometry (in Angstrom), charge = 0, multiplicity = 1:

       Center              X                  Y                   Z               Mass
    ------------   -----------------  -----------------  -----------------  -----------------
         CL           2.697411360090    -1.160908542526    -0.000014722359    34.968852682000
         CL          -2.704266639910    -1.160891542526    -0.000014722359    34.968852682000
         C            0.042217360090     1.810051057474     0.007404377641    12.000000000000
         C           -1.210654639910     1.101922457474    -0.011187722359    12.000000000000
         C            1.203814360090     1.101914457474    -0.011188722359    12.000000000000
         C           -0.003404639910     3.316027457474     0.011419277641    12.000000000000
         C            1.189707360090    -0.291787542526    -0.001960722359    12.000000000000
         C           -1.196556639910    -0.291781542526    -0.001960722359    12.000000000000
         C           -0.003427639910    -1.012251542526     0.004614277641    12.000000000000
         H           -2.160519639910     1.630632457474    -0.019882722359     1.007825032230
         H            2.153682360090     1.630619457474    -0.019884722359     1.007825032230
         H           -0.003135639910     3.685553457474     1.042277277641     1.007825032230
         H            0.882077360090     3.718056457474    -0.487997722359     1.007825032230
         H           -0.889139639910     3.718064457474    -0.487542722359     1.007825032230
         H           -0.003429639910    -2.097512542526     0.008105277641     1.007825032230

  Basis Set: AUG-CC-PVTZ
    Blend: AUG-CC-PVTZ
  Basis Set: (AUG-CC-PVTZ AUX)
    Blend: AUG-CC-PVTZ-JKFIT
	 Reference Energy          =   -1187.6976160418885229 [Eh]
	 Singles Energy            =      -0.0000000000000000 [Eh]
	 Same-Spin Energy          =      -0.4298165728153236 [Eh]
	 Opposite-Spin Energy      =      -1.3001334056633260 [Eh]
	 Correlation Energy        =      -1.7299499784786496 [Eh]
	 Total Energy              =   -1189.4275660203670668 [Eh]

	 ================> DF-SCS-MP2 Energies <==================
	-----------------------------------------------------------
	 SCS Same-Spin Scale       =       0.3333333333333333 [-]
	 SCS Opposite-Spin Scale   =       1.2000000000000000 [-]
	 SCS Same-Spin Energy      =      -0.1432721909384412 [Eh]
	 SCS Opposite-Spin Energy  =      -1.5601600867959913 [Eh]
	 SCS Correlation Energy    =      -1.7034322777344324 [Eh]
	 SCS Total Energy          =   -1189.4010483196229870 [Eh]
	-----------------------------------------------------------

  Dipole Moment: [D]
     X:     0.0209      Y:     2.1467      Z:     0.0265     Total:     2.1470

*** Psi4 exiting successfully. Buy a developer a beer!
