                               Psi4 1.4a3.dev225

  ==> Input File <==

--------------------------------------------------------------------------
#psi4
#
memory 32 gb

molecule  {
0 1
 Cl        2.7008340    -1.2489210     0.0016850
 Cl       -2.7008440    -1.2489040     0.0016850
  C       -0.0456340     1.7230847    -0.0431213
  C       -1.2072320     1.0139100    -0.0094880
  C        1.2072370     1.0139020    -0.0094890
  C        0.0000180     3.2280150     0.0131190
  C        1.1931300    -0.3798000    -0.0002610
  C       -1.1931340    -0.3797940    -0.0002610
  C       -0.0000050    -1.1002640     0.0063140
  H       -2.1570970     1.5426200    -0.0181830
  H        2.1571050     1.5426070    -0.0181850
  H        0.0002870     3.5975410     1.0439770
  H        0.8855000     3.6300440    -0.4862980
  H       -0.8857170     3.6300520    -0.4858430
  H       -0.0000070    -2.1855250     0.0098050
units angstrom
no_reorient  #important for SAPT in psi4, default
symmetry c1  #important for SAPT in psi4, default
}

set PROPERTIES_ORIGIN ["COM"]
properties('MP2/aug-cc-pvtz', properties = ['dipole'])
--------------------------------------------------------------------------

    Molecular point group: c1
  Charge       = 0
  Multiplicity = 1
  Basis Set: AUG-CC-PVTZ
    Blend: AUG-CC-PVTZ
  Basis Set: (AUG-CC-PVTZ AUX)
    Blend: AUG-CC-PVTZ-JKFIT

    Orbital Energies [Eh]
    ---------------------

    Doubly Occupied:

       1A   -104.849735     2A   -104.848755     3A    -11.318814
       4A    -11.317540     5A    -11.270905     6A    -11.260687
       7A    -11.258600     8A    -11.251222     9A    -11.241912
      10A    -10.573497    11A    -10.572565    12A     -8.040400
      13A     -8.039468    14A     -8.038473    15A     -8.038465
      16A     -8.037540    17A     -8.037535    18A     -1.212129
      19A     -1.160836    20A     -1.118828    21A     -1.043806
      22A     -0.998116    23A     -0.958557    24A     -0.825961
      25A     -0.812989    26A     -0.707549    27A     -0.681980
      28A     -0.626879    29A     -0.599330    30A     -0.596617
      31A     -0.591140    32A     -0.563577    33A     -0.555946
      34A     -0.529765    35A     -0.512315    36A     -0.510694
      37A     -0.465857    38A     -0.457753    39A     -0.452202
      40A     -0.349771    41A     -0.338605

  @DF-RHF Final Energy: -1187.69734043418975

   => Energetics <=

    Nuclear Repulsion Energy =            542.8005391190782802
    One-Electron Energy =               -2711.6611272593163449
    Two-Electron Energy =                 981.1632477060484234
    Total Energy =                      -1187.6973404341897549
  Basis Set: (AUG-CC-PVTZ AUX)
    Blend: AUG-CC-PVTZ-RI
    Molecular point group: c1

    Geometry (in Angstrom), charge = 0, multiplicity = 1:

       Center              X                  Y                   Z               Mass
    ------------   -----------------  -----------------  -----------------  -----------------
         CL           2.704257566660    -1.160987007551     0.003902558319    34.968852682000
         CL          -2.697420433340    -1.160970007551     0.003902558319    34.968852682000
         C           -0.042210433340     1.811018692449    -0.040903741681    12.000000000000
         C           -1.203808433340     1.101843992449    -0.007270441681    12.000000000000
         C            1.210660566660     1.101835992449    -0.007271441681    12.000000000000
         C            0.003441566660     3.315948992449     0.015336558319    12.000000000000
         C            1.196553566660    -0.291866007551     0.001956558319    12.000000000000
         C           -1.189710433340    -0.291860007551     0.001956558319    12.000000000000
         C            0.003418566660    -1.012330007551     0.008531558319    12.000000000000
         H           -2.153673433340     1.630553992449    -0.015965441681     1.007825032230
         H            2.160528566660     1.630540992449    -0.015967441681     1.007825032230
         H            0.003710566660     3.685474992449     1.046194558319     1.007825032230
         H            0.888923566660     3.717977992449    -0.484080441681     1.007825032230
         H           -0.882293433340     3.717985992449    -0.483625441681     1.007825032230
         H            0.003416566660    -2.097591007551     0.012022558319     1.007825032230

  Basis Set: AUG-CC-PVTZ
    Blend: AUG-CC-PVTZ
  Basis Set: (AUG-CC-PVTZ AUX)
    Blend: AUG-CC-PVTZ-JKFIT
	 Reference Energy          =   -1187.6973404341897549 [Eh]
	 Singles Energy            =      -0.0000000000000000 [Eh]
	 Same-Spin Energy          =      -0.4298404536197867 [Eh]
	 Opposite-Spin Energy      =      -1.3001867191639547 [Eh]
	 Correlation Energy        =      -1.7300271727837413 [Eh]
	 Total Energy              =   -1189.4273676069735757 [Eh]

	 ================> DF-SCS-MP2 Energies <==================
	-----------------------------------------------------------
	 SCS Same-Spin Scale       =       0.3333333333333333 [-]
	 SCS Opposite-Spin Scale   =       1.2000000000000000 [-]
	 SCS Same-Spin Energy      =      -0.1432801512065956 [Eh]
	 SCS Opposite-Spin Energy  =      -1.5602240629967457 [Eh]
	 SCS Correlation Energy    =      -1.7035042142033412 [Eh]
	 SCS Total Energy          =   -1189.4008446483931039 [Eh]
	-----------------------------------------------------------

  Dipole Moment: [D]
     X:    -0.0215      Y:     2.1299      Z:     0.0445     Total:     2.1305

*** Psi4 exiting successfully. Buy a developer a beer!
