                               Psi4 1.3.2 release

  ==> Input File <==

--------------------------------------------------------------------------
#psi4
#
memory 32 gb

molecule  {
0 1
  C        0.6683150    -0.0000330    -0.0001220
  H        1.2908369    -1.0085974     0.0004623
  H        1.2381380     0.9235610     0.0003570
  C       -0.6684070    -0.0000260    -0.0001490
  H       -1.2382130    -0.9235440     0.0004000
  H       -1.2376890     0.9238410     0.0004570
units angstrom
no_reorient  #important for SAPT in psi4, default
symmetry c1  #important for SAPT in psi4, default
}

set PROPERTIES_ORIGIN ["COM"]
properties('MP2/aug-cc-pvtz', properties = ['dipole'])
--------------------------------------------------------------------------

    Molecular point group: c1
  Charge       = 0
  Multiplicity = 1
  Basis Set: AUG-CC-PVTZ
    Blend: AUG-CC-PVTZ
  Basis Set: (AUG-CC-PVTZ AUX)
    Blend: AUG-CC-PVTZ-JKFIT

    Orbital Energies [Eh]
    ---------------------

    Doubly Occupied:

       1A    -11.244339     2A    -11.233691     3A     -1.030161
       4A     -0.784978     5A     -0.635010     6A     -0.584588
       7A     -0.498212     8A     -0.377491

  @DF-RHF Final Energy:   -78.05729005467468

   => Energetics <=

    Nuclear Repulsion Energy =             32.9659584965313996
    One-Electron Energy =                -169.2695559514363595
    Two-Electron Energy =                  58.2463074002302719
    Total Energy =                        -78.0572900546746666
  Basis Set: (AUG-CC-PVTZ AUX)
    Blend: AUG-CC-PVTZ-RI
    Molecular point group: c1

    Geometry (in Angstrom), charge = 0, multiplicity = 1:

       Center              X                  Y                   Z               Mass
    ------------   -----------------  -----------------  -----------------  -----------------
         C            0.666446224848     0.003038940586    -0.000066255782    12.000000000000
         H            1.288968124848    -1.005525459414     0.000518044218     1.007825032230
         H            1.236269224848     0.926632940586     0.000412744218     1.007825032230
         C           -0.670275775152     0.003045940586    -0.000093255782    12.000000000000
         H           -1.240081775152    -0.920472059414     0.000455744218     1.007825032230
         H           -1.239557775152     0.926912940586     0.000512744218     1.007825032230

  Basis Set: AUG-CC-PVTZ
    Blend: AUG-CC-PVTZ
  Basis Set: (AUG-CC-PVTZ AUX)
    Blend: AUG-CC-PVTZ-JKFIT
	 Reference Energy          =     -78.0572900546746808 [Eh]
	 Singles Energy            =      -0.0000000000000000 [Eh]
	 Same-Spin Energy          =      -0.0766436277567227 [Eh]
	 Opposite-Spin Energy      =      -0.2994504738307970 [Eh]
	 Correlation Energy        =      -0.3760941015875197 [Eh]
	 Total Energy              =     -78.4333841562622069 [Eh]

	 ================> DF-SCS-MP2 Energies <==================
	-----------------------------------------------------------
	 SCS Same-Spin Scale       =       0.3333333333333333 [-]
	 SCS Opposite-Spin Scale   =       1.2000000000000000 [-]
	 SCS Same-Spin Energy      =      -0.0255478759189076 [Eh]
	 SCS Opposite-Spin Energy  =      -0.3593405685969565 [Eh]
	 SCS Correlation Energy    =      -0.3848884445158640 [Eh]
	 SCS Total Energy          =     -78.4421784991905469 [Eh]
	-----------------------------------------------------------

  Dipole Moment: [D]
     X:    -0.0295      Y:     0.0320      Z:     0.0015     Total:     0.0435

*** Psi4 exiting successfully. Buy a developer a beer!
