                               Psi4 1.3.2 release

  ==> Input File <==

--------------------------------------------------------------------------
#psi4
#
memory 32 gb

molecule  {
0 1
  C        0.6683150    -0.0000330    -0.0001220
  H        1.1725066    -0.9610135     0.0003556
  H        1.2381380     0.9235610     0.0003570
  C       -0.6684070    -0.0000260    -0.0001490
  H       -1.2382130    -0.9235440     0.0004000
  H       -1.2376890     0.9238410     0.0004570
units angstrom
no_reorient  #important for SAPT in psi4, default
symmetry c1  #important for SAPT in psi4, default
}

set PROPERTIES_ORIGIN ["COM"]
properties('MP2/aug-cc-pvtz', properties = ['dipole'])
--------------------------------------------------------------------------

    Molecular point group: c1
  Charge       = 0
  Multiplicity = 1
  Basis Set: AUG-CC-PVTZ
    Blend: AUG-CC-PVTZ
  Basis Set: (AUG-CC-PVTZ AUX)
    Blend: AUG-CC-PVTZ-JKFIT

    Orbital Energies [Eh]
    ---------------------

    Doubly Occupied:

       1A    -11.232884     2A    -11.231118     3A     -1.033545
       4A     -0.790541     5A     -0.645765     6A     -0.583392
       7A     -0.509108     8A     -0.376282

  @DF-RHF Final Energy:   -78.06375970532208

   => Energetics <=

    Nuclear Repulsion Energy =             33.3247754643033289
    One-Electron Energy =                -169.9718015448545714
    Two-Electron Energy =                  58.5832663752291793
    Total Energy =                        -78.0637597053220702
  Basis Set: (AUG-CC-PVTZ AUX)
    Blend: AUG-CC-PVTZ-RI
    Molecular point group: c1

    Geometry (in Angstrom), charge = 0, multiplicity = 1:

       Center              X                  Y                   Z               Mass
    ------------   -----------------  -----------------  -----------------  -----------------
         C            0.670700620394     0.001328129980    -0.000062419537    12.000000000000
         H            1.174892220394    -0.959652370020     0.000415180463     1.007825032230
         H            1.240523620394     0.924922129980     0.000416580463     1.007825032230
         C           -0.666021379606     0.001335129980    -0.000089419537    12.000000000000
         H           -1.235827379606    -0.922182870020     0.000459580463     1.007825032230
         H           -1.235303379606     0.925202129980     0.000516580463     1.007825032230

  Basis Set: AUG-CC-PVTZ
    Blend: AUG-CC-PVTZ
  Basis Set: (AUG-CC-PVTZ AUX)
    Blend: AUG-CC-PVTZ-JKFIT
	 Reference Energy          =     -78.0637597053220844 [Eh]
	 Singles Energy            =      -0.0000000000000000 [Eh]
	 Same-Spin Energy          =      -0.0766422564960518 [Eh]
	 Opposite-Spin Energy      =      -0.2988527926418884 [Eh]
	 Correlation Energy        =      -0.3754950491379401 [Eh]
	 Total Energy              =     -78.4392547544600234 [Eh]

	 ================> DF-SCS-MP2 Energies <==================
	-----------------------------------------------------------
	 SCS Same-Spin Scale       =       0.3333333333333333 [-]
	 SCS Opposite-Spin Scale   =       1.2000000000000000 [-]
	 SCS Same-Spin Energy      =      -0.0255474188320173 [Eh]
	 SCS Opposite-Spin Energy  =      -0.3586233511702660 [Eh]
	 SCS Correlation Energy    =      -0.3841707700022833 [Eh]
	 SCS Total Energy          =     -78.4479304753243696 [Eh]
	-----------------------------------------------------------

  Dipole Moment: [D]
     X:    -0.0165      Y:     0.0007      Z:     0.0015     Total:     0.0166

*** Psi4 exiting successfully. Buy a developer a beer!
