                               Psi4 1.3.2 release

  ==> Input File <==

--------------------------------------------------------------------------
#psi4
#
memory 32 gb

molecule  {
0 1
  C        0.6683150    -0.0000330    -0.0001220
  H        1.2383130    -0.9235020     0.0004130
  H        1.2381380     0.9235610     0.0003570
  C       -0.8684070    -0.0000250    -0.0001530
  H       -1.2382130    -0.9235440     0.0004000
  H       -1.2376890     0.9238410     0.0004570
units angstrom
no_reorient  #important for SAPT in psi4, default
symmetry c1  #important for SAPT in psi4, default
}

set PROPERTIES_ORIGIN ["COM"]
properties('MP2/aug-cc-pvtz', properties = ['dipole'])
--------------------------------------------------------------------------

    Molecular point group: c1
  Charge       = 0
  Multiplicity = 1
  Basis Set: AUG-CC-PVTZ
    Blend: AUG-CC-PVTZ
  Basis Set: (AUG-CC-PVTZ AUX)
    Blend: AUG-CC-PVTZ-JKFIT

    Orbital Energies [Eh]
    ---------------------

    Doubly Occupied:

       1A    -11.263816     2A    -11.246806     3A     -0.998725
       4A     -0.823274     5A     -0.670118     6A     -0.554939
       7A     -0.536398     8A     -0.336552

  @DF-RHF Final Energy:   -78.00760653225072

   => Energetics <=

    Nuclear Repulsion Energy =             31.7325202319495858
    One-Electron Energy =                -166.6190006003359372
    Two-Electron Energy =                  56.8788738361356181
    Total Energy =                        -78.0076065322507191
  Basis Set: (AUG-CC-PVTZ AUX)
    Blend: AUG-CC-PVTZ-RI
    Molecular point group: c1

    Geometry (in Angstrom), charge = 0, multiplicity = 1:

       Center              X                  Y                   Z               Mass
    ------------   -----------------  -----------------  -----------------  -----------------
         C            0.753953222024    -0.000020970080    -0.000062770900    12.000000000000
         H            1.323951222024    -0.923489970080     0.000472229100     1.007825032230
         H            1.323776222024     0.923573029920     0.000416229100     1.007825032230
         C           -0.782768777976    -0.000012970080    -0.000093770900    12.000000000000
         H           -1.152574777976    -0.923531970080     0.000459229100     1.007825032230
         H           -1.152050777976     0.923853029920     0.000516229100     1.007825032230

  Basis Set: AUG-CC-PVTZ
    Blend: AUG-CC-PVTZ
  Basis Set: (AUG-CC-PVTZ AUX)
    Blend: AUG-CC-PVTZ-JKFIT
	 Reference Energy          =     -78.0076065322507191 [Eh]
	 Singles Energy            =      -0.0000000000000000 [Eh]
	 Same-Spin Energy          =      -0.0789238805440488 [Eh]
	 Opposite-Spin Energy      =      -0.3063889321572552 [Eh]
	 Correlation Energy        =      -0.3853128127013039 [Eh]
	 Total Energy              =     -78.3929193449520199 [Eh]

	 ================> DF-SCS-MP2 Energies <==================
	-----------------------------------------------------------
	 SCS Same-Spin Scale       =       0.3333333333333333 [-]
	 SCS Opposite-Spin Scale   =       1.2000000000000000 [-]
	 SCS Same-Spin Energy      =      -0.0263079601813496 [Eh]
	 SCS Opposite-Spin Energy  =      -0.3676667185887062 [Eh]
	 SCS Correlation Energy    =      -0.3939746787700558 [Eh]
	 SCS Total Energy          =     -78.4015812110207690 [Eh]
	-----------------------------------------------------------

  Dipole Moment: [D]
     X:     0.0492      Y:     0.0000      Z:     0.0016     Total:     0.0492

*** Psi4 exiting successfully. Buy a developer a beer!
