                               Psi4 1.3.2 release

  ==> Input File <==

--------------------------------------------------------------------------
#psi4
#
memory 32 gb

molecule  {
0 1
  C        0.6683150    -0.0000330    -0.0001220
  H        1.1857891    -0.8384066     0.0003637
  H        1.2381380     0.9235610     0.0003570
  C       -0.6684070    -0.0000260    -0.0001490
  H       -1.2382130    -0.9235440     0.0004000
  H       -1.2376890     0.9238410     0.0004570
units angstrom
no_reorient  #important for SAPT in psi4, default
symmetry c1  #important for SAPT in psi4, default
}

set PROPERTIES_ORIGIN ["COM"]
properties('MP2/aug-cc-pvtz', properties = ['dipole'])
--------------------------------------------------------------------------

    Molecular point group: c1
  Charge       = 0
  Multiplicity = 1
  Basis Set: AUG-CC-PVTZ
    Blend: AUG-CC-PVTZ
  Basis Set: (AUG-CC-PVTZ AUX)
    Blend: AUG-CC-PVTZ-JKFIT

    Orbital Energies [Eh]
    ---------------------

    Doubly Occupied:

       1A    -11.232092     2A    -11.220450     3A     -1.037132
       4A     -0.805230     5A     -0.650682     6A     -0.591506
       7A     -0.513968     8A     -0.375750

  @DF-RHF Final Energy:   -78.05789603899629

   => Energetics <=

    Nuclear Repulsion Energy =             33.6750019603055151
    One-Electron Energy =                -170.6121759297713822
    Two-Electron Energy =                  58.8792779304695770
    Total Energy =                        -78.0578960389962901
  Basis Set: (AUG-CC-PVTZ AUX)
    Blend: AUG-CC-PVTZ-RI
    Molecular point group: c1

    Geometry (in Angstrom), charge = 0, multiplicity = 1:

       Center              X                  Y                   Z               Mass
    ------------   -----------------  -----------------  -----------------  -----------------
         C            0.670223067233    -0.003080024561    -0.000062710761    12.000000000000
         H            1.187697167233    -0.841453624561     0.000422989239     1.007825032230
         H            1.240046067233     0.920513975439     0.000416289239     1.007825032230
         C           -0.666498932767    -0.003073024561    -0.000089710761    12.000000000000
         H           -1.236304932767    -0.926591024561     0.000459289239     1.007825032230
         H           -1.235780932767     0.920793975439     0.000516289239     1.007825032230

  Basis Set: AUG-CC-PVTZ
    Blend: AUG-CC-PVTZ
  Basis Set: (AUG-CC-PVTZ AUX)
    Blend: AUG-CC-PVTZ-JKFIT
	 Reference Energy          =     -78.0578960389962901 [Eh]
	 Singles Energy            =      -0.0000000000000000 [Eh]
	 Same-Spin Energy          =      -0.0765540711322241 [Eh]
	 Opposite-Spin Energy      =      -0.2984764998173291 [Eh]
	 Correlation Energy        =      -0.3750305709495532 [Eh]
	 Total Energy              =     -78.4329266099458380 [Eh]

	 ================> DF-SCS-MP2 Energies <==================
	-----------------------------------------------------------
	 SCS Same-Spin Scale       =       0.3333333333333333 [-]
	 SCS Opposite-Spin Scale   =       1.2000000000000000 [-]
	 SCS Same-Spin Energy      =      -0.0255180237107414 [Eh]
	 SCS Opposite-Spin Energy  =      -0.3581717997807949 [Eh]
	 SCS Correlation Energy    =      -0.3836898234915362 [Eh]
	 SCS Total Energy          =     -78.4415858624878268 [Eh]
	-----------------------------------------------------------

  Dipole Moment: [D]
     X:     0.0182      Y:    -0.0214      Z:     0.0015     Total:     0.0282

*** Psi4 exiting successfully. Buy a developer a beer!
