                               Psi4 1.3.2 release

  ==> Input File <==

--------------------------------------------------------------------------
#psi4
#
memory 32 gb

molecule  {
0 1
  C        0.6683150    -0.0000330    -0.0001220
  H        1.2221094    -0.9333092     0.0003989
  H        1.2381380     0.9235610     0.0003570
  C       -0.6684070    -0.0000260    -0.0001490
  H       -1.2382130    -0.9235440     0.0004000
  H       -1.2376890     0.9238410     0.0004570
units angstrom
no_reorient  #important for SAPT in psi4, default
symmetry c1  #important for SAPT in psi4, default
}

set PROPERTIES_ORIGIN ["COM"]
properties('MP2/aug-cc-pvtz', properties = ['dipole'])
--------------------------------------------------------------------------

    Molecular point group: c1
  Charge       = 0
  Multiplicity = 1
  Basis Set: AUG-CC-PVTZ
    Blend: AUG-CC-PVTZ
  Basis Set: (AUG-CC-PVTZ AUX)
    Blend: AUG-CC-PVTZ-JKFIT

    Orbital Energies [Eh]
    ---------------------

    Doubly Occupied:

       1A    -11.233365     2A    -11.231675     3A     -1.032852
       4A     -0.792543     5A     -0.642820     6A     -0.587027
       7A     -0.507779     8A     -0.376381

  @DF-RHF Final Energy:   -78.06427115671633

   => Energetics <=

    Nuclear Repulsion Energy =             33.3004845883691516
    One-Electron Energy =                -169.9206280827614819
    Two-Electron Energy =                  58.5558723376759929
    Total Energy =                        -78.0642711567163303
  Basis Set: (AUG-CC-PVTZ AUX)
    Blend: AUG-CC-PVTZ-RI
    Molecular point group: c1

    Geometry (in Angstrom), charge = 0, multiplicity = 1:

       Center              X                  Y                   Z               Mass
    ------------   -----------------  -----------------  -----------------  -----------------
         C            0.668917223146     0.000332061767    -0.000063976327    12.000000000000
         H            1.222711623146    -0.932944138233     0.000456923673     1.007825032230
         H            1.238740223146     0.923926061767     0.000415023673     1.007825032230
         C           -0.667804776854     0.000339061767    -0.000090976327    12.000000000000
         H           -1.237610776854    -0.923178938233     0.000458023673     1.007825032230
         H           -1.237086776854     0.924206061767     0.000515023673     1.007825032230

  Basis Set: AUG-CC-PVTZ
    Blend: AUG-CC-PVTZ
  Basis Set: (AUG-CC-PVTZ AUX)
    Blend: AUG-CC-PVTZ-JKFIT
	 Reference Energy          =     -78.0642711567163303 [Eh]
	 Singles Energy            =      -0.0000000000000000 [Eh]
	 Same-Spin Energy          =      -0.0765817392561174 [Eh]
	 Opposite-Spin Energy      =      -0.2987737894754520 [Eh]
	 Correlation Energy        =      -0.3753555287315694 [Eh]
	 Total Energy              =     -78.4396266854479052 [Eh]

	 ================> DF-SCS-MP2 Energies <==================
	-----------------------------------------------------------
	 SCS Same-Spin Scale       =       0.3333333333333333 [-]
	 SCS Opposite-Spin Scale   =       1.2000000000000000 [-]
	 SCS Same-Spin Energy      =      -0.0255272464187058 [Eh]
	 SCS Opposite-Spin Energy  =      -0.3585285473705423 [Eh]
	 SCS Correlation Energy    =      -0.3840557937892481 [Eh]
	 SCS Total Energy          =     -78.4483269505055745 [Eh]
	-----------------------------------------------------------

  Dipole Moment: [D]
     X:    -0.0040      Y:    -0.0001      Z:     0.0015     Total:     0.0043

*** Psi4 exiting successfully. Buy a developer a beer!
