                               Psi4 1.3.2 release

  ==> Input File <==

--------------------------------------------------------------------------
#psi4
#
memory 32 gb

molecule  {
0 1
  C        0.6683150    -0.0000330    -0.0001220
  H        1.3317193    -0.8588621     0.0004941
  H        1.2381380     0.9235610     0.0003570
  C       -0.6684070    -0.0000260    -0.0001490
  H       -1.2382130    -0.9235440     0.0004000
  H       -1.2376890     0.9238410     0.0004570
units angstrom
no_reorient  #important for SAPT in psi4, default
symmetry c1  #important for SAPT in psi4, default
}

set PROPERTIES_ORIGIN ["COM"]
properties('MP2/aug-cc-pvtz', properties = ['dipole'])
--------------------------------------------------------------------------

    Molecular point group: c1
  Charge       = 0
  Multiplicity = 1
  Basis Set: AUG-CC-PVTZ
    Blend: AUG-CC-PVTZ
  Basis Set: (AUG-CC-PVTZ AUX)
    Blend: AUG-CC-PVTZ-JKFIT

    Orbital Energies [Eh]
    ---------------------

    Doubly Occupied:

       1A    -11.234832     2A    -11.232931     3A     -1.031725
       4A     -0.797528     5A     -0.636386     6A     -0.595677
       7A     -0.502567     8A     -0.376775

  @DF-RHF Final Energy:   -78.06277318611529

   => Energetics <=

    Nuclear Repulsion Energy =             33.2529623464036561
    One-Electron Energy =                -169.8146308015761008
    Two-Electron Energy =                  58.4988952690571580
    Total Energy =                        -78.0627731861152938
  Basis Set: (AUG-CC-PVTZ AUX)
    Blend: AUG-CC-PVTZ-RI
    Molecular point group: c1

    Geometry (in Angstrom), charge = 0, multiplicity = 1:

       Center              X                  Y                   Z               Mass
    ------------   -----------------  -----------------  -----------------  -----------------
         C            0.664976357025    -0.002344576513    -0.000067399105    12.000000000000
         H            1.328380657025    -0.861173676513     0.000548700895     1.007825032230
         H            1.234799357025     0.921249423487     0.000411600895     1.007825032230
         C           -0.671745642975    -0.002337576513    -0.000094399105    12.000000000000
         H           -1.241551642975    -0.925855576513     0.000454600895     1.007825032230
         H           -1.241027642975     0.921529423487     0.000511600895     1.007825032230

  Basis Set: AUG-CC-PVTZ
    Blend: AUG-CC-PVTZ
  Basis Set: (AUG-CC-PVTZ AUX)
    Blend: AUG-CC-PVTZ-JKFIT
	 Reference Energy          =     -78.0627731861152938 [Eh]
	 Singles Energy            =      -0.0000000000000000 [Eh]
	 Same-Spin Energy          =      -0.0765530529002524 [Eh]
	 Opposite-Spin Energy      =      -0.2987995110978439 [Eh]
	 Correlation Energy        =      -0.3753525639980963 [Eh]
	 Total Energy              =     -78.4381257501133859 [Eh]

	 ================> DF-SCS-MP2 Energies <==================
	-----------------------------------------------------------
	 SCS Same-Spin Scale       =       0.3333333333333333 [-]
	 SCS Opposite-Spin Scale   =       1.2000000000000000 [-]
	 SCS Same-Spin Energy      =      -0.0255176843000841 [Eh]
	 SCS Opposite-Spin Energy  =      -0.3585594133174126 [Eh]
	 SCS Correlation Energy    =      -0.3840770976174968 [Eh]
	 SCS Total Energy          =     -78.4468502837327861 [Eh]
	-----------------------------------------------------------

  Dipole Moment: [D]
     X:     0.0254      Y:     0.0053      Z:     0.0015     Total:     0.0260

*** Psi4 exiting successfully. Buy a developer a beer!
