                               Psi4 1.4a3.dev225

  ==> Input File <==

--------------------------------------------------------------------------
#psi4
#
memory 32 gb

molecule  {
0 1
  C       -0.6681870    -0.0000010    -0.0000020
  H       -1.2487988     0.9402882     0.0000072
  H       -1.2383020    -0.9232630     0.0000060
  C        0.6681890     0.0000000    -0.0000020
  H        1.2382930     0.9232680     0.0000050
  H        1.2382880    -0.9232740     0.0000060
units angstrom
no_reorient  #important for SAPT in psi4, default
symmetry c1  #important for SAPT in psi4, default
}

set PROPERTIES_ORIGIN ["COM"]
properties('MP2/aug-cc-pvtz', properties = ['dipole'])
--------------------------------------------------------------------------

    Molecular point group: c1
  Charge       = 0
  Multiplicity = 1
  Basis Set: AUG-CC-PVTZ
    Blend: AUG-CC-PVTZ
  Basis Set: (AUG-CC-PVTZ AUX)
    Blend: AUG-CC-PVTZ-JKFIT

    Orbital Energies [Eh]
    ---------------------

    Doubly Occupied:

       1A    -11.235291     2A    -11.232523     3A     -1.032105
       4A     -0.791361     5A     -0.640268     6A     -0.587733
       7A     -0.505507     8A     -0.376688

  @DF-RHF Final Energy:   -78.06375142445989

   => Energetics <=

    Nuclear Repulsion Energy =             33.2287399360628584
    One-Electron Energy =                -169.7820326787396255
    Two-Electron Energy =                  58.4895413182168866
    Total Energy =                        -78.0637514244598947
  Basis Set: (AUG-CC-PVTZ AUX)
    Blend: AUG-CC-PVTZ-RI
    Molecular point group: c1

    Geometry (in Angstrom), charge = 0, multiplicity = 1:

       Center              X                  Y                   Z               Mass
    ------------   -----------------  -----------------  -----------------  -----------------
         C           -0.667809631925    -0.000612472736    -0.000001157705    12.000000000000
         H           -1.248421431925     0.939676727264     0.000008042295     1.007825032230
         H           -1.237924631925    -0.923874472736     0.000006842295     1.007825032230
         C            0.668566368075    -0.000611472736    -0.000001157705    12.000000000000
         H            1.238670368075     0.922656527264     0.000005842295     1.007825032230
         H            1.238665368075    -0.923885472736     0.000006842295     1.007825032230

  Basis Set: AUG-CC-PVTZ
    Blend: AUG-CC-PVTZ
  Basis Set: (AUG-CC-PVTZ AUX)
    Blend: AUG-CC-PVTZ-JKFIT
	 Reference Energy          =     -78.0637514244598947 [Eh]
	 Singles Energy            =      -0.0000000000000000 [Eh]
	 Same-Spin Energy          =      -0.0765762687030212 [Eh]
	 Opposite-Spin Energy      =      -0.2988543212641955 [Eh]
	 Correlation Energy        =      -0.3754305899672167 [Eh]
	 Total Energy              =     -78.4391820144271179 [Eh]

	 ================> DF-SCS-MP2 Energies <==================
	-----------------------------------------------------------
	 SCS Same-Spin Scale       =       0.3333333333333333 [-]
	 SCS Opposite-Spin Scale   =       1.2000000000000000 [-]
	 SCS Same-Spin Energy      =      -0.0255254229010071 [Eh]
	 SCS Opposite-Spin Energy  =      -0.3586251855170345 [Eh]
	 SCS Correlation Energy    =      -0.3841506084180416 [Eh]
	 SCS Total Energy          =     -78.4479020328779342 [Eh]
	-----------------------------------------------------------

  Dipole Moment: [D]
     X:     0.0050      Y:    -0.0056      Z:     0.0000     Total:     0.0075

*** Psi4 exiting successfully. Buy a developer a beer!
