                               Psi4 1.3.2 release

  ==> Input File <==

--------------------------------------------------------------------------
#psi4
#
memory 32 gb

molecule  {
0 1
  C        0.6683150    -0.0000330    -0.0001220
  H        1.2383130    -0.9235020     0.0004130
  H        1.2381380     0.9235610     0.0003570
  C       -0.6684070    -0.0000260    -0.0001490
  H       -1.2382130    -0.9235440     0.0004000
  H       -1.2376890     0.9238410     0.0004570
units angstrom
no_reorient  #important for SAPT in psi4, default
symmetry c1  #important for SAPT in psi4, default
}

set PROPERTIES_ORIGIN ["COM"]
properties('MP2/aug-cc-pvtz', properties = ['dipole'])
--------------------------------------------------------------------------

    Molecular point group: c1
  Charge       = 0
  Multiplicity = 1
  Basis Set: AUG-CC-PVTZ
    Blend: AUG-CC-PVTZ
  Basis Set: (AUG-CC-PVTZ AUX)
    Blend: AUG-CC-PVTZ-JKFIT

    Orbital Energies [Eh]
    ---------------------

    Doubly Occupied:

       1A    -11.233544     2A    -11.231861     3A     -1.032651
       4A     -0.793227     5A     -0.641863     6A     -0.588256
       7A     -0.507208     8A     -0.376424

  @DF-RHF Final Energy:   -78.06428660504895

   => Energetics <=

    Nuclear Repulsion Energy =             33.2929247386827427
    One-Electron Energy =                -169.9043526905743136
    Two-Electron Energy =                  58.5471413468426363
    Total Energy =                        -78.0642866050489488
  Basis Set: (AUG-CC-PVTZ AUX)
    Blend: AUG-CC-PVTZ-RI
    Molecular point group: c1

    Geometry (in Angstrom), charge = 0, multiplicity = 1:

       Center              X                  Y                   Z               Mass
    ------------   -----------------  -----------------  -----------------  -----------------
         C            0.668334646040    -0.000020541987    -0.000064483272    12.000000000000
         H            1.238332646040    -0.923489541987     0.000470516728     1.007825032230
         H            1.238157646040     0.923573458013     0.000414516728     1.007825032230
         C           -0.668387353960    -0.000013541987    -0.000091483272    12.000000000000
         H           -1.238193353960    -0.923531541987     0.000457516728     1.007825032230
         H           -1.237669353960     0.923853458013     0.000514516728     1.007825032230

  Basis Set: AUG-CC-PVTZ
    Blend: AUG-CC-PVTZ
  Basis Set: (AUG-CC-PVTZ AUX)
    Blend: AUG-CC-PVTZ-JKFIT
	 Reference Energy          =     -78.0642866050489488 [Eh]
	 Singles Energy            =      -0.0000000000000000 [Eh]
	 Same-Spin Energy          =      -0.0765680652962238 [Eh]
	 Opposite-Spin Energy      =      -0.2987590563376687 [Eh]
	 Correlation Energy        =      -0.3753271216338925 [Eh]
	 Total Energy              =     -78.4396137266828362 [Eh]

	 ================> DF-SCS-MP2 Energies <==================
	-----------------------------------------------------------
	 SCS Same-Spin Scale       =       0.3333333333333333 [-]
	 SCS Opposite-Spin Scale   =       1.2000000000000000 [-]
	 SCS Same-Spin Energy      =      -0.0255226884320746 [Eh]
	 SCS Opposite-Spin Energy  =      -0.3585108676052024 [Eh]
	 SCS Correlation Energy    =      -0.3840335560372770 [Eh]
	 SCS Total Energy          =     -78.4483201610862295 [Eh]
	-----------------------------------------------------------

  Dipole Moment: [D]
     X:     0.0001      Y:     0.0000      Z:     0.0015     Total:     0.0015

*** Psi4 exiting successfully. Buy a developer a beer!
