                               Psi4 1.4a3.dev225

  ==> Input File <==

--------------------------------------------------------------------------
#psi4
#
memory 32 gb

molecule  {
0 1
  C       -0.6681870    -0.0000010    -0.0000020
  H       -1.2382910     0.9232710     0.0000070
  H       -1.2383020    -0.9232630     0.0000060
  C        0.7181890     0.0000000    -0.0000020
  H        1.2382930     0.9232680     0.0000050
  H        1.2382880    -0.9232740     0.0000060
units angstrom
no_reorient  #important for SAPT in psi4, default
symmetry c1  #important for SAPT in psi4, default
}

set PROPERTIES_ORIGIN ["COM"]
properties('MP2/aug-cc-pvtz', properties = ['dipole'])
--------------------------------------------------------------------------

    Molecular point group: c1
  Charge       = 0
  Multiplicity = 1
  Basis Set: AUG-CC-PVTZ
    Blend: AUG-CC-PVTZ
  Basis Set: (AUG-CC-PVTZ AUX)
    Blend: AUG-CC-PVTZ-JKFIT

    Orbital Energies [Eh]
    ---------------------

    Doubly Occupied:

       1A    -11.241060     2A    -11.235904     3A     -1.021691
       4A     -0.801838     5A     -0.646087     6A     -0.577044
       7A     -0.521737     8A     -0.364942

  @DF-RHF Final Energy:   -78.05885007864235

   => Energetics <=

    Nuclear Repulsion Energy =             32.8618409579325714
    One-Electron Energy =                -169.0207765405736779
    Two-Electron Energy =                  58.1000855039987485
    Total Energy =                        -78.0588500786423651
  Basis Set: (AUG-CC-PVTZ AUX)
    Blend: AUG-CC-PVTZ-RI
    Molecular point group: c1

    Geometry (in Angstrom), charge = 0, multiplicity = 1:

       Center              X                  Y                   Z               Mass
    ------------   -----------------  -----------------  -----------------  -----------------
         C           -0.689592068739    -0.000000643814    -0.000001150514    12.000000000000
         H           -1.259696068739     0.923271356186     0.000007849486     1.007825032230
         H           -1.259707068739    -0.923262643814     0.000006849486     1.007825032230
         C            0.696783931261     0.000000356186    -0.000001150514    12.000000000000
         H            1.216887931261     0.923268356186     0.000005849486     1.007825032230
         H            1.216882931261    -0.923273643814     0.000006849486     1.007825032230

  Basis Set: AUG-CC-PVTZ
    Blend: AUG-CC-PVTZ
  Basis Set: (AUG-CC-PVTZ AUX)
    Blend: AUG-CC-PVTZ-JKFIT
	 Reference Energy          =     -78.0588500786423509 [Eh]
	 Singles Energy            =      -0.0000000000000000 [Eh]
	 Same-Spin Energy          =      -0.0769136437096328 [Eh]
	 Opposite-Spin Energy      =      -0.3001608420391039 [Eh]
	 Correlation Energy        =      -0.3770744857487366 [Eh]
	 Total Energy              =     -78.4359245643910867 [Eh]

	 ================> DF-SCS-MP2 Energies <==================
	-----------------------------------------------------------
	 SCS Same-Spin Scale       =       0.3333333333333333 [-]
	 SCS Opposite-Spin Scale   =       1.2000000000000000 [-]
	 SCS Same-Spin Energy      =      -0.0256378812365443 [Eh]
	 SCS Opposite-Spin Energy  =      -0.3601930104469246 [Eh]
	 SCS Correlation Energy    =      -0.3858308916834689 [Eh]
	 SCS Total Energy          =     -78.4446809703258197 [Eh]
	-----------------------------------------------------------

  Dipole Moment: [D]
     X:    -0.0090      Y:    -0.0000      Z:     0.0000     Total:     0.0090

*** Psi4 exiting successfully. Buy a developer a beer!
