                               Psi4 1.4a3.dev225

  ==> Input File <==

--------------------------------------------------------------------------
#psi4
#
memory 32 gb

molecule  {
0 1
  C       -0.6681870    -0.0000010    -0.0000020
  H       -1.2120214     0.8807280     0.0000066
  H       -1.2383020    -0.9232630     0.0000060
  C        0.6681890     0.0000000    -0.0000020
  H        1.2382930     0.9232680     0.0000050
  H        1.2382880    -0.9232740     0.0000060
units angstrom
no_reorient  #important for SAPT in psi4, default
symmetry c1  #important for SAPT in psi4, default
}

set PROPERTIES_ORIGIN ["COM"]
properties('MP2/aug-cc-pvtz', properties = ['dipole'])
--------------------------------------------------------------------------

    Molecular point group: c1
  Charge       = 0
  Multiplicity = 1
  Basis Set: AUG-CC-PVTZ
    Blend: AUG-CC-PVTZ
  Basis Set: (AUG-CC-PVTZ AUX)
    Blend: AUG-CC-PVTZ-JKFIT

    Orbital Energies [Eh]
    ---------------------

    Doubly Occupied:

       1A    -11.232368     2A    -11.226456     3A     -1.034698
       4A     -0.798790     5A     -0.646065     6A     -0.590152
       7A     -0.510745     8A     -0.376119

  @DF-RHF Final Energy:   -78.06327381493628

   => Energetics <=

    Nuclear Repulsion Energy =             33.4813839108270770
    One-Electron Energy =                -170.2585295870221103
    Two-Electron Energy =                  58.7138718612587525
    Total Energy =                        -78.0632738149362808
  Basis Set: (AUG-CC-PVTZ AUX)
    Blend: AUG-CC-PVTZ-RI
    Molecular point group: c1

    Geometry (in Angstrom), charge = 0, multiplicity = 1:

       Center              X                  Y                   Z               Mass
    ------------   -----------------  -----------------  -----------------  -----------------
         C           -0.669131910384     0.001528928491    -0.000001136132    12.000000000000
         H           -1.212966310384     0.882257928491     0.000007463868     1.007825032230
         H           -1.239246910384    -0.921733071509     0.000006863868     1.007825032230
         C            0.667244089616     0.001529928491    -0.000001136132    12.000000000000
         H            1.237348089616     0.924797928491     0.000005863868     1.007825032230
         H            1.237343089616    -0.921744071509     0.000006863868     1.007825032230

  Basis Set: AUG-CC-PVTZ
    Blend: AUG-CC-PVTZ
  Basis Set: (AUG-CC-PVTZ AUX)
    Blend: AUG-CC-PVTZ-JKFIT
	 Reference Energy          =     -78.0632738149362808 [Eh]
	 Singles Energy            =      -0.0000000000000000 [Eh]
	 Same-Spin Energy          =      -0.0765480151451956 [Eh]
	 Opposite-Spin Energy      =      -0.2985487243956146 [Eh]
	 Correlation Energy        =      -0.3750967395408103 [Eh]
	 Total Energy              =     -78.4383705544770891 [Eh]

	 ================> DF-SCS-MP2 Energies <==================
	-----------------------------------------------------------
	 SCS Same-Spin Scale       =       0.3333333333333333 [-]
	 SCS Opposite-Spin Scale   =       1.2000000000000000 [-]
	 SCS Same-Spin Energy      =      -0.0255160050483985 [Eh]
	 SCS Opposite-Spin Energy  =      -0.3582584692747375 [Eh]
	 SCS Correlation Energy    =      -0.3837744743231361 [Eh]
	 SCS Total Energy          =     -78.4470482892594134 [Eh]
	-----------------------------------------------------------

  Dipole Moment: [D]
     X:    -0.0105      Y:     0.0120      Z:     0.0000     Total:     0.0160

*** Psi4 exiting successfully. Buy a developer a beer!
