                               Psi4 1.4a3.dev225

  ==> Input File <==

--------------------------------------------------------------------------
#psi4
#
memory 32 gb

molecule  {
0 1
  C       -0.6681870    -0.0000010    -0.0000020
  H       -1.2382910     0.9232710     0.0000070
  H       -1.2383020    -0.9232630     0.0000060
  C        0.6881890     0.0000000    -0.0000020
  H        1.2382930     0.9232680     0.0000050
  H        1.2382880    -0.9232740     0.0000060
units angstrom
no_reorient  #important for SAPT in psi4, default
symmetry c1  #important for SAPT in psi4, default
}

set PROPERTIES_ORIGIN ["COM"]
properties('MP2/aug-cc-pvtz', properties = ['dipole'])
--------------------------------------------------------------------------

    Molecular point group: c1
  Charge       = 0
  Multiplicity = 1
  Basis Set: AUG-CC-PVTZ
    Blend: AUG-CC-PVTZ
  Basis Set: (AUG-CC-PVTZ AUX)
    Blend: AUG-CC-PVTZ-JKFIT

    Orbital Energies [Eh]
    ---------------------

    Doubly Occupied:

       1A    -11.236261     2A    -11.233709     3A     -1.028103
       4A     -0.796791     5A     -0.643288     6A     -0.584038
       7A     -0.513151     8A     -0.371739

  @DF-RHF Final Energy:   -78.06299344141614

   => Energetics <=

    Nuclear Repulsion Energy =             33.1191174265132489
    One-Electron Energy =                -169.5500592026386926
    Two-Electron Energy =                  58.3679483347093111
    Total Energy =                        -78.0629934414161397
  Basis Set: (AUG-CC-PVTZ AUX)
    Blend: AUG-CC-PVTZ-RI
    Molecular point group: c1

    Geometry (in Angstrom), charge = 0, multiplicity = 1:

       Center              X                  Y                   Z               Mass
    ------------   -----------------  -----------------  -----------------  -----------------
         C           -0.676749282341    -0.000000643814    -0.000001150514    12.000000000000
         H           -1.246853282341     0.923271356186     0.000007849486     1.007825032230
         H           -1.246864282341    -0.923262643814     0.000006849486     1.007825032230
         C            0.679626717659     0.000000356186    -0.000001150514    12.000000000000
         H            1.229730717659     0.923268356186     0.000005849486     1.007825032230
         H            1.229725717659    -0.923273643814     0.000006849486     1.007825032230

  Basis Set: AUG-CC-PVTZ
    Blend: AUG-CC-PVTZ
  Basis Set: (AUG-CC-PVTZ AUX)
    Blend: AUG-CC-PVTZ-JKFIT
	 Reference Energy          =     -78.0629934414161397 [Eh]
	 Singles Energy            =      -0.0000000000000000 [Eh]
	 Same-Spin Energy          =      -0.0766850593859873 [Eh]
	 Opposite-Spin Energy      =      -0.2992710068330204 [Eh]
	 Correlation Energy        =      -0.3759560662190077 [Eh]
	 Total Energy              =     -78.4389495076351437 [Eh]

	 ================> DF-SCS-MP2 Energies <==================
	-----------------------------------------------------------
	 SCS Same-Spin Scale       =       0.3333333333333333 [-]
	 SCS Opposite-Spin Scale   =       1.2000000000000000 [-]
	 SCS Same-Spin Energy      =      -0.0255616864619958 [Eh]
	 SCS Opposite-Spin Energy  =      -0.3591252081996245 [Eh]
	 SCS Correlation Energy    =      -0.3846868946616203 [Eh]
	 SCS Total Energy          =     -78.4476803360777666 [Eh]
	-----------------------------------------------------------

  Dipole Moment: [D]
     X:    -0.0029      Y:    -0.0000      Z:     0.0000     Total:     0.0029

*** Psi4 exiting successfully. Buy a developer a beer!
