                               Psi4 1.3.2 release

  ==> Input File <==

--------------------------------------------------------------------------
#psi4
#
memory 32 gb

molecule  {
0 1
  C        0.6683150    -0.0000330    -0.0001220
  H        1.2383130    -0.9235020     0.0004130
  H        1.2381380     0.9235610     0.0003570
  C       -0.7684070    -0.0000255    -0.0001510
  H       -1.2382130    -0.9235440     0.0004000
  H       -1.2376890     0.9238410     0.0004570
units angstrom
no_reorient  #important for SAPT in psi4, default
symmetry c1  #important for SAPT in psi4, default
}

set PROPERTIES_ORIGIN ["COM"]
properties('MP2/aug-cc-pvtz', properties = ['dipole'])
--------------------------------------------------------------------------

    Molecular point group: c1
  Charge       = 0
  Multiplicity = 1
  Basis Set: AUG-CC-PVTZ
    Blend: AUG-CC-PVTZ
  Basis Set: (AUG-CC-PVTZ AUX)
    Blend: AUG-CC-PVTZ-JKFIT

    Orbital Energies [Eh]
    ---------------------

    Doubly Occupied:

       1A    -11.249050     2A    -11.239507     3A     -1.012359
       4A     -0.809618     5A     -0.652397     6A     -0.564263
       7A     -0.534707     8A     -0.354433

  @DF-RHF Final Energy:   -78.04674498752799

   => Energetics <=

    Nuclear Repulsion Energy =             32.4548914428361499
    One-Electron Energy =                -168.1706055244407594
    Two-Electron Energy =                  57.6689690940766084
    Total Energy =                        -78.0467449875280010
  Basis Set: (AUG-CC-PVTZ AUX)
    Blend: AUG-CC-PVTZ-RI
    Molecular point group: c1

    Geometry (in Angstrom), charge = 0, multiplicity = 1:

       Center              X                  Y                   Z               Mass
    ------------   -----------------  -----------------  -----------------  -----------------
         C            0.711143934032    -0.000020756034    -0.000063627086    12.000000000000
         H            1.281141934032    -0.923489756034     0.000471372914     1.007825032230
         H            1.280966934032     0.923573243966     0.000415372914     1.007825032230
         C           -0.725578065968    -0.000013256034    -0.000092627086    12.000000000000
         H           -1.195384065968    -0.923531756034     0.000458372914     1.007825032230
         H           -1.194860065968     0.923853243966     0.000515372914     1.007825032230

  Basis Set: AUG-CC-PVTZ
    Blend: AUG-CC-PVTZ
  Basis Set: (AUG-CC-PVTZ AUX)
    Blend: AUG-CC-PVTZ-JKFIT
	 Reference Energy          =     -78.0467449875279868 [Eh]
	 Singles Energy            =      -0.0000000000000000 [Eh]
	 Same-Spin Energy          =      -0.0774289634730825 [Eh]
	 Opposite-Spin Energy      =      -0.3019286302165131 [Eh]
	 Correlation Energy        =      -0.3793575936895956 [Eh]
	 Total Energy              =     -78.4261025812175774 [Eh]

	 ================> DF-SCS-MP2 Energies <==================
	-----------------------------------------------------------
	 SCS Same-Spin Scale       =       0.3333333333333333 [-]
	 SCS Opposite-Spin Scale   =       1.2000000000000000 [-]
	 SCS Same-Spin Energy      =      -0.0258096544910275 [Eh]
	 SCS Opposite-Spin Energy  =      -0.3623143562598157 [Eh]
	 SCS Correlation Energy    =      -0.3881240107508432 [Eh]
	 SCS Total Energy          =     -78.4348689982788301 [Eh]
	-----------------------------------------------------------

  Dipole Moment: [D]
     X:     0.0222      Y:    -0.0000      Z:     0.0015     Total:     0.0223

*** Psi4 exiting successfully. Buy a developer a beer!
