                               Psi4 1.3.2 release

  ==> Input File <==

--------------------------------------------------------------------------
#psi4
#
memory 32 gb

molecule  {
0 1
  C        0.6683150    -0.0000330    -0.0001220
  H        1.1332651    -0.7533111     0.0003144
  H        1.2381380     0.9235610     0.0003570
  C       -0.6684070    -0.0000260    -0.0001490
  H       -1.2382130    -0.9235440     0.0004000
  H       -1.2376890     0.9238410     0.0004570
units angstrom
no_reorient  #important for SAPT in psi4, default
symmetry c1  #important for SAPT in psi4, default
}

set PROPERTIES_ORIGIN ["COM"]
properties('MP2/aug-cc-pvtz', properties = ['dipole'])
--------------------------------------------------------------------------

    Molecular point group: c1
  Charge       = 0
  Multiplicity = 1
  Basis Set: AUG-CC-PVTZ
    Blend: AUG-CC-PVTZ
  Basis Set: (AUG-CC-PVTZ AUX)
    Blend: AUG-CC-PVTZ-JKFIT

    Orbital Energies [Eh]
    ---------------------

    Doubly Occupied:

       1A    -11.231787     2A    -11.208395     3A     -1.044269
       4A     -0.821220     5A     -0.660151     6A     -0.594175
       7A     -0.518975     8A     -0.375466

  @DF-RHF Final Energy:   -78.02823627405763

   => Energetics <=

    Nuclear Repulsion Energy =             34.1294395433631479
    One-Electron Energy =                -171.4064755273527965
    Two-Electron Energy =                  59.2487997099320296
    Total Energy =                        -78.0282362740576332
  Basis Set: (AUG-CC-PVTZ AUX)
    Blend: AUG-CC-PVTZ-RI
    Molecular point group: c1

    Geometry (in Angstrom), charge = 0, multiplicity = 1:

       Center              X                  Y                   Z               Mass
    ------------   -----------------  -----------------  -----------------  -----------------
         C            0.672111492020    -0.006139510729    -0.000060938251    12.000000000000
         H            1.137061592020    -0.759417610729     0.000375461749     1.007825032230
         H            1.241934492020     0.917454489271     0.000418061749     1.007825032230
         C           -0.664610507980    -0.006132510729    -0.000087938251    12.000000000000
         H           -1.234416507980    -0.929650510729     0.000461061749     1.007825032230
         H           -1.233892507980     0.917734489271     0.000518061749     1.007825032230

  Basis Set: AUG-CC-PVTZ
    Blend: AUG-CC-PVTZ
  Basis Set: (AUG-CC-PVTZ AUX)
    Blend: AUG-CC-PVTZ-JKFIT
	 Reference Energy          =     -78.0282362740576332 [Eh]
	 Singles Energy            =      -0.0000000000000000 [Eh]
	 Same-Spin Energy          =      -0.0766342975042693 [Eh]
	 Opposite-Spin Energy      =      -0.2986438491499788 [Eh]
	 Correlation Energy        =      -0.3752781466542482 [Eh]
	 Total Energy              =     -78.4035144207118861 [Eh]

	 ================> DF-SCS-MP2 Energies <==================
	-----------------------------------------------------------
	 SCS Same-Spin Scale       =       0.3333333333333333 [-]
	 SCS Opposite-Spin Scale   =       1.2000000000000000 [-]
	 SCS Same-Spin Energy      =      -0.0255447658347564 [Eh]
	 SCS Opposite-Spin Energy  =      -0.3583726189799746 [Eh]
	 SCS Correlation Energy    =      -0.3839173848147310 [Eh]
	 SCS Total Energy          =     -78.4121536588723700 [Eh]
	-----------------------------------------------------------

  Dipole Moment: [D]
     X:     0.0244      Y:    -0.0321      Z:     0.0014     Total:     0.0403

*** Psi4 exiting successfully. Buy a developer a beer!
