                               Psi4 1.4a3.dev225

  ==> Input File <==

--------------------------------------------------------------------------
#psi4
#
memory 32 gb

molecule  {
0 1
  C       -0.6681870    -0.0000010    -0.0000020
  H       -1.2277832     0.9062538     0.0000068
  H       -1.2383020    -0.9232630     0.0000060
  C        0.6681890     0.0000000    -0.0000020
  H        1.2382930     0.9232680     0.0000050
  H        1.2382880    -0.9232740     0.0000060
units angstrom
no_reorient  #important for SAPT in psi4, default
symmetry c1  #important for SAPT in psi4, default
}

set PROPERTIES_ORIGIN ["COM"]
properties('MP2/aug-cc-pvtz', properties = ['dipole'])
--------------------------------------------------------------------------

    Molecular point group: c1
  Charge       = 0
  Multiplicity = 1
  Basis Set: AUG-CC-PVTZ
    Blend: AUG-CC-PVTZ
  Basis Set: (AUG-CC-PVTZ AUX)
    Blend: AUG-CC-PVTZ-JKFIT

    Orbital Energies [Eh]
    ---------------------

    Doubly Occupied:

       1A    -11.232745     2A    -11.229943     3A     -1.033462
       4A     -0.795373     5A     -0.643469     6A     -0.589147
       7A     -0.508631     8A     -0.376339

  @DF-RHF Final Energy:   -78.06434212396056

   => Energetics <=

    Nuclear Repulsion Energy =             33.3696775595821151
    One-Electron Energy =                -170.0498171165298800
    Two-Electron Energy =                  58.6157974329872218
    Total Energy =                        -78.0643421239605573
  Basis Set: (AUG-CC-PVTZ AUX)
    Blend: AUG-CC-PVTZ-RI
    Molecular point group: c1

    Geometry (in Angstrom), charge = 0, multiplicity = 1:

       Center              X                  Y                   Z               Mass
    ------------   -----------------  -----------------  -----------------  -----------------
         C           -0.668565217561     0.000611185108    -0.000001143323    12.000000000000
         H           -1.228161417561     0.906865985108     0.000007656677     1.007825032230
         H           -1.238680217561    -0.922650814892     0.000006856677     1.007825032230
         C            0.667810782439     0.000612185108    -0.000001143323    12.000000000000
         H            1.237914782439     0.923880185108     0.000005856677     1.007825032230
         H            1.237909782439    -0.922661814892     0.000006856677     1.007825032230

  Basis Set: AUG-CC-PVTZ
    Blend: AUG-CC-PVTZ
  Basis Set: (AUG-CC-PVTZ AUX)
    Blend: AUG-CC-PVTZ-JKFIT
	 Reference Energy          =     -78.0643421239605573 [Eh]
	 Singles Energy            =      -0.0000000000000000 [Eh]
	 Same-Spin Energy          =      -0.0765560415566719 [Eh]
	 Opposite-Spin Energy      =      -0.2986539610013404 [Eh]
	 Correlation Energy        =      -0.3752100025580123 [Eh]
	 Total Energy              =     -78.4395521265185636 [Eh]

	 ================> DF-SCS-MP2 Energies <==================
	-----------------------------------------------------------
	 SCS Same-Spin Scale       =       0.3333333333333333 [-]
	 SCS Opposite-Spin Scale   =       1.2000000000000000 [-]
	 SCS Same-Spin Energy      =      -0.0255186805188906 [Eh]
	 SCS Opposite-Spin Energy  =      -0.3583847532016085 [Eh]
	 SCS Correlation Energy    =      -0.3839034337204991 [Eh]
	 SCS Total Energy          =     -78.4482455576810622 [Eh]
	-----------------------------------------------------------

  Dipole Moment: [D]
     X:    -0.0046      Y:     0.0051      Z:     0.0000     Total:     0.0069

*** Psi4 exiting successfully. Buy a developer a beer!
