                               Psi4 1.4a3.dev225

  ==> Input File <==

--------------------------------------------------------------------------
#psi4
#
memory 32 gb

molecule  {
0 1
  C       -0.6681870    -0.0000010    -0.0000020
  H       -1.2645606     0.9658140     0.0000074
  H       -1.2383020    -0.9232630     0.0000060
  C        0.6681890     0.0000000    -0.0000020
  H        1.2382930     0.9232680     0.0000050
  H        1.2382880    -0.9232740     0.0000060
units angstrom
no_reorient  #important for SAPT in psi4, default
symmetry c1  #important for SAPT in psi4, default
}

set PROPERTIES_ORIGIN ["COM"]
properties('MP2/aug-cc-pvtz', properties = ['dipole'])
--------------------------------------------------------------------------

    Molecular point group: c1
  Charge       = 0
  Multiplicity = 1
  Basis Set: AUG-CC-PVTZ
    Blend: AUG-CC-PVTZ
  Basis Set: (AUG-CC-PVTZ AUX)
    Blend: AUG-CC-PVTZ-JKFIT

    Orbital Energies [Eh]
    ---------------------

    Doubly Occupied:

       1A    -11.238641     2A    -11.232981     3A     -1.031286
       4A     -0.788738     5A     -0.638100     6A     -0.586630
       7A     -0.502920     8A     -0.376990

  @DF-RHF Final Energy:   -78.06205472564454

   => Energetics <=

    Nuclear Repulsion Energy =             33.1285474742403494
    One-Electron Energy =                -169.5886335392035278
    Two-Electron Energy =                  58.3980313393186279
    Total Energy =                        -78.0620547256445434
  Basis Set: (AUG-CC-PVTZ AUX)
    Blend: AUG-CC-PVTZ-RI
    Molecular point group: c1

    Geometry (in Angstrom), charge = 0, multiplicity = 1:

       Center              X                  Y                   Z               Mass
    ------------   -----------------  -----------------  -----------------  -----------------
         C           -0.667242939102    -0.001530216119    -0.000001164895    12.000000000000
         H           -1.263616539102     0.964284783881     0.000008235105     1.007825032230
         H           -1.237357939102    -0.924792216119     0.000006835105     1.007825032230
         C            0.669133060898    -0.001529216119    -0.000001164895    12.000000000000
         H            1.239237060898     0.921738783881     0.000005835105     1.007825032230
         H            1.239232060898    -0.924803216119     0.000006835105     1.007825032230

  Basis Set: AUG-CC-PVTZ
    Blend: AUG-CC-PVTZ
  Basis Set: (AUG-CC-PVTZ AUX)
    Blend: AUG-CC-PVTZ-JKFIT
	 Reference Energy          =     -78.0620547256445434 [Eh]
	 Singles Energy            =      -0.0000000000000000 [Eh]
	 Same-Spin Energy          =      -0.0765972297535136 [Eh]
	 Opposite-Spin Energy      =      -0.2990463197104724 [Eh]
	 Correlation Energy        =      -0.3756435494639859 [Eh]
	 Total Energy              =     -78.4376982751085308 [Eh]

	 ================> DF-SCS-MP2 Energies <==================
	-----------------------------------------------------------
	 SCS Same-Spin Scale       =       0.3333333333333333 [-]
	 SCS Opposite-Spin Scale   =       1.2000000000000000 [-]
	 SCS Same-Spin Energy      =      -0.0255324099178379 [Eh]
	 SCS Opposite-Spin Energy  =      -0.3588555836525668 [Eh]
	 SCS Correlation Energy    =      -0.3843879935704047 [Eh]
	 SCS Total Energy          =     -78.4464427192149429 [Eh]
	-----------------------------------------------------------

  Dipole Moment: [D]
     X:     0.0134      Y:    -0.0147      Z:     0.0000     Total:     0.0199

*** Psi4 exiting successfully. Buy a developer a beer!
