                               Psi4 1.3.2 release

  ==> Input File <==

--------------------------------------------------------------------------
#psi4
#
memory 32 gb

molecule  {
0 1
  C        0.6683150    -0.0000330    -0.0001220
  H        1.3433609    -1.0936929     0.0005116
  H        1.2381380     0.9235610     0.0003570
  C       -0.6684070    -0.0000260    -0.0001490
  H       -1.2382130    -0.9235440     0.0004000
  H       -1.2376890     0.9238410     0.0004570
units angstrom
no_reorient  #important for SAPT in psi4, default
symmetry c1  #important for SAPT in psi4, default
}

set PROPERTIES_ORIGIN ["COM"]
properties('MP2/aug-cc-pvtz', properties = ['dipole'])
--------------------------------------------------------------------------

    Molecular point group: c1
  Charge       = 0
  Multiplicity = 1
  Basis Set: AUG-CC-PVTZ
    Blend: AUG-CC-PVTZ
  Basis Set: (AUG-CC-PVTZ AUX)
    Blend: AUG-CC-PVTZ-JKFIT

    Orbital Energies [Eh]
    ---------------------

    Doubly Occupied:

       1A    -11.255011     2A    -11.235165     3A     -1.029155
       4A     -0.779772     5A     -0.630662     6A     -0.581102
       7A     -0.486862     8A     -0.378945

  @DF-RHF Final Energy:   -78.04277037584883

   => Energetics <=

    Nuclear Repulsion Energy =             32.6821193747464207
    One-Electron Energy =                -168.6964317086398069
    Two-Electron Energy =                  57.9715419580445399
    Total Energy =                        -78.0427703758488320
  Basis Set: (AUG-CC-PVTZ AUX)
    Blend: AUG-CC-PVTZ-RI
    Molecular point group: c1

    Geometry (in Angstrom), charge = 0, multiplicity = 1:

       Center              X                  Y                   Z               Mass
    ------------   -----------------  -----------------  -----------------  -----------------
         C            0.664557800061     0.006098426754    -0.000068028293    12.000000000000
         H            1.339603700061    -1.087561473246     0.000565571707     1.007825032230
         H            1.234380800061     0.929692426754     0.000410971707     1.007825032230
         C           -0.672164199939     0.006105426754    -0.000095028293    12.000000000000
         H           -1.241970199939    -0.917412573246     0.000453971707     1.007825032230
         H           -1.241446199939     0.929972426754     0.000510971707     1.007825032230

  Basis Set: AUG-CC-PVTZ
    Blend: AUG-CC-PVTZ
  Basis Set: (AUG-CC-PVTZ AUX)
    Blend: AUG-CC-PVTZ-JKFIT
	 Reference Energy          =     -78.0427703758488320 [Eh]
	 Singles Energy            =      -0.0000000000000000 [Eh]
	 Same-Spin Energy          =      -0.0767486507479142 [Eh]
	 Opposite-Spin Energy      =      -0.3004506257267473 [Eh]
	 Correlation Energy        =      -0.3771992764746615 [Eh]
	 Total Energy              =     -78.4199696523234877 [Eh]

	 ================> DF-SCS-MP2 Energies <==================
	-----------------------------------------------------------
	 SCS Same-Spin Scale       =       0.3333333333333333 [-]
	 SCS Opposite-Spin Scale   =       1.2000000000000000 [-]
	 SCS Same-Spin Energy      =      -0.0255828835826381 [Eh]
	 SCS Opposite-Spin Energy  =      -0.3605407508720967 [Eh]
	 SCS Correlation Energy    =      -0.3861236344547348 [Eh]
	 SCS Total Energy          =     -78.4288940103035657 [Eh]
	-----------------------------------------------------------

  Dipole Moment: [D]
     X:    -0.0697      Y:     0.0741      Z:     0.0015     Total:     0.1017

*** Psi4 exiting successfully. Buy a developer a beer!
