                               Psi4 1.3.2 release

  ==> Input File <==

--------------------------------------------------------------------------
#psi4
#
memory 32 gb

molecule  {
0 1
  C        0.6683150    -0.0000330    -0.0001220
  H        1.1386617    -0.9780242     0.0003260
  H        1.2381380     0.9235610     0.0003570
  C       -0.6684070    -0.0000260    -0.0001490
  H       -1.2382130    -0.9235440     0.0004000
  H       -1.2376890     0.9238410     0.0004570
units angstrom
no_reorient  #important for SAPT in psi4, default
symmetry c1  #important for SAPT in psi4, default
}

set PROPERTIES_ORIGIN ["COM"]
properties('MP2/aug-cc-pvtz', properties = ['dipole'])
--------------------------------------------------------------------------

    Molecular point group: c1
  Charge       = 0
  Multiplicity = 1
  Basis Set: AUG-CC-PVTZ
    Blend: AUG-CC-PVTZ
  Basis Set: (AUG-CC-PVTZ AUX)
    Blend: AUG-CC-PVTZ-JKFIT

    Orbital Energies [Eh]
    ---------------------

    Doubly Occupied:

       1A    -11.232605     2A    -11.230756     3A     -1.034088
       4A     -0.789248     5A     -0.647788     6A     -0.581038
       7A     -0.509653     8A     -0.376244

  @DF-RHF Final Energy:   -78.06302759314457

   => Energetics <=

    Nuclear Repulsion Energy =             33.3423525082428327
    One-Electron Energy =                -170.0079204579191696
    Two-Electron Energy =                  58.6025403565317689
    Total Energy =                        -78.0630275931445681
  Basis Set: (AUG-CC-PVTZ AUX)
    Blend: AUG-CC-PVTZ-RI
    Molecular point group: c1

    Geometry (in Angstrom), charge = 0, multiplicity = 1:

       Center              X                  Y                   Z               Mass
    ------------   -----------------  -----------------  -----------------  -----------------
         C            0.671917465038     0.001939725204    -0.000061355312    12.000000000000
         H            1.142264165038    -0.976051474796     0.000386644688     1.007825032230
         H            1.241740465038     0.925533725204     0.000417644688     1.007825032230
         C           -0.664804534962     0.001946725204    -0.000088355312    12.000000000000
         H           -1.234610534962    -0.921571274796     0.000460644688     1.007825032230
         H           -1.234086534962     0.925813725204     0.000517644688     1.007825032230

  Basis Set: AUG-CC-PVTZ
    Blend: AUG-CC-PVTZ
  Basis Set: (AUG-CC-PVTZ AUX)
    Blend: AUG-CC-PVTZ-JKFIT
	 Reference Energy          =     -78.0630275931445681 [Eh]
	 Singles Energy            =      -0.0000000000000000 [Eh]
	 Same-Spin Energy          =      -0.0766991194692147 [Eh]
	 Opposite-Spin Energy      =      -0.2989334159585070 [Eh]
	 Correlation Energy        =      -0.3756325354277217 [Eh]
	 Total Energy              =     -78.4386601285722946 [Eh]

	 ================> DF-SCS-MP2 Energies <==================
	-----------------------------------------------------------
	 SCS Same-Spin Scale       =       0.3333333333333333 [-]
	 SCS Opposite-Spin Scale   =       1.2000000000000000 [-]
	 SCS Same-Spin Energy      =      -0.0255663731564049 [Eh]
	 SCS Opposite-Spin Energy  =      -0.3587200991502084 [Eh]
	 SCS Correlation Energy    =      -0.3842864723066133 [Eh]
	 SCS Total Energy          =     -78.4473140654511809 [Eh]
	-----------------------------------------------------------

  Dipole Moment: [D]
     X:    -0.0249      Y:     0.0022      Z:     0.0014     Total:     0.0250

*** Psi4 exiting successfully. Buy a developer a beer!
