                               Psi4 1.3.2 release

  ==> Input File <==

--------------------------------------------------------------------------
#psi4
#
memory 32 gb

molecule  {
0 1
  C        0.6683150    -0.0000330    -0.0001220
  H        1.3013424    -0.8814914     0.0004678
  H        1.2381380     0.9235610     0.0003570
  C       -0.6684070    -0.0000260    -0.0001490
  H       -1.2382130    -0.9235440     0.0004000
  H       -1.2376890     0.9238410     0.0004570
units angstrom
no_reorient  #important for SAPT in psi4, default
symmetry c1  #important for SAPT in psi4, default
}

set PROPERTIES_ORIGIN ["COM"]
properties('MP2/aug-cc-pvtz', properties = ['dipole'])
--------------------------------------------------------------------------

    Molecular point group: c1
  Charge       = 0
  Multiplicity = 1
  Basis Set: AUG-CC-PVTZ
    Blend: AUG-CC-PVTZ
  Basis Set: (AUG-CC-PVTZ AUX)
    Blend: AUG-CC-PVTZ-JKFIT

    Orbital Energies [Eh]
    ---------------------

    Doubly Occupied:

       1A    -11.234362     2A    -11.232586     3A     -1.031984
       4A     -0.796056     5A     -0.638160     6A     -0.593206
       7A     -0.504336     8A     -0.376642

  @DF-RHF Final Energy:   -78.06358170013840

   => Energetics <=

    Nuclear Repulsion Energy =             33.2652762100637744
    One-Electron Energy =                -169.8430524035498195
    Two-Electron Energy =                  58.5141944933476381
    Total Energy =                        -78.0635817001383998
  Basis Set: (AUG-CC-PVTZ AUX)
    Blend: AUG-CC-PVTZ-RI
    Molecular point group: c1

    Geometry (in Angstrom), charge = 0, multiplicity = 1:

       Center              X                  Y                   Z               Mass
    ------------   -----------------  -----------------  -----------------  -----------------
         C            0.666068514723    -0.001530972617    -0.000066453527    12.000000000000
         H            1.299095914723    -0.882989372617     0.000523346473     1.007825032230
         H            1.235891514723     0.922063027383     0.000412546473     1.007825032230
         C           -0.670653485277    -0.001523972617    -0.000093453527    12.000000000000
         H           -1.240459485277    -0.925041972617     0.000455546473     1.007825032230
         H           -1.239935485277     0.922343027383     0.000512546473     1.007825032230

  Basis Set: AUG-CC-PVTZ
    Blend: AUG-CC-PVTZ
  Basis Set: (AUG-CC-PVTZ AUX)
    Blend: AUG-CC-PVTZ-JKFIT
	 Reference Energy          =     -78.0635817001383998 [Eh]
	 Singles Energy            =      -0.0000000000000000 [Eh]
	 Same-Spin Energy          =      -0.0765453660916746 [Eh]
	 Opposite-Spin Energy      =      -0.2987609323986865 [Eh]
	 Correlation Energy        =      -0.3753062984903611 [Eh]
	 Total Energy              =     -78.4388879986287577 [Eh]

	 ================> DF-SCS-MP2 Energies <==================
	-----------------------------------------------------------
	 SCS Same-Spin Scale       =       0.3333333333333333 [-]
	 SCS Opposite-Spin Scale   =       1.2000000000000000 [-]
	 SCS Same-Spin Energy      =      -0.0255151220305582 [Eh]
	 SCS Opposite-Spin Energy  =      -0.3585131188784237 [Eh]
	 SCS Correlation Energy    =      -0.3840282409089820 [Eh]
	 SCS Total Energy          =     -78.4476099410473751 [Eh]
	-----------------------------------------------------------

  Dipole Moment: [D]
     X:     0.0169      Y:     0.0027      Z:     0.0015     Total:     0.0172

*** Psi4 exiting successfully. Buy a developer a beer!
