                               Psi4 1.3.2 release

  ==> Input File <==

--------------------------------------------------------------------------
#psi4
#
memory 32 gb

molecule  {
0 1
  C        0.6683150    -0.0000330    -0.0001220
  H        1.2701944    -0.9030468     0.0004407
  H        1.2381380     0.9235610     0.0003570
  C       -0.6684070    -0.0000260    -0.0001490
  H       -1.2382130    -0.9235440     0.0004000
  H       -1.2376890     0.9238410     0.0004570
units angstrom
no_reorient  #important for SAPT in psi4, default
symmetry c1  #important for SAPT in psi4, default
}

set PROPERTIES_ORIGIN ["COM"]
properties('MP2/aug-cc-pvtz', properties = ['dipole'])
--------------------------------------------------------------------------

    Molecular point group: c1
  Charge       = 0
  Multiplicity = 1
  Basis Set: AUG-CC-PVTZ
    Blend: AUG-CC-PVTZ
  Basis Set: (AUG-CC-PVTZ AUX)
    Blend: AUG-CC-PVTZ-JKFIT

    Orbital Energies [Eh]
    ---------------------

    Doubly Occupied:

       1A    -11.233932     2A    -11.232228     3A     -1.032291
       4A     -0.794623     5A     -0.639986     6A     -0.590729
       7A     -0.505886     8A     -0.376525

  @DF-RHF Final Energy:   -78.06408689847225

   => Energetics <=

    Nuclear Repulsion Energy =             33.2785888136391250
    One-Electron Energy =                -169.8729498658998693
    Two-Electron Energy =                  58.5302741537885041
    Total Energy =                        -78.0640868984722545
  Basis Set: (AUG-CC-PVTZ AUX)
    Blend: AUG-CC-PVTZ-RI
    Molecular point group: c1

    Geometry (in Angstrom), charge = 0, multiplicity = 1:

       Center              X                  Y                   Z               Mass
    ------------   -----------------  -----------------  -----------------  -----------------
         C            0.667188396211    -0.000755979249    -0.000065479185    12.000000000000
         H            1.269067796211    -0.903769779249     0.000497220815     1.007825032230
         H            1.237011396211     0.922838020751     0.000413520815     1.007825032230
         C           -0.669533603789    -0.000748979249    -0.000092479185    12.000000000000
         H           -1.239339603789    -0.924266979249     0.000456520815     1.007825032230
         H           -1.238815603789     0.923118020751     0.000513520815     1.007825032230

  Basis Set: AUG-CC-PVTZ
    Blend: AUG-CC-PVTZ
  Basis Set: (AUG-CC-PVTZ AUX)
    Blend: AUG-CC-PVTZ-JKFIT
	 Reference Energy          =     -78.0640868984722545 [Eh]
	 Singles Energy            =      -0.0000000000000000 [Eh]
	 Same-Spin Energy          =      -0.0765503445251710 [Eh]
	 Opposite-Spin Energy      =      -0.2987476419416054 [Eh]
	 Correlation Energy        =      -0.3752979864667764 [Eh]
	 Total Energy              =     -78.4393848849390309 [Eh]

	 ================> DF-SCS-MP2 Energies <==================
	-----------------------------------------------------------
	 SCS Same-Spin Scale       =       0.3333333333333333 [-]
	 SCS Opposite-Spin Scale   =       1.2000000000000000 [-]
	 SCS Same-Spin Energy      =      -0.0255167815083903 [Eh]
	 SCS Opposite-Spin Energy  =      -0.3584971703299265 [Eh]
	 SCS Correlation Energy    =      -0.3840139518383168 [Eh]
	 SCS Total Energy          =     -78.4481008503105670 [Eh]
	-----------------------------------------------------------

  Dipole Moment: [D]
     X:     0.0085      Y:     0.0009      Z:     0.0015     Total:     0.0087

*** Psi4 exiting successfully. Buy a developer a beer!
