                               Psi4 1.3.2 release

  ==> Input File <==

--------------------------------------------------------------------------
#psi4
#
memory 32 gb

molecule  {
0 1
  C        0.6683150    -0.0000330    -0.0001220
  H        1.2543429    -0.9134135     0.0004270
  H        1.2381380     0.9235610     0.0003570
  C       -0.6684070    -0.0000260    -0.0001490
  H       -1.2382130    -0.9235440     0.0004000
  H       -1.2376890     0.9238410     0.0004570
units angstrom
no_reorient  #important for SAPT in psi4, default
symmetry c1  #important for SAPT in psi4, default
}

set PROPERTIES_ORIGIN ["COM"]
properties('MP2/aug-cc-pvtz', properties = ['dipole'])
--------------------------------------------------------------------------

    Molecular point group: c1
  Charge       = 0
  Multiplicity = 1
  Basis Set: AUG-CC-PVTZ
    Blend: AUG-CC-PVTZ
  Basis Set: (AUG-CC-PVTZ AUX)
    Blend: AUG-CC-PVTZ-JKFIT

    Orbital Energies [Eh]
    ---------------------

    Doubly Occupied:

       1A    -11.233733     2A    -11.232046     3A     -1.032464
       4A     -0.793921     5A     -0.640918     6A     -0.589491
       7A     -0.506577     8A     -0.376473

  @DF-RHF Final Energy:   -78.06422508399139

   => Energetics <=

    Nuclear Repulsion Energy =             33.2856274493562907
    One-Electron Energy =                -169.8884615854470894
    Two-Electron Energy =                  58.5386090520994031
    Total Energy =                        -78.0642250839913885
  Basis Set: (AUG-CC-PVTZ AUX)
    Blend: AUG-CC-PVTZ-RI
    Molecular point group: c1

    Geometry (in Angstrom), charge = 0, multiplicity = 1:

       Center              X                  Y                   Z               Mass
    ------------   -----------------  -----------------  -----------------  -----------------
         C            0.667758314068    -0.000383259478    -0.000064986622    12.000000000000
         H            1.253786214068    -0.913763759478     0.000484013378     1.007825032230
         H            1.237581314068     0.923210740522     0.000414013378     1.007825032230
         C           -0.668963685932    -0.000376259478    -0.000091986622    12.000000000000
         H           -1.238769685932    -0.923894259478     0.000457013378     1.007825032230
         H           -1.238245685932     0.923490740522     0.000514013378     1.007825032230

  Basis Set: AUG-CC-PVTZ
    Blend: AUG-CC-PVTZ
  Basis Set: (AUG-CC-PVTZ AUX)
    Blend: AUG-CC-PVTZ-JKFIT
	 Reference Energy          =     -78.0642250839913885 [Eh]
	 Singles Energy            =      -0.0000000000000000 [Eh]
	 Same-Spin Energy          =      -0.0765576057846086 [Eh]
	 Opposite-Spin Energy      =      -0.2987503059105010 [Eh]
	 Correlation Energy        =      -0.3753079116951096 [Eh]
	 Total Energy              =     -78.4395329956864913 [Eh]

	 ================> DF-SCS-MP2 Energies <==================
	-----------------------------------------------------------
	 SCS Same-Spin Scale       =       0.3333333333333333 [-]
	 SCS Opposite-Spin Scale   =       1.2000000000000000 [-]
	 SCS Same-Spin Energy      =      -0.0255192019282029 [Eh]
	 SCS Opposite-Spin Energy  =      -0.3585003670926012 [Eh]
	 SCS Correlation Energy    =      -0.3840195690208041 [Eh]
	 SCS Total Energy          =     -78.4482446530121962 [Eh]
	-----------------------------------------------------------

  Dipole Moment: [D]
     X:     0.0043      Y:     0.0003      Z:     0.0015     Total:     0.0046

*** Psi4 exiting successfully. Buy a developer a beer!
