                               Psi4 1.4a3.dev225

  ==> Input File <==

--------------------------------------------------------------------------
#psi4
#
memory 32 gb

molecule  {
0 1
  C       -0.6681870    -0.0000010    -0.0000020
  H       -1.2382910     0.9232710     0.0000070
  H       -1.2383020    -0.9232630     0.0000060
  C        0.6181890    -0.0000000    -0.0000020
  H        1.2382930     0.9232680     0.0000050
  H        1.2382880    -0.9232740     0.0000060
units angstrom
no_reorient  #important for SAPT in psi4, default
symmetry c1  #important for SAPT in psi4, default
}

set PROPERTIES_ORIGIN ["COM"]
properties('MP2/aug-cc-pvtz', properties = ['dipole'])
--------------------------------------------------------------------------

    Molecular point group: c1
  Charge       = 0
  Multiplicity = 1
  Basis Set: AUG-CC-PVTZ
    Blend: AUG-CC-PVTZ
  Basis Set: (AUG-CC-PVTZ AUX)
    Blend: AUG-CC-PVTZ-JKFIT

    Orbital Energies [Eh]
    ---------------------

    Doubly Occupied:

       1A    -11.229578     2A    -11.223745     3A     -1.045615
       4A     -0.784096     5A     -0.639573     6A     -0.598529
       7A     -0.491082     8A     -0.389297

  @DF-RHF Final Energy:   -78.06186369978369

   => Energetics <=

    Nuclear Repulsion Energy =             33.7745899784358627
    One-Electron Energy =                -170.8698756743441152
    Two-Electron Energy =                  59.0334219961245523
    Total Energy =                        -78.0618636997836859
  Basis Set: (AUG-CC-PVTZ AUX)
    Blend: AUG-CC-PVTZ-RI
    Molecular point group: c1

    Geometry (in Angstrom), charge = 0, multiplicity = 1:

       Center              X                  Y                   Z               Mass
    ------------   -----------------  -----------------  -----------------  -----------------
         C           -0.646782780747    -0.000000643814    -0.000001150514    12.000000000000
         H           -1.216886780747     0.923271356186     0.000007849486     1.007825032230
         H           -1.216897780747    -0.923262643814     0.000006849486     1.007825032230
         C            0.639593219253     0.000000356186    -0.000001150514    12.000000000000
         H            1.259697219253     0.923268356186     0.000005849486     1.007825032230
         H            1.259692219253    -0.923273643814     0.000006849486     1.007825032230

  Basis Set: AUG-CC-PVTZ
    Blend: AUG-CC-PVTZ
  Basis Set: (AUG-CC-PVTZ AUX)
    Blend: AUG-CC-PVTZ-JKFIT
	 Reference Energy          =     -78.0618636997836859 [Eh]
	 Singles Energy            =      -0.0000000000000000 [Eh]
	 Same-Spin Energy          =      -0.0763788278035999 [Eh]
	 Opposite-Spin Energy      =      -0.2976744079808146 [Eh]
	 Correlation Energy        =      -0.3740532357844145 [Eh]
	 Total Energy              =     -78.4359169355681018 [Eh]

	 ================> DF-SCS-MP2 Energies <==================
	-----------------------------------------------------------
	 SCS Same-Spin Scale       =       0.3333333333333333 [-]
	 SCS Opposite-Spin Scale   =       1.2000000000000000 [-]
	 SCS Same-Spin Energy      =      -0.0254596092678666 [Eh]
	 SCS Opposite-Spin Energy  =      -0.3572092895769775 [Eh]
	 SCS Correlation Energy    =      -0.3826688988448441 [Eh]
	 SCS Total Energy          =     -78.4445325986285269 [Eh]
	-----------------------------------------------------------

  Dipole Moment: [D]
     X:     0.0024      Y:     0.0000      Z:     0.0000     Total:     0.0024

*** Psi4 exiting successfully. Buy a developer a beer!
