                               Psi4 1.3.2 release

  ==> Input File <==

--------------------------------------------------------------------------
#psi4
#
memory 32 gb

molecule  {
0 1
  C        0.6683150    -0.0000330    -0.0001220
  H        1.2057372    -0.9428321     0.0003846
  H        1.2381380     0.9235610     0.0003570
  C       -0.6684070    -0.0000260    -0.0001490
  H       -1.2382130    -0.9235440     0.0004000
  H       -1.2376890     0.9238410     0.0004570
units angstrom
no_reorient  #important for SAPT in psi4, default
symmetry c1  #important for SAPT in psi4, default
}

set PROPERTIES_ORIGIN ["COM"]
properties('MP2/aug-cc-pvtz', properties = ['dipole'])
--------------------------------------------------------------------------

    Molecular point group: c1
  Charge       = 0
  Multiplicity = 1
  Basis Set: AUG-CC-PVTZ
    Blend: AUG-CC-PVTZ
  Basis Set: (AUG-CC-PVTZ AUX)
    Blend: AUG-CC-PVTZ-JKFIT

    Orbital Energies [Eh]
    ---------------------

    Doubly Occupied:

       1A    -11.233196     2A    -11.231489     3A     -1.033067
       4A     -0.791867     5A     -0.643789     6A     -0.585805
       7A     -0.508287     8A     -0.376343

  @DF-RHF Final Energy:   -78.06417841705867

   => Energetics <=

    Nuclear Repulsion Energy =             33.3083102922871248
    One-Electron Energy =                -169.9372914279475424
    Two-Electron Energy =                  58.5648027186017472
    Total Energy =                        -78.0641784170586561
  Basis Set: (AUG-CC-PVTZ AUX)
    Blend: AUG-CC-PVTZ-RI
    Molecular point group: c1

    Geometry (in Angstrom), charge = 0, multiplicity = 1:

       Center              X                  Y                   Z               Mass
    ------------   -----------------  -----------------  -----------------  -----------------
         C            0.669505862022     0.000674443924    -0.000063462191    12.000000000000
         H            1.206928062022    -0.942124656076     0.000443137809     1.007825032230
         H            1.239328862022     0.924268443924     0.000415537809     1.007825032230
         C           -0.667216137978     0.000681443924    -0.000090462191    12.000000000000
         H           -1.237022137978    -0.922836556076     0.000458537809     1.007825032230
         H           -1.236498137978     0.924548443924     0.000515537809     1.007825032230

  Basis Set: AUG-CC-PVTZ
    Blend: AUG-CC-PVTZ
  Basis Set: (AUG-CC-PVTZ AUX)
    Blend: AUG-CC-PVTZ-JKFIT
	 Reference Energy          =     -78.0641784170586703 [Eh]
	 Singles Energy            =      -0.0000000000000000 [Eh]
	 Same-Spin Energy          =      -0.0765986467663486 [Eh]
	 Opposite-Spin Energy      =      -0.2987943967973063 [Eh]
	 Correlation Energy        =      -0.3753930435636549 [Eh]
	 Total Energy              =     -78.4395714606223322 [Eh]

	 ================> DF-SCS-MP2 Energies <==================
	-----------------------------------------------------------
	 SCS Same-Spin Scale       =       0.3333333333333333 [-]
	 SCS Opposite-Spin Scale   =       1.2000000000000000 [-]
	 SCS Same-Spin Energy      =      -0.0255328822554495 [Eh]
	 SCS Opposite-Spin Energy  =      -0.3585532761567676 [Eh]
	 SCS Correlation Energy    =      -0.3840861584122172 [Eh]
	 SCS Total Energy          =     -78.4482645754708869 [Eh]
	-----------------------------------------------------------

  Dipole Moment: [D]
     X:    -0.0082      Y:    -0.0001      Z:     0.0015     Total:     0.0083

*** Psi4 exiting successfully. Buy a developer a beer!
