                               Psi4 1.3.2 release

  ==> Input File <==

--------------------------------------------------------------------------
#psi4
#
memory 32 gb

molecule  {
0 1
  C        0.6683150    -0.0000330    -0.0001220
  H        1.2383130    -0.9235020     0.0004130
  H        1.2381380     0.9235610     0.0003570
  C       -0.5684070    -0.0000265    -0.0001470
  H       -1.2382130    -0.9235440     0.0004000
  H       -1.2376890     0.9238410     0.0004570
units angstrom
no_reorient  #important for SAPT in psi4, default
symmetry c1  #important for SAPT in psi4, default
}

set PROPERTIES_ORIGIN ["COM"]
properties('MP2/aug-cc-pvtz', properties = ['dipole'])
--------------------------------------------------------------------------

    Molecular point group: c1
  Charge       = 0
  Multiplicity = 1
  Basis Set: AUG-CC-PVTZ
    Blend: AUG-CC-PVTZ
  Basis Set: (AUG-CC-PVTZ AUX)
    Blend: AUG-CC-PVTZ-JKFIT

    Orbital Energies [Eh]
    ---------------------

    Doubly Occupied:

       1A    -11.226454     2A    -11.214953     3A     -1.060087
       4A     -0.774285     5A     -0.639277     6A     -0.606988
       7A     -0.474117     8A     -0.403336

  @DF-RHF Final Energy:   -78.05000657397045

   => Energetics <=

    Nuclear Repulsion Energy =             34.2920294075698138
    One-Electron Energy =                -171.8850780115734551
    Two-Electron Energy =                  59.5430420300331775
    Total Energy =                        -78.0500065739704496
  Basis Set: (AUG-CC-PVTZ AUX)
    Blend: AUG-CC-PVTZ-RI
    Molecular point group: c1

    Geometry (in Angstrom), charge = 0, multiplicity = 1:

       Center              X                  Y                   Z               Mass
    ------------   -----------------  -----------------  -----------------  -----------------
         C            0.625525358049    -0.000020327941    -0.000065339457    12.000000000000
         H            1.195523358049    -0.923489327941     0.000469660543     1.007825032230
         H            1.195348358049     0.923573672059     0.000413660543     1.007825032230
         C           -0.611196641951    -0.000013827941    -0.000090339457    12.000000000000
         H           -1.281002641951    -0.923531327941     0.000456660543     1.007825032230
         H           -1.280478641951     0.923853672059     0.000513660543     1.007825032230

  Basis Set: AUG-CC-PVTZ
    Blend: AUG-CC-PVTZ
  Basis Set: (AUG-CC-PVTZ AUX)
    Blend: AUG-CC-PVTZ-JKFIT
	 Reference Energy          =     -78.0500065739704496 [Eh]
	 Singles Energy            =      -0.0000000000000000 [Eh]
	 Same-Spin Energy          =      -0.0763584936644475 [Eh]
	 Opposite-Spin Energy      =      -0.2969559403730763 [Eh]
	 Correlation Energy        =      -0.3733144340375237 [Eh]
	 Total Energy              =     -78.4233210080079743 [Eh]

	 ================> DF-SCS-MP2 Energies <==================
	-----------------------------------------------------------
	 SCS Same-Spin Scale       =       0.3333333333333333 [-]
	 SCS Opposite-Spin Scale   =       1.2000000000000000 [-]
	 SCS Same-Spin Energy      =      -0.0254528312214825 [Eh]
	 SCS Opposite-Spin Energy  =      -0.3563471284476915 [Eh]
	 SCS Correlation Energy    =      -0.3817999596691740 [Eh]
	 SCS Total Energy          =     -78.4318065336396302 [Eh]
	-----------------------------------------------------------

  Dipole Moment: [D]
     X:     0.0047      Y:     0.0000      Z:     0.0014     Total:     0.0050

*** Psi4 exiting successfully. Buy a developer a beer!
