                               Psi4 1.4a3.dev225

  ==> Input File <==

--------------------------------------------------------------------------
#psi4
#
memory 32 gb

molecule  {
0 1
  C       -0.6681870    -0.0000010    -0.0000020
  H       -1.2382910     0.9232710     0.0000070
  H       -1.2383020    -0.9232630     0.0000060
  C        0.6481890    -0.0000000    -0.0000020
  H        1.2382930     0.9232680     0.0000050
  H        1.2382880    -0.9232740     0.0000060
units angstrom
no_reorient  #important for SAPT in psi4, default
symmetry c1  #important for SAPT in psi4, default
}

set PROPERTIES_ORIGIN ["COM"]
properties('MP2/aug-cc-pvtz', properties = ['dipole'])
--------------------------------------------------------------------------

    Molecular point group: c1
  Charge       = 0
  Multiplicity = 1
  Basis Set: AUG-CC-PVTZ
    Blend: AUG-CC-PVTZ
  Basis Set: (AUG-CC-PVTZ AUX)
    Blend: AUG-CC-PVTZ-JKFIT

    Orbital Energies [Eh]
    ---------------------

    Doubly Occupied:

       1A    -11.231665     2A    -11.228841     3A     -1.037677
       4A     -0.789687     5A     -0.640689     6A     -0.592648
       7A     -0.500851     8A     -0.381469

  @DF-RHF Final Energy:   -78.06436197222590

   => Energetics <=

    Nuclear Repulsion Energy =             33.4835382825221259
    One-Electron Energy =                -170.2887458838669090
    Two-Electron Energy =                  58.7408456291188941
    Total Energy =                        -78.0643619722258961
  Basis Set: (AUG-CC-PVTZ AUX)
    Blend: AUG-CC-PVTZ-RI
    Molecular point group: c1

    Geometry (in Angstrom), charge = 0, multiplicity = 1:

       Center              X                  Y                   Z               Mass
    ------------   -----------------  -----------------  -----------------  -----------------
         C           -0.659625567145    -0.000000643814    -0.000001150514    12.000000000000
         H           -1.229729567145     0.923271356186     0.000007849486     1.007825032230
         H           -1.229740567145    -0.923262643814     0.000006849486     1.007825032230
         C            0.656750432855     0.000000356186    -0.000001150514    12.000000000000
         H            1.246854432855     0.923268356186     0.000005849486     1.007825032230
         H            1.246849432855    -0.923273643814     0.000006849486     1.007825032230

  Basis Set: AUG-CC-PVTZ
    Blend: AUG-CC-PVTZ
  Basis Set: (AUG-CC-PVTZ AUX)
    Blend: AUG-CC-PVTZ-JKFIT
	 Reference Energy          =     -78.0643619722258961 [Eh]
	 Singles Energy            =      -0.0000000000000000 [Eh]
	 Same-Spin Energy          =      -0.0764707965380795 [Eh]
	 Opposite-Spin Energy      =      -0.2982757384373277 [Eh]
	 Correlation Energy        =      -0.3747465349754072 [Eh]
	 Total Energy              =     -78.4391085072012970 [Eh]

	 ================> DF-SCS-MP2 Energies <==================
	-----------------------------------------------------------
	 SCS Same-Spin Scale       =       0.3333333333333333 [-]
	 SCS Opposite-Spin Scale   =       1.2000000000000000 [-]
	 SCS Same-Spin Energy      =      -0.0254902655126932 [Eh]
	 SCS Opposite-Spin Energy  =      -0.3579308861247933 [Eh]
	 SCS Correlation Energy    =      -0.3834211516374865 [Eh]
	 SCS Total Energy          =     -78.4477831238633883 [Eh]
	-----------------------------------------------------------

  Dipole Moment: [D]
     X:     0.0019      Y:     0.0000      Z:     0.0000     Total:     0.0019

*** Psi4 exiting successfully. Buy a developer a beer!
