                               Psi4 1.3.2 release

  ==> Input File <==

--------------------------------------------------------------------------
#psi4
#
memory 32 gb

molecule  {
0 1
  C        0.6683150    -0.0000330    -0.0001220
  H        1.2383130    -0.9235020     0.0004130
  H        1.2381380     0.9235610     0.0003570
  C       -0.4684070    -0.0000270    -0.0001450
  H       -1.2382130    -0.9235440     0.0004000
  H       -1.2376890     0.9238410     0.0004570
units angstrom
no_reorient  #important for SAPT in psi4, default
symmetry c1  #important for SAPT in psi4, default
}

set PROPERTIES_ORIGIN ["COM"]
properties('MP2/aug-cc-pvtz', properties = ['dipole'])
--------------------------------------------------------------------------

    Molecular point group: c1
  Charge       = 0
  Multiplicity = 1
  Basis Set: AUG-CC-PVTZ
    Blend: AUG-CC-PVTZ
  Basis Set: (AUG-CC-PVTZ AUX)
    Blend: AUG-CC-PVTZ-JKFIT

    Orbital Energies [Eh]
    ---------------------

    Doubly Occupied:

       1A    -11.220824     2A    -11.197000     3A     -1.093154
       4A     -0.753609     5A     -0.644342     6A     -0.619543
       7A     -0.438068     8A     -0.436188

  @DF-RHF Final Energy:   -77.98928653443595

   => Energetics <=

    Nuclear Repulsion Energy =             35.5055363969934064
    One-Electron Energy =                -174.1841868837255731
    Two-Electron Energy =                  60.6893639522962403
    Total Energy =                        -77.9892865344359336
  Basis Set: (AUG-CC-PVTZ AUX)
    Blend: AUG-CC-PVTZ-RI
    Molecular point group: c1

    Geometry (in Angstrom), charge = 0, multiplicity = 1:

       Center              X                  Y                   Z               Mass
    ------------   -----------------  -----------------  -----------------  -----------------
         C            0.582716070057    -0.000020113895    -0.000066195643    12.000000000000
         H            1.152714070057    -0.923489113895     0.000468804357     1.007825032230
         H            1.152539070057     0.923573886105     0.000412804357     1.007825032230
         C           -0.554005929943    -0.000014113895    -0.000089195643    12.000000000000
         H           -1.323811929943    -0.923531113895     0.000455804357     1.007825032230
         H           -1.323287929943     0.923853886105     0.000512804357     1.007825032230

  Basis Set: AUG-CC-PVTZ
    Blend: AUG-CC-PVTZ
  Basis Set: (AUG-CC-PVTZ AUX)
    Blend: AUG-CC-PVTZ-JKFIT
	 Reference Energy          =     -77.9892865344359478 [Eh]
	 Singles Energy            =      -0.0000000000000000 [Eh]
	 Same-Spin Energy          =      -0.0768247541168689 [Eh]
	 Opposite-Spin Energy      =      -0.2964873434681797 [Eh]
	 Correlation Energy        =      -0.3733120975850486 [Eh]
	 Total Energy              =     -78.3625986320209904 [Eh]

	 ================> DF-SCS-MP2 Energies <==================
	-----------------------------------------------------------
	 SCS Same-Spin Scale       =       0.3333333333333333 [-]
	 SCS Opposite-Spin Scale   =       1.2000000000000000 [-]
	 SCS Same-Spin Energy      =      -0.0256082513722896 [Eh]
	 SCS Opposite-Spin Energy  =      -0.3557848121618157 [Eh]
	 SCS Correlation Energy    =      -0.3813930635341053 [Eh]
	 SCS Total Energy          =     -78.3706795979700530 [Eh]
	-----------------------------------------------------------

  Dipole Moment: [D]
     X:     0.0603      Y:     0.0001      Z:     0.0013     Total:     0.0603

*** Psi4 exiting successfully. Buy a developer a beer!
