                               Psi4 1.3.2 release

  ==> Input File <==

--------------------------------------------------------------------------
#psi4
#
memory 32 gb

molecule  {
0 1
  S        1.5992360    -0.0004910    -0.9713300
  N        2.9928530     0.0007270     1.5561310
  C       -0.0983020    -0.0001890    -0.3868260
  C       -0.7602250     1.2164250    -0.1926110
  C       -0.6819708    -1.2165176     0.0456194
  C       -2.0926340     1.2101350     0.2229910
  C       -2.0927710    -1.2098700     0.2238180
  C       -2.7593910     0.0002400     0.4292470
  C        2.3883410     0.0002320     0.5352820
  H       -0.2335390     2.1531730    -0.3546160
  H       -0.2337770    -2.1535140    -0.3531260
  H       -2.6102660     2.1527600     0.3813710
  H       -2.6105080    -2.1523280     0.3828450
  H       -3.7976120     0.0004090     0.7511150
units angstrom
no_reorient  #important for SAPT in psi4, default
symmetry c1  #important for SAPT in psi4, default
}

set PROPERTIES_ORIGIN ["COM"]
properties('MP2/aug-cc-pvtz', properties = ['dipole'])
--------------------------------------------------------------------------

    Molecular point group: c1
  Charge       = 0
  Multiplicity = 1
  Basis Set: AUG-CC-PVTZ
    Blend: AUG-CC-PVTZ
  Basis Set: (AUG-CC-PVTZ AUX)
    Blend: AUG-CC-PVTZ-JKFIT

    Orbital Energies [Eh]
    ---------------------

    Doubly Occupied:

       1A    -92.023311     2A    -15.586919     3A    -11.303259
       4A    -11.302353     5A    -11.275725     6A    -11.270111
       7A    -11.268535     8A    -11.266168     9A    -11.264992
      10A     -9.022410    11A     -6.703880    12A     -6.702366
      13A     -6.701518    14A     -1.213426    15A     -1.183179
      16A     -1.091176    17A     -1.041374    18A     -0.998605
      19A     -0.855799    20A     -0.835900    21A     -0.732248
      22A     -0.685660    23A     -0.653157    24A     -0.644981
      25A     -0.611967    26A     -0.583984    27A     -0.558963
      28A     -0.533829    29A     -0.526495    30A     -0.511425
      31A     -0.509224    32A     -0.448501    33A     -0.388460
      34A     -0.365115    35A     -0.362504

  @DF-RHF Final Energy:  -720.04624252737858

   => Energetics <=

    Nuclear Repulsion Energy =            439.9928000495381752
    One-Electron Energy =               -1858.0230394791592516
    Two-Electron Energy =                 697.9839969022425521
    Total Energy =                       -720.0462425273785811
  Basis Set: (AUG-CC-PVTZ AUX)
    Blend: AUG-CC-PVTZ-RI
    Molecular point group: c1

    Geometry (in Angstrom), charge = 0, multiplicity = 1:

       Center              X                  Y                   Z               Mass
    ------------   -----------------  -----------------  -----------------  -----------------
         S            1.522824316182    -0.000494337872    -0.986730882177    31.972071174400
         N            2.916441316182     0.000723662128     1.540730117823    14.003074004430
         C           -0.174713683818    -0.000192337872    -0.402226882177    12.000000000000
         C           -0.836636683818     1.216421662128    -0.208011882177    12.000000000000
         C           -0.758382483818    -1.216520937872     0.030218517823    12.000000000000
         C           -2.169045683818     1.210131662128     0.207590117823    12.000000000000
         C           -2.169182683818    -1.209873337872     0.208417117823    12.000000000000
         C           -2.835802683818     0.000236662128     0.413846117823    12.000000000000
         C            2.311929316182     0.000228662128     0.519881117823    12.000000000000
         H           -0.309950683818     2.153169662128    -0.370016882177     1.007825032230
         H           -0.310188683818    -2.153517337872    -0.368526882177     1.007825032230
         H           -2.686677683818     2.152756662128     0.365970117823     1.007825032230
         H           -2.686919683818    -2.152331337872     0.367444117823     1.007825032230
         H           -3.874023683818     0.000405662128     0.735714117823     1.007825032230

  Basis Set: AUG-CC-PVTZ
    Blend: AUG-CC-PVTZ
  Basis Set: (AUG-CC-PVTZ AUX)
    Blend: AUG-CC-PVTZ-JKFIT
	 Reference Energy          =    -720.0462425273785811 [Eh]
	 Singles Energy            =      -0.0000000000000000 [Eh]
	 Same-Spin Energy          =      -0.4140352214219799 [Eh]
	 Opposite-Spin Energy      =      -1.2545156830424427 [Eh]
	 Correlation Energy        =      -1.6685509044644227 [Eh]
	 Total Energy              =    -721.7147934318429634 [Eh]

	 ================> DF-SCS-MP2 Energies <==================
	-----------------------------------------------------------
	 SCS Same-Spin Scale       =       0.3333333333333333 [-]
	 SCS Opposite-Spin Scale   =       1.2000000000000000 [-]
	 SCS Same-Spin Energy      =      -0.1380117404739933 [Eh]
	 SCS Opposite-Spin Energy  =      -1.5054188196509311 [Eh]
	 SCS Correlation Energy    =      -1.6434305601249244 [Eh]
	 SCS Total Energy          =    -721.6896730875034791 [Eh]
	-----------------------------------------------------------

  Dipole Moment: [D]
     X:    -4.2618      Y:     0.0883      Z:    -2.0564     Total:     4.7328

*** Psi4 exiting successfully. Buy a developer a beer!
