                               Psi4 1.3.2 release

  ==> Input File <==

--------------------------------------------------------------------------
#psi4
#
memory 32 gb

molecule  {
0 1
  S        1.5992360    -0.0004910    -0.9713300
  N        2.9928530     0.0007270     1.5561310
  C       -0.0983020    -0.0001890    -0.3868260
  C       -0.7602250     1.2164250    -0.1926110
  C       -0.6976487    -1.2165331    -0.0018591
  C       -2.0926340     1.2101350     0.2229910
  C       -2.0927710    -1.2098700     0.2238180
  C       -2.7593910     0.0002400     0.4292470
  C        2.3883410     0.0002320     0.5352820
  H       -0.2335390     2.1531730    -0.3546160
  H       -0.2337770    -2.1535140    -0.3531260
  H       -2.6102660     2.1527600     0.3813710
  H       -2.6105080    -2.1523280     0.3828450
  H       -3.7976120     0.0004090     0.7511150
units angstrom
no_reorient  #important for SAPT in psi4, default
symmetry c1  #important for SAPT in psi4, default
}

set PROPERTIES_ORIGIN ["COM"]
properties('MP2/aug-cc-pvtz', properties = ['dipole'])
--------------------------------------------------------------------------

    Molecular point group: c1
  Charge       = 0
  Multiplicity = 1
  Basis Set: AUG-CC-PVTZ
    Blend: AUG-CC-PVTZ
  Basis Set: (AUG-CC-PVTZ AUX)
    Blend: AUG-CC-PVTZ-JKFIT

    Orbital Energies [Eh]
    ---------------------

    Doubly Occupied:

       1A    -92.023359     2A    -15.586932     3A    -11.303231
       4A    -11.300807     5A    -11.273975     6A    -11.270281
       7A    -11.266900     8A    -11.265742     9A    -11.264235
      10A     -9.022433    11A     -6.703905    12A     -6.702388
      13A     -6.701546    14A     -1.213480    15A     -1.183922
      16A     -1.091183    17A     -1.042360    18A     -0.999005
      19A     -0.856254    20A     -0.837093    21A     -0.733103
      22A     -0.685882    23A     -0.654728    24A     -0.645219
      25A     -0.613406    26A     -0.584752    27A     -0.559247
      28A     -0.533736    29A     -0.527441    30A     -0.512260
      31A     -0.510570    32A     -0.448420    33A     -0.388041
      34A     -0.366037    35A     -0.362834

  @DF-RHF Final Energy:  -720.05344605865366

   => Energetics <=

    Nuclear Repulsion Energy =            440.1681590869193883
    One-Electron Energy =               -1858.3737920772473444
    Two-Electron Energy =                 698.1521869316743505
    Total Energy =                       -720.0534460586536625
  Basis Set: (AUG-CC-PVTZ AUX)
    Blend: AUG-CC-PVTZ-RI
    Molecular point group: c1

    Geometry (in Angstrom), charge = 0, multiplicity = 1:

       Center              X                  Y                   Z               Mass
    ------------   -----------------  -----------------  -----------------  -----------------
         S            1.524217759997    -0.000492960240    -0.982511017132    31.972071174400
         N            2.917834759997     0.000725039760     1.544949982868    14.003074004430
         C           -0.173320240003    -0.000190960240    -0.398007017132    12.000000000000
         C           -0.835243240003     1.216423039760    -0.203792017132    12.000000000000
         C           -0.772666940003    -1.216535060240    -0.013040117132    12.000000000000
         C           -2.167652240003     1.210133039760     0.211809982868    12.000000000000
         C           -2.167789240003    -1.209871960240     0.212636982868    12.000000000000
         C           -2.834409240003     0.000238039760     0.418065982868    12.000000000000
         C            2.313322759997     0.000230039760     0.524100982868    12.000000000000
         H           -0.308557240003     2.153171039760    -0.365797017132     1.007825032230
         H           -0.308795240003    -2.153515960240    -0.364307017132     1.007825032230
         H           -2.685284240003     2.152758039760     0.370189982868     1.007825032230
         H           -2.685526240003    -2.152329960240     0.371663982868     1.007825032230
         H           -3.872630240003     0.000407039760     0.739933982868     1.007825032230

  Basis Set: AUG-CC-PVTZ
    Blend: AUG-CC-PVTZ
  Basis Set: (AUG-CC-PVTZ AUX)
    Blend: AUG-CC-PVTZ-JKFIT
	 Reference Energy          =    -720.0534460586536625 [Eh]
	 Singles Energy            =      -0.0000000000000000 [Eh]
	 Same-Spin Energy          =      -0.4136355129460692 [Eh]
	 Opposite-Spin Energy      =      -1.2533845042687661 [Eh]
	 Correlation Energy        =      -1.6670200172148353 [Eh]
	 Total Energy              =    -721.7204660758684440 [Eh]

	 ================> DF-SCS-MP2 Energies <==================
	-----------------------------------------------------------
	 SCS Same-Spin Scale       =       0.3333333333333333 [-]
	 SCS Opposite-Spin Scale   =       1.2000000000000000 [-]
	 SCS Same-Spin Energy      =      -0.1378785043153564 [Eh]
	 SCS Opposite-Spin Energy  =      -1.5040614051225194 [Eh]
	 SCS Correlation Energy    =      -1.6419399094378757 [Eh]
	 SCS Total Energy          =    -721.6953859680915002 [Eh]
	-----------------------------------------------------------

  Dipole Moment: [D]
     X:    -4.2328      Y:     0.0543      Z:    -2.0423     Total:     4.7001

*** Psi4 exiting successfully. Buy a developer a beer!
