                               Psi4 1.3.2 release

  ==> Input File <==

--------------------------------------------------------------------------
#psi4
#
memory 32 gb

molecule  {
0 1
  S        1.5992360    -0.0004910    -0.9713300
  N        2.9928530     0.0007270     1.5561310
  C       -0.0983020    -0.0001890    -0.3868260
  C       -0.7602250     1.2164250    -0.1926110
  C       -0.7603600    -1.2165950    -0.1917730
  C       -2.0926340     1.2101350     0.2229910
  C       -2.0927710    -1.2098700     0.2238180
  C       -2.7593910     0.0002400     0.4292470
  C        2.3883410     0.0002320     0.5352820
  H       -0.3219633     2.1519077    -0.6412857
  H       -0.2337770    -2.1535140    -0.3531260
  H       -2.6102660     2.1527600     0.3813710
  H       -2.6105080    -2.1523280     0.3828450
  H       -3.7976120     0.0004090     0.7511150
units angstrom
no_reorient  #important for SAPT in psi4, default
symmetry c1  #important for SAPT in psi4, default
}

set PROPERTIES_ORIGIN ["COM"]
properties('MP2/aug-cc-pvtz', properties = ['dipole'])
--------------------------------------------------------------------------

    Molecular point group: c1
  Charge       = 0
  Multiplicity = 1
  Basis Set: AUG-CC-PVTZ
    Blend: AUG-CC-PVTZ
  Basis Set: (AUG-CC-PVTZ AUX)
    Blend: AUG-CC-PVTZ-JKFIT

    Orbital Energies [Eh]
    ---------------------

    Doubly Occupied:

       1A    -92.023347     2A    -15.586828     3A    -11.302980
       4A    -11.298872     5A    -11.274160     6A    -11.270982
       7A    -11.266968     8A    -11.263397     9A    -11.263185
      10A     -9.022359    11A     -6.703826    12A     -6.702343
      13A     -6.701497    14A     -1.213314    15A     -1.185544
      16A     -1.091297    17A     -1.043762    18A     -0.999605
      19A     -0.855605    20A     -0.839102    21A     -0.733326
      22A     -0.682956    23A     -0.657918    24A     -0.645015
      25A     -0.613642    26A     -0.585005    27A     -0.559586
      28A     -0.536526    29A     -0.527551    30A     -0.513345
      31A     -0.509503    32A     -0.448001    33A     -0.386912
      34A     -0.367984    35A     -0.363121

  @DF-RHF Final Energy:  -720.05967576994180

   => Energetics <=

    Nuclear Repulsion Energy =            440.0965844299183800
    One-Electron Energy =               -1858.2337952004972976
    Two-Electron Energy =                 698.0775350006369990
    Total Energy =                       -720.0596757699418049
  Basis Set: (AUG-CC-PVTZ AUX)
    Blend: AUG-CC-PVTZ-RI
    Molecular point group: c1

    Geometry (in Angstrom), charge = 0, multiplicity = 1:

       Center              X                  Y                   Z               Mass
    ------------   -----------------  -----------------  -----------------  -----------------
         S            1.530451558994    -0.000478013664    -0.963491696484    31.972071174400
         N            2.924068558994     0.000739986336     1.563969303516    14.003074004430
         C           -0.167086441006    -0.000176013664    -0.378987696484    12.000000000000
         C           -0.829009441006     1.216437986336    -0.184772696484    12.000000000000
         C           -0.829144441006    -1.216582013664    -0.183934696484    12.000000000000
         C           -2.161418441006     1.210147986336     0.230829303516    12.000000000000
         C           -2.161555441006    -1.209857013664     0.231656303516    12.000000000000
         C           -2.828175441006     0.000252986336     0.437085303516    12.000000000000
         C            2.319556558994     0.000244986336     0.543120303516    12.000000000000
         H           -0.390747741006     2.151920686336    -0.633447396484     1.007825032230
         H           -0.302561441006    -2.153501013664    -0.345287696484     1.007825032230
         H           -2.679050441006     2.152772986336     0.389209303516     1.007825032230
         H           -2.679292441006    -2.152315013664     0.390683303516     1.007825032230
         H           -3.866396441006     0.000421986336     0.758953303516     1.007825032230

  Basis Set: AUG-CC-PVTZ
    Blend: AUG-CC-PVTZ
  Basis Set: (AUG-CC-PVTZ AUX)
    Blend: AUG-CC-PVTZ-JKFIT
	 Reference Energy          =    -720.0596757699418049 [Eh]
	 Singles Energy            =      -0.0000000000000000 [Eh]
	 Same-Spin Energy          =      -0.4132248258728144 [Eh]
	 Opposite-Spin Energy      =      -1.2521162974462861 [Eh]
	 Correlation Energy        =      -1.6653411233191004 [Eh]
	 Total Energy              =    -721.7250168932608858 [Eh]

	 ================> DF-SCS-MP2 Energies <==================
	-----------------------------------------------------------
	 SCS Same-Spin Scale       =       0.3333333333333333 [-]
	 SCS Opposite-Spin Scale   =       1.2000000000000000 [-]
	 SCS Same-Spin Energy      =      -0.1377416086242715 [Eh]
	 SCS Opposite-Spin Energy  =      -1.5025395569355433 [Eh]
	 SCS Correlation Energy    =      -1.6402811655598148 [Eh]
	 SCS Total Energy          =    -721.6999569355016320 [Eh]
	-----------------------------------------------------------

  Dipole Moment: [D]
     X:    -4.2563      Y:    -0.0451      Z:    -2.1324     Total:     4.7608

*** Psi4 exiting successfully. Buy a developer a beer!
