                               Psi4 1.3.2 release

  ==> Input File <==

--------------------------------------------------------------------------
#psi4
#
memory 32 gb

molecule  {
0 1
  S        1.5992360    -0.0004910    -0.9713300
  N        2.9928530     0.0007270     1.5561310
  C       -0.0983020    -0.0001890    -0.3868260
  C       -0.7602250     1.2164250    -0.1926110
  C       -0.7603600    -1.2165950    -0.1917730
  C       -2.0926340     1.2101350     0.2229910
  C       -2.0927710    -1.2098700     0.2238180
  C       -2.7593910     0.0002400     0.4292470
  C        2.3883410     0.0002320     0.5352820
  H       -0.2482764     2.1529621    -0.4023943
  H       -0.2337770    -2.1535140    -0.3531260
  H       -2.6102660     2.1527600     0.3813710
  H       -2.6105080    -2.1523280     0.3828450
  H       -3.7976120     0.0004090     0.7511150
units angstrom
no_reorient  #important for SAPT in psi4, default
symmetry c1  #important for SAPT in psi4, default
}

set PROPERTIES_ORIGIN ["COM"]
properties('MP2/aug-cc-pvtz', properties = ['dipole'])
--------------------------------------------------------------------------

    Molecular point group: c1
  Charge       = 0
  Multiplicity = 1
  Basis Set: AUG-CC-PVTZ
    Blend: AUG-CC-PVTZ
  Basis Set: (AUG-CC-PVTZ AUX)
    Blend: AUG-CC-PVTZ-JKFIT

    Orbital Energies [Eh]
    ---------------------

    Doubly Occupied:

       1A    -92.023548     2A    -15.586995     3A    -11.303185
       4A    -11.298337     5A    -11.270833     6A    -11.270717
       7A    -11.266712     8A    -11.262733     9A    -11.262543
      10A     -9.022554    11A     -6.704027    12A     -6.702510
      13A     -6.701681    14A     -1.213560    15A     -1.185432
      16A     -1.091232    17A     -1.044372    18A     -0.999756
      19A     -0.856962    20A     -0.839636    21A     -0.734911
      22A     -0.685652    23A     -0.657657    24A     -0.645244
      25A     -0.616148    26A     -0.586725    27A     -0.559890
      28A     -0.532774    29A     -0.529069    30A     -0.515852
      31A     -0.511678    32A     -0.448155    33A     -0.387180
      34A     -0.367879    35A     -0.363595

  @DF-RHF Final Energy:  -720.06573951808525

   => Energetics <=

    Nuclear Repulsion Energy =            440.3065844352423142
    One-Electron Energy =               -1858.6451808185377104
    Two-Electron Energy =                 698.2728568652102012
    Total Energy =                       -720.0657395180852518
  Basis Set: (AUG-CC-PVTZ AUX)
    Blend: AUG-CC-PVTZ-RI
    Molecular point group: c1

    Geometry (in Angstrom), charge = 0, multiplicity = 1:

       Center              X                  Y                   Z               Mass
    ------------   -----------------  -----------------  -----------------  -----------------
         S            1.529901517119    -0.000485884319    -0.965274920822    31.972071174400
         N            2.923518517119     0.000732115681     1.562186079178    14.003074004430
         C           -0.167636482881    -0.000183884319    -0.380770920822    12.000000000000
         C           -0.829559482881     1.216430115681    -0.186555920822    12.000000000000
         C           -0.829694482881    -1.216589884319    -0.185717920822    12.000000000000
         C           -2.161968482881     1.210140115681     0.229046079178    12.000000000000
         C           -2.162105482881    -1.209864884319     0.229873079178    12.000000000000
         C           -2.828725482881     0.000245115681     0.435302079178    12.000000000000
         C            2.319006517119     0.000237115681     0.541337079178    12.000000000000
         H           -0.317610882881     2.152967215681    -0.396339220822     1.007825032230
         H           -0.303111482881    -2.153508884319    -0.347070920822     1.007825032230
         H           -2.679600482881     2.152765115681     0.387426079178     1.007825032230
         H           -2.679842482881    -2.152322884319     0.388900079178     1.007825032230
         H           -3.866946482881     0.000414115681     0.757170079178     1.007825032230

  Basis Set: AUG-CC-PVTZ
    Blend: AUG-CC-PVTZ
  Basis Set: (AUG-CC-PVTZ AUX)
    Blend: AUG-CC-PVTZ-JKFIT
	 Reference Energy          =    -720.0657395180852518 [Eh]
	 Singles Energy            =      -0.0000000000000000 [Eh]
	 Same-Spin Energy          =      -0.4129120389748382 [Eh]
	 Opposite-Spin Energy      =      -1.2513854082804576 [Eh]
	 Correlation Energy        =      -1.6642974472552958 [Eh]
	 Total Energy              =    -721.7300369653405596 [Eh]

	 ================> DF-SCS-MP2 Energies <==================
	-----------------------------------------------------------
	 SCS Same-Spin Scale       =       0.3333333333333333 [-]
	 SCS Opposite-Spin Scale   =       1.2000000000000000 [-]
	 SCS Same-Spin Energy      =      -0.1376373463249461 [Eh]
	 SCS Opposite-Spin Energy  =      -1.5016624899365492 [Eh]
	 SCS Correlation Energy    =      -1.6392998362614952 [Eh]
	 SCS Total Energy          =    -721.7050393543466953 [Eh]
	-----------------------------------------------------------

  Dipole Moment: [D]
     X:    -4.1810      Y:    -0.0010      Z:    -2.0052     Total:     4.6370

*** Psi4 exiting successfully. Buy a developer a beer!
