                               Psi4 1.3.2 release

  ==> Input File <==

--------------------------------------------------------------------------
#psi4
#
memory 32 gb

molecule  {
0 1
  S        1.5992360    -0.0004910    -0.9713300
  N        2.9928530     0.0007270     1.5561310
  C       -0.0983020    -0.0001890    -0.3868260
  C       -0.7602250     1.2164250    -0.1926110
  C       -0.7603600    -1.2165950    -0.1917730
  C       -2.0926340     1.2101350     0.2229910
  C       -2.0927710    -1.2098700     0.2238180
  C       -2.7593910     0.0002400     0.4292470
  C        2.3883410     0.0002320     0.5352820
  H       -0.2335390     2.1531730    -0.3546160
  H       -0.2337770    -2.1535140    -0.3531260
  H       -2.6250979     2.1527255     0.3336215
  H       -2.6105080    -2.1523280     0.3828450
  H       -3.7976120     0.0004090     0.7511150
units angstrom
no_reorient  #important for SAPT in psi4, default
symmetry c1  #important for SAPT in psi4, default
}

set PROPERTIES_ORIGIN ["COM"]
properties('MP2/aug-cc-pvtz', properties = ['dipole'])
--------------------------------------------------------------------------

    Molecular point group: c1
  Charge       = 0
  Multiplicity = 1
  Basis Set: AUG-CC-PVTZ
    Blend: AUG-CC-PVTZ
  Basis Set: (AUG-CC-PVTZ AUX)
    Blend: AUG-CC-PVTZ-JKFIT

    Orbital Energies [Eh]
    ---------------------

    Doubly Occupied:

       1A    -92.023580     2A    -15.587032     3A    -11.303225
       4A    -11.298328     5A    -11.270753     6A    -11.270712
       7A    -11.266724     8A    -11.262794     9A    -11.262578
      10A     -9.022587    11A     -6.704061    12A     -6.702537
      13A     -6.701711    14A     -1.213608    15A     -1.185437
      16A     -1.091245    17A     -1.044370    18A     -0.999770
      19A     -0.856948    20A     -0.839639    21A     -0.734845
      22A     -0.685936    23A     -0.657657    24A     -0.644826
      25A     -0.616120    26A     -0.587001    27A     -0.559966
      28A     -0.532734    29A     -0.529042    30A     -0.515737
      31A     -0.511714    32A     -0.448216    33A     -0.387197
      34A     -0.367889    35A     -0.363636

  @DF-RHF Final Energy:  -720.06571001035286

   => Energetics <=

    Nuclear Repulsion Energy =            440.3135630463327175
    One-Electron Energy =               -1858.6582307504338587
    Two-Electron Energy =                 698.2789576937482252
    Total Energy =                       -720.0657100103528592
  Basis Set: (AUG-CC-PVTZ AUX)
    Blend: AUG-CC-PVTZ-RI
    Molecular point group: c1

    Geometry (in Angstrom), charge = 0, multiplicity = 1:

       Center              X                  Y                   Z               Mass
    ------------   -----------------  -----------------  -----------------  -----------------
         S            1.529902222522    -0.000487201071    -0.965275135802    31.972071174400
         N            2.923519222522     0.000730798929     1.562185864198    14.003074004430
         C           -0.167635777478    -0.000185201071    -0.380771135802    12.000000000000
         C           -0.829558777478     1.216428798929    -0.186556135802    12.000000000000
         C           -0.829693777478    -1.216591201071    -0.185718135802    12.000000000000
         C           -2.161967777478     1.210138798929     0.229045864198    12.000000000000
         C           -2.162104777478    -1.209866201071     0.229872864198    12.000000000000
         C           -2.828724777478     0.000243798929     0.435301864198    12.000000000000
         C            2.319007222522     0.000235798929     0.541336864198    12.000000000000
         H           -0.302872777478     2.153176798929    -0.348561135802     1.007825032230
         H           -0.303110777478    -2.153510201071    -0.347071135802     1.007825032230
         H           -2.694431677478     2.152729298929     0.339676364198     1.007825032230
         H           -2.679841777478    -2.152324201071     0.388899864198     1.007825032230
         H           -3.866945777478     0.000412798929     0.757169864198     1.007825032230

  Basis Set: AUG-CC-PVTZ
    Blend: AUG-CC-PVTZ
  Basis Set: (AUG-CC-PVTZ AUX)
    Blend: AUG-CC-PVTZ-JKFIT
	 Reference Energy          =    -720.0657100103528592 [Eh]
	 Singles Energy            =      -0.0000000000000000 [Eh]
	 Same-Spin Energy          =      -0.4129191913758951 [Eh]
	 Opposite-Spin Energy      =      -1.2514146584360355 [Eh]
	 Correlation Energy        =      -1.6643338498119307 [Eh]
	 Total Energy              =    -721.7300438601647556 [Eh]

	 ================> DF-SCS-MP2 Energies <==================
	-----------------------------------------------------------
	 SCS Same-Spin Scale       =       0.3333333333333333 [-]
	 SCS Opposite-Spin Scale   =       1.2000000000000000 [-]
	 SCS Same-Spin Energy      =      -0.1376397304586317 [Eh]
	 SCS Opposite-Spin Energy  =      -1.5016975901232426 [Eh]
	 SCS Correlation Energy    =      -1.6393373205818742 [Eh]
	 SCS Total Energy          =    -721.7050473309346899 [Eh]
	-----------------------------------------------------------

  Dipole Moment: [D]
     X:    -4.1786      Y:    -0.0029      Z:    -2.0072     Total:     4.6357

*** Psi4 exiting successfully. Buy a developer a beer!
