                               Psi4 1.3.2 release

  ==> Input File <==

--------------------------------------------------------------------------
#psi4
#
memory 32 gb

molecule  {
0 1
  S        1.5992360    -0.0004910    -0.9713300
  N        2.9928530     0.0007270     1.5561310
  C       -0.0983020    -0.0001890    -0.3868260
  C       -0.7602250     1.2164250    -0.1926110
  C       -0.7603600    -1.2165950    -0.1917730
  C       -2.0926340     1.2101350     0.2229910
  C       -2.0927710    -1.2098700     0.2238180
  C       -2.7593910     0.0002400     0.4292470
  C        2.3883410     0.0002320     0.5352820
  H       -0.2335390     2.1531730    -0.3546160
  H       -0.2337770    -2.1535140    -0.3531260
  H       -2.6102660     2.1527600     0.3813710
  H       -2.6105080    -2.1523280     0.3828450
  H       -3.8271804     0.0003780     0.6555864
units angstrom
no_reorient  #important for SAPT in psi4, default
symmetry c1  #important for SAPT in psi4, default
}

set PROPERTIES_ORIGIN ["COM"]
properties('MP2/aug-cc-pvtz', properties = ['dipole'])
--------------------------------------------------------------------------

    Molecular point group: c1
  Charge       = 0
  Multiplicity = 1
  Basis Set: AUG-CC-PVTZ
    Blend: AUG-CC-PVTZ
  Basis Set: (AUG-CC-PVTZ AUX)
    Blend: AUG-CC-PVTZ-JKFIT

    Orbital Energies [Eh]
    ---------------------

    Doubly Occupied:

       1A    -92.023612     2A    -15.587068     3A    -11.303253
       4A    -11.298403     5A    -11.270760     6A    -11.270719
       7A    -11.267105     8A    -11.262795     9A    -11.262619
      10A     -9.022616    11A     -6.704089    12A     -6.702570
      13A     -6.701741    14A     -1.213638    15A     -1.185461
      16A     -1.091224    17A     -1.044429    18A     -0.999665
      19A     -0.857035    20A     -0.839427    21A     -0.734670
      22A     -0.685383    23A     -0.657683    24A     -0.645037
      25A     -0.616231    26A     -0.587306    27A     -0.560143
      28A     -0.529372    29A     -0.529194    30A     -0.518028
      31A     -0.511809    32A     -0.448157    33A     -0.387240
      34A     -0.367770    35A     -0.363662

  @DF-RHF Final Energy:  -720.06523585524212

   => Energetics <=

    Nuclear Repulsion Energy =            440.2996048366183004
    One-Electron Energy =               -1858.6298565379177035
    Two-Electron Energy =                 698.2650158460572811
    Total Energy =                       -720.0652358552421219
  Basis Set: (AUG-CC-PVTZ AUX)
    Blend: AUG-CC-PVTZ-RI
    Molecular point group: c1

    Geometry (in Angstrom), charge = 0, multiplicity = 1:

       Center              X                  Y                   Z               Mass
    ------------   -----------------  -----------------  -----------------  -----------------
         S            1.530012224328    -0.000487227197    -0.964918484814    31.972071174400
         N            2.923629224328     0.000730772803     1.562542515186    14.003074004430
         C           -0.167525775672    -0.000185227197    -0.380414484814    12.000000000000
         C           -0.829448775672     1.216428772803    -0.186199484814    12.000000000000
         C           -0.829583775672    -1.216591227197    -0.185361484814    12.000000000000
         C           -2.161857775672     1.210138772803     0.229402515186    12.000000000000
         C           -2.161994775672    -1.209866227197     0.230229515186    12.000000000000
         C           -2.828614775672     0.000243772803     0.435658515186    12.000000000000
         C            2.319117224328     0.000235772803     0.541693515186    12.000000000000
         H           -0.302762775672     2.153176772803    -0.348204484814     1.007825032230
         H           -0.303000775672    -2.153510227197    -0.346714484814     1.007825032230
         H           -2.679489775672     2.152763772803     0.387782515186     1.007825032230
         H           -2.679731775672    -2.152324227197     0.389256515186     1.007825032230
         H           -3.896404175672     0.000381772803     0.661997915186     1.007825032230

  Basis Set: AUG-CC-PVTZ
    Blend: AUG-CC-PVTZ
  Basis Set: (AUG-CC-PVTZ AUX)
    Blend: AUG-CC-PVTZ-JKFIT
	 Reference Energy          =    -720.0652358552421219 [Eh]
	 Singles Energy            =      -0.0000000000000000 [Eh]
	 Same-Spin Energy          =      -0.4129463036155261 [Eh]
	 Opposite-Spin Energy      =      -1.2514769853178036 [Eh]
	 Correlation Energy        =      -1.6644232889333297 [Eh]
	 Total Energy              =    -721.7296591441754572 [Eh]

	 ================> DF-SCS-MP2 Energies <==================
	-----------------------------------------------------------
	 SCS Same-Spin Scale       =       0.3333333333333333 [-]
	 SCS Opposite-Spin Scale   =       1.2000000000000000 [-]
	 SCS Same-Spin Energy      =      -0.1376487678718420 [Eh]
	 SCS Opposite-Spin Energy  =      -1.5017723823813642 [Eh]
	 SCS Correlation Energy    =      -1.6394211502532063 [Eh]
	 SCS Total Energy          =    -721.7046570054952781 [Eh]
	-----------------------------------------------------------

  Dipole Moment: [D]
     X:    -4.1822      Y:    -0.0009      Z:    -2.0391     Total:     4.6528

*** Psi4 exiting successfully. Buy a developer a beer!
