                               Psi4 1.3.2 release

  ==> Input File <==

--------------------------------------------------------------------------
#psi4
#
memory 32 gb

molecule  {
0 1
  S        1.5992360    -0.0004910    -0.9713300
  N        2.9928530     0.0007270     1.5561310
  C       -0.0983020    -0.0001890    -0.3868260
  C       -0.7602250     1.2164250    -0.1926110
  C       -0.7603600    -1.2165950    -0.1917730
  C       -2.0926340     1.2101350     0.2229910
  C       -2.0927710    -1.2098700     0.2238180
  C       -2.7593910     0.0002400     0.4292470
  C        2.3883410     0.0002320     0.5352820
  H       -0.2335390     2.1531730    -0.3546160
  H       -0.2337770    -2.1535140    -0.3531260
  H       -2.6547617     2.1526565     0.2381225
  H       -2.6105080    -2.1523280     0.3828450
  H       -3.7976120     0.0004090     0.7511150
units angstrom
no_reorient  #important for SAPT in psi4, default
symmetry c1  #important for SAPT in psi4, default
}

set PROPERTIES_ORIGIN ["COM"]
properties('MP2/aug-cc-pvtz', properties = ['dipole'])
--------------------------------------------------------------------------

    Molecular point group: c1
  Charge       = 0
  Multiplicity = 1
  Basis Set: AUG-CC-PVTZ
    Blend: AUG-CC-PVTZ
  Basis Set: (AUG-CC-PVTZ AUX)
    Blend: AUG-CC-PVTZ-JKFIT

    Orbital Energies [Eh]
    ---------------------

    Doubly Occupied:

       1A    -92.023619     2A    -15.587060     3A    -11.303235
       4A    -11.298385     5A    -11.270927     6A    -11.270880
       7A    -11.266897     8A    -11.263539     9A    -11.262686
      10A     -9.022626    11A     -6.704101    12A     -6.702576
      13A     -6.701750    14A     -1.213630    15A     -1.185498
      16A     -1.091255    17A     -1.044245    18A     -0.999810
      19A     -0.856568    20A     -0.839480    21A     -0.734477
      22A     -0.685949    23A     -0.657731    24A     -0.643802
      25A     -0.615518    26A     -0.587082    27A     -0.559991
      28A     -0.534316    29A     -0.528593    30A     -0.514713
      31A     -0.510988    32A     -0.448279    33A     -0.387195
      34A     -0.367916    35A     -0.363601

  @DF-RHF Final Energy:  -720.06439828454336

   => Energetics <=

    Nuclear Repulsion Energy =            440.2711833447726235
    One-Electron Energy =               -1858.5733313788164196
    Two-Electron Energy =                 698.2377497495003809
    Total Energy =                       -720.0643982845433584
  Basis Set: (AUG-CC-PVTZ AUX)
    Blend: AUG-CC-PVTZ-RI
    Molecular point group: c1

    Geometry (in Angstrom), charge = 0, multiplicity = 1:

       Center              X                  Y                   Z               Mass
    ------------   -----------------  -----------------  -----------------  -----------------
         S            1.530123650377    -0.000486686015    -0.964562275728    31.972071174400
         N            2.923740650377     0.000731313985     1.562898724272    14.003074004430
         C           -0.167414349623    -0.000184686015    -0.380058275728    12.000000000000
         C           -0.829337349623     1.216429313985    -0.185843275728    12.000000000000
         C           -0.829472349623    -1.216590686015    -0.185005275728    12.000000000000
         C           -2.161746349623     1.210139313985     0.229758724272    12.000000000000
         C           -2.161883349623    -1.209865686015     0.230585724272    12.000000000000
         C           -2.828503349623     0.000244313985     0.436014724272    12.000000000000
         C            2.319228650377     0.000236313985     0.542049724272    12.000000000000
         H           -0.302651349623     2.153177313985    -0.347848275728     1.007825032230
         H           -0.302889349623    -2.153509686015    -0.346358275728     1.007825032230
         H           -2.723874049623     2.152660813985     0.244890224272     1.007825032230
         H           -2.679620349623    -2.152323686015     0.389612724272     1.007825032230
         H           -3.866724349623     0.000413313985     0.757882724272     1.007825032230

  Basis Set: AUG-CC-PVTZ
    Blend: AUG-CC-PVTZ
  Basis Set: (AUG-CC-PVTZ AUX)
    Blend: AUG-CC-PVTZ-JKFIT
	 Reference Energy          =    -720.0643982845433584 [Eh]
	 Singles Energy            =      -0.0000000000000000 [Eh]
	 Same-Spin Energy          =      -0.4129857558282183 [Eh]
	 Opposite-Spin Energy      =      -1.2515869677717957 [Eh]
	 Correlation Energy        =      -1.6645727236000138 [Eh]
	 Total Energy              =    -721.7289710081433896 [Eh]

	 ================> DF-SCS-MP2 Energies <==================
	-----------------------------------------------------------
	 SCS Same-Spin Scale       =       0.3333333333333333 [-]
	 SCS Opposite-Spin Scale   =       1.2000000000000000 [-]
	 SCS Same-Spin Energy      =      -0.1376619186094061 [Eh]
	 SCS Opposite-Spin Energy  =      -1.5019043613261547 [Eh]
	 SCS Correlation Energy    =      -1.6395662799355608 [Eh]
	 SCS Total Energy          =    -721.7039645644789516 [Eh]
	-----------------------------------------------------------

  Dipole Moment: [D]
     X:    -4.1875      Y:    -0.0166      Z:    -2.0672     Total:     4.6700

*** Psi4 exiting successfully. Buy a developer a beer!
