                               Psi4 1.3.2 release

  ==> Input File <==

--------------------------------------------------------------------------
#psi4
#
memory 32 gb

molecule  {
0 1
  S        1.5992360    -0.0004910    -0.9713300
  N        2.9928530     0.0007270     1.5561310
  C       -0.0983020    -0.0001890    -0.3868260
  C       -0.7602250     1.2164250    -0.1926110
  C       -0.7603600    -1.2165950    -0.1917730
  C       -2.0926340     1.2101350     0.2229910
  C       -2.0927710    -1.2098700     0.2238180
  C       -2.7593910     0.0002400     0.4292470
  C        2.3883410     0.0002320     0.5352820
  H       -0.2630138     2.1527512    -0.4501726
  H       -0.2337770    -2.1535140    -0.3531260
  H       -2.6102660     2.1527600     0.3813710
  H       -2.6105080    -2.1523280     0.3828450
  H       -3.7976120     0.0004090     0.7511150
units angstrom
no_reorient  #important for SAPT in psi4, default
symmetry c1  #important for SAPT in psi4, default
}

set PROPERTIES_ORIGIN ["COM"]
properties('MP2/aug-cc-pvtz', properties = ['dipole'])
--------------------------------------------------------------------------

    Molecular point group: c1
  Charge       = 0
  Multiplicity = 1
  Basis Set: AUG-CC-PVTZ
    Blend: AUG-CC-PVTZ
  Basis Set: (AUG-CC-PVTZ AUX)
    Blend: AUG-CC-PVTZ-JKFIT

    Orbital Energies [Eh]
    ---------------------

    Doubly Occupied:

       1A    -92.023512     2A    -15.586958     3A    -11.303138
       4A    -11.298381     5A    -11.271136     6A    -11.270742
       7A    -11.266735     8A    -11.262783     9A    -11.262592
      10A     -9.022518    11A     -6.703991    12A     -6.702481
      13A     -6.701648    14A     -1.213507    15A     -1.185439
      16A     -1.091227    17A     -1.044317    18A     -0.999737
      19A     -0.856833    20A     -0.839581    21A     -0.734808
      22A     -0.685285    23A     -0.657679    24A     -0.645357
      25A     -0.615944    26A     -0.586440    27A     -0.559807
      28A     -0.533599    29A     -0.528815    30A     -0.515332
      31A     -0.511517    32A     -0.448117    33A     -0.387133
      34A     -0.367884    35A     -0.363549

  @DF-RHF Final Energy:  -720.06528185953209

   => Energetics <=

    Nuclear Repulsion Energy =            440.2820386181910521
    One-Electron Energy =               -1858.5976004950439346
    Two-Electron Energy =                 698.2502800173207334
    Total Energy =                       -720.0652818595320923
  Basis Set: (AUG-CC-PVTZ AUX)
    Blend: AUG-CC-PVTZ-RI
    Molecular point group: c1

    Geometry (in Angstrom), charge = 0, multiplicity = 1:

       Center              X                  Y                   Z               Mass
    ------------   -----------------  -----------------  -----------------  -----------------
         S            1.530011525644    -0.000484310039    -0.964918275805    31.972071174400
         N            2.923628525644     0.000733689961     1.562542724195    14.003074004430
         C           -0.167526474356    -0.000182310039    -0.380414275805    12.000000000000
         C           -0.829449474356     1.216431689961    -0.186199275805    12.000000000000
         C           -0.829584474356    -1.216588310039    -0.185361275805    12.000000000000
         C           -2.161858474356     1.210141689961     0.229402724195    12.000000000000
         C           -2.161995474356    -1.209863310039     0.230229724195    12.000000000000
         C           -2.828615474356     0.000246689961     0.435658724195    12.000000000000
         C            2.319116525644     0.000238689961     0.541693724195    12.000000000000
         H           -0.332238274356     2.152757889961    -0.443760875805     1.007825032230
         H           -0.303001474356    -2.153507310039    -0.346714275805     1.007825032230
         H           -2.679490474356     2.152766689961     0.387782724195     1.007825032230
         H           -2.679732474356    -2.152321310039     0.389256724195     1.007825032230
         H           -3.866836474356     0.000415689961     0.757526724195     1.007825032230

  Basis Set: AUG-CC-PVTZ
    Blend: AUG-CC-PVTZ
  Basis Set: (AUG-CC-PVTZ AUX)
    Blend: AUG-CC-PVTZ-JKFIT
	 Reference Energy          =    -720.0652818595320923 [Eh]
	 Singles Energy            =      -0.0000000000000000 [Eh]
	 Same-Spin Energy          =      -0.4129344206035119 [Eh]
	 Opposite-Spin Energy      =      -1.2514263070451408 [Eh]
	 Correlation Energy        =      -1.6643607276486527 [Eh]
	 Total Energy              =    -721.7296425871807060 [Eh]

	 ================> DF-SCS-MP2 Energies <==================
	-----------------------------------------------------------
	 SCS Same-Spin Scale       =       0.3333333333333333 [-]
	 SCS Opposite-Spin Scale   =       1.2000000000000000 [-]
	 SCS Same-Spin Energy      =      -0.1376448068678373 [Eh]
	 SCS Opposite-Spin Energy  =      -1.5017115684541689 [Eh]
	 SCS Correlation Energy    =      -1.6393563753220062 [Eh]
	 SCS Total Energy          =    -721.7046382348540874 [Eh]
	-----------------------------------------------------------

  Dipole Moment: [D]
     X:    -4.1928      Y:    -0.0041      Z:    -2.0320     Total:     4.6593

*** Psi4 exiting successfully. Buy a developer a beer!
