                               Psi4 1.3.2 release

  ==> Input File <==

--------------------------------------------------------------------------
#psi4
#
memory 32 gb

molecule  {
0 1
  S        1.5992360    -0.0004910    -0.9713300
  N        2.9928530     0.0007270     1.5561310
  C       -0.0983020    -0.0001890    -0.3868260
  C       -0.7602250     1.2164250    -0.1926110
  C       -0.7603600    -1.2165950    -0.1917730
  C       -2.0926340     1.2101350     0.2229910
  C       -2.0927710    -1.2098700     0.2238180
  C       -2.7593910     0.0002400     0.4292470
  C        2.3883410     0.0002320     0.5352820
  H       -0.2335390     2.1531730    -0.3546160
  H       -0.2337770    -2.1535140    -0.3531260
  H       -2.6695936     2.1526220     0.1903731
  H       -2.6105080    -2.1523280     0.3828450
  H       -3.7976120     0.0004090     0.7511150
units angstrom
no_reorient  #important for SAPT in psi4, default
symmetry c1  #important for SAPT in psi4, default
}

set PROPERTIES_ORIGIN ["COM"]
properties('MP2/aug-cc-pvtz', properties = ['dipole'])
--------------------------------------------------------------------------

    Molecular point group: c1
  Charge       = 0
  Multiplicity = 1
  Basis Set: AUG-CC-PVTZ
    Blend: AUG-CC-PVTZ
  Basis Set: (AUG-CC-PVTZ AUX)
    Blend: AUG-CC-PVTZ-JKFIT

    Orbital Energies [Eh]
    ---------------------

    Doubly Occupied:

       1A    -92.023657     2A    -15.587091     3A    -11.303256
       4A    -11.298440     5A    -11.271082     6A    -11.271026
       7A    -11.267053     8A    -11.264204     9A    -11.262748
      10A     -9.022665    11A     -6.704140    12A     -6.702615
      13A     -6.701789    14A     -1.213659    15A     -1.185555
      16A     -1.091269    17A     -1.044144    18A     -0.999849
      19A     -0.856263    20A     -0.839346    21A     -0.734166
      22A     -0.685941    23A     -0.657798    24A     -0.643047
      25A     -0.614965    26A     -0.587150    27A     -0.560031
      28A     -0.535092    29A     -0.528371    30A     -0.514400
      31A     -0.510203    32A     -0.448324    33A     -0.387218
      34A     -0.367937    35A     -0.363544

  @DF-RHF Final Energy:  -720.06319717120732

   => Energetics <=

    Nuclear Repulsion Energy =            440.2376038691904228
    One-Electron Energy =               -1858.5055262332409711
    Two-Electron Energy =                 698.2047251928431706
    Total Energy =                       -720.0631971712073209
  Basis Set: (AUG-CC-PVTZ AUX)
    Blend: AUG-CC-PVTZ-RI
    Molecular point group: c1

    Geometry (in Angstrom), charge = 0, multiplicity = 1:

       Center              X                  Y                   Z               Mass
    ------------   -----------------  -----------------  -----------------  -----------------
         S            1.530234364304    -0.000486428487    -0.964205846438    31.972071174400
         N            2.923851364304     0.000731571513     1.563255153562    14.003074004430
         C           -0.167303635696    -0.000184428487    -0.379701846438    12.000000000000
         C           -0.829226635696     1.216429571513    -0.185486846438    12.000000000000
         C           -0.829361635696    -1.216590428487    -0.184648846438    12.000000000000
         C           -2.161635635696     1.210139571513     0.230115153562    12.000000000000
         C           -2.161772635696    -1.209865428487     0.230942153562    12.000000000000
         C           -2.828392635696     0.000244571513     0.436371153562    12.000000000000
         C            2.319339364304     0.000236571513     0.542406153562    12.000000000000
         H           -0.302540635696     2.153177571513    -0.347491846438     1.007825032230
         H           -0.302778635696    -2.153509428487    -0.346001846438     1.007825032230
         H           -2.738595235696     2.152626571513     0.197497253562     1.007825032230
         H           -2.679509635696    -2.152323428487     0.389969153562     1.007825032230
         H           -3.866613635696     0.000413571513     0.758239153562     1.007825032230

  Basis Set: AUG-CC-PVTZ
    Blend: AUG-CC-PVTZ
  Basis Set: (AUG-CC-PVTZ AUX)
    Blend: AUG-CC-PVTZ-JKFIT
	 Reference Energy          =    -720.0631971712073209 [Eh]
	 Singles Energy            =      -0.0000000000000000 [Eh]
	 Same-Spin Energy          =      -0.4130428770196751 [Eh]
	 Opposite-Spin Energy      =      -1.2517395236776365 [Eh]
	 Correlation Energy        =      -1.6647824006973115 [Eh]
	 Total Energy              =    -721.7279795719045978 [Eh]

	 ================> DF-SCS-MP2 Energies <==================
	-----------------------------------------------------------
	 SCS Same-Spin Scale       =       0.3333333333333333 [-]
	 SCS Opposite-Spin Scale   =       1.2000000000000000 [-]
	 SCS Same-Spin Energy      =      -0.1376809590065584 [Eh]
	 SCS Opposite-Spin Energy  =      -1.5020874284131638 [Eh]
	 SCS Correlation Energy    =      -1.6397683874197222 [Eh]
	 SCS Total Energy          =    -721.7029655586270565 [Eh]
	-----------------------------------------------------------

  Dipole Moment: [D]
     X:    -4.1887      Y:    -0.0282      Z:    -2.0976     Total:     4.6846

*** Psi4 exiting successfully. Buy a developer a beer!
