                               Psi4 1.3.2 release

  ==> Input File <==

--------------------------------------------------------------------------
#psi4
#
memory 32 gb

molecule  {
0 1
  S        1.5992360    -0.0004910    -0.9713300
  N        2.9928530     0.0007270     1.5561310
  C       -0.0983020    -0.0001890    -0.3868260
  C       -0.7602250     1.2164250    -0.1926110
  C       -0.7446822    -1.2165795    -0.1442945
  C       -2.0926340     1.2101350     0.2229910
  C       -2.0927710    -1.2098700     0.2238180
  C       -2.7593910     0.0002400     0.4292470
  C        2.3883410     0.0002320     0.5352820
  H       -0.2335390     2.1531730    -0.3546160
  H       -0.2337770    -2.1535140    -0.3531260
  H       -2.6102660     2.1527600     0.3813710
  H       -2.6105080    -2.1523280     0.3828450
  H       -3.7976120     0.0004090     0.7511150
units angstrom
no_reorient  #important for SAPT in psi4, default
symmetry c1  #important for SAPT in psi4, default
}

set PROPERTIES_ORIGIN ["COM"]
properties('MP2/aug-cc-pvtz', properties = ['dipole'])
--------------------------------------------------------------------------

    Molecular point group: c1
  Charge       = 0
  Multiplicity = 1
  Basis Set: AUG-CC-PVTZ
    Blend: AUG-CC-PVTZ
  Basis Set: (AUG-CC-PVTZ AUX)
    Blend: AUG-CC-PVTZ-JKFIT

    Orbital Energies [Eh]
    ---------------------

    Doubly Occupied:

       1A    -92.023524     2A    -15.586995     3A    -11.303210
       4A    -11.298364     5A    -11.270919     6A    -11.270664
       7A    -11.266651     8A    -11.262929     9A    -11.262653
      10A     -9.022539    11A     -6.704014    12A     -6.702491
      13A     -6.701662    14A     -1.213589    15A     -1.185295
      16A     -1.091233    17A     -1.044179    18A     -0.999691
      19A     -0.857010    20A     -0.839390    21A     -0.734787
      22A     -0.686074    23A     -0.657469    24A     -0.645254
      25A     -0.616001    26A     -0.586532    27A     -0.559867
      28A     -0.532614    29A     -0.529090    30A     -0.515497
      31A     -0.511722    32A     -0.448229    33A     -0.387261
      34A     -0.367819    35A     -0.363468

  @DF-RHF Final Energy:  -720.06517318914655

   => Energetics <=

    Nuclear Repulsion Energy =            440.3681896477912687
    One-Electron Energy =               -1858.7693551871868749
    Two-Electron Energy =                 698.3359923502490574
    Total Energy =                       -720.0651731891465488
  Basis Set: (AUG-CC-PVTZ AUX)
    Blend: AUG-CC-PVTZ-RI
    Molecular point group: c1

    Geometry (in Angstrom), charge = 0, multiplicity = 1:

       Center              X                  Y                   Z               Mass
    ------------   -----------------  -----------------  -----------------  -----------------
         S            1.528398073668    -0.000488836231    -0.969851430884    31.972071174400
         N            2.922015073668     0.000729163769     1.557609569116    14.003074004430
         C           -0.169139926332    -0.000186836231    -0.385347430884    12.000000000000
         C           -0.831062926332     1.216427163769    -0.191132430884    12.000000000000
         C           -0.815520126332    -1.216577336231    -0.142815930884    12.000000000000
         C           -2.163471926332     1.210137163769     0.224469569116    12.000000000000
         C           -2.163608926332    -1.209867836231     0.225296569116    12.000000000000
         C           -2.830228926332     0.000242163769     0.430725569116    12.000000000000
         C            2.317503073668     0.000234163769     0.536760569116    12.000000000000
         H           -0.304376926332     2.153175163769    -0.353137430884     1.007825032230
         H           -0.304614926332    -2.153511836231    -0.351647430884     1.007825032230
         H           -2.681103926332     2.152762163769     0.382849569116     1.007825032230
         H           -2.681345926332    -2.152325836231     0.384323569116     1.007825032230
         H           -3.868449926332     0.000411163769     0.752593569116     1.007825032230

  Basis Set: AUG-CC-PVTZ
    Blend: AUG-CC-PVTZ
  Basis Set: (AUG-CC-PVTZ AUX)
    Blend: AUG-CC-PVTZ-JKFIT
	 Reference Energy          =    -720.0651731891465488 [Eh]
	 Singles Energy            =      -0.0000000000000000 [Eh]
	 Same-Spin Energy          =      -0.4129577131418301 [Eh]
	 Opposite-Spin Energy      =      -1.2515047005565458 [Eh]
	 Correlation Energy        =      -1.6644624136983759 [Eh]
	 Total Energy              =    -721.7296356028449509 [Eh]

	 ================> DF-SCS-MP2 Energies <==================
	-----------------------------------------------------------
	 SCS Same-Spin Scale       =       0.3333333333333333 [-]
	 SCS Opposite-Spin Scale   =       1.2000000000000000 [-]
	 SCS Same-Spin Energy      =      -0.1376525710472767 [Eh]
	 SCS Opposite-Spin Energy  =      -1.5018056406678550 [Eh]
	 SCS Correlation Energy    =      -1.6394582117151317 [Eh]
	 SCS Total Energy          =    -721.7046314008616719 [Eh]
	-----------------------------------------------------------

  Dipole Moment: [D]
     X:    -4.1784      Y:     0.0004      Z:    -1.9956     Total:     4.6305

*** Psi4 exiting successfully. Buy a developer a beer!
