                               Psi4 1.3.2 release

  ==> Input File <==

--------------------------------------------------------------------------
#psi4
#
memory 32 gb

molecule  {
0 1
  S        1.5992360    -0.0004910    -0.9713300
  N        2.9928530     0.0007270     1.5561310
  C       -0.0983020    -0.0001890    -0.3868260
  C       -0.7602250     1.2164250    -0.1926110
  C       -0.7603600    -1.2165950    -0.1917730
  C       -2.0926340     1.2101350     0.2229910
  C       -2.0927710    -1.2098700     0.2238180
  C       -2.7593910     0.0002400     0.4292470
  C        2.3883410     0.0002320     0.5352820
  H       -0.3072259     2.1521186    -0.5935074
  H       -0.2337770    -2.1535140    -0.3531260
  H       -2.6102660     2.1527600     0.3813710
  H       -2.6105080    -2.1523280     0.3828450
  H       -3.7976120     0.0004090     0.7511150
units angstrom
no_reorient  #important for SAPT in psi4, default
symmetry c1  #important for SAPT in psi4, default
}

set PROPERTIES_ORIGIN ["COM"]
properties('MP2/aug-cc-pvtz', properties = ['dipole'])
--------------------------------------------------------------------------

    Molecular point group: c1
  Charge       = 0
  Multiplicity = 1
  Basis Set: AUG-CC-PVTZ
    Blend: AUG-CC-PVTZ
  Basis Set: (AUG-CC-PVTZ AUX)
    Blend: AUG-CC-PVTZ-JKFIT

    Orbital Energies [Eh]
    ---------------------

    Doubly Occupied:

       1A    -92.023391     2A    -15.586857     3A    -11.303015
       4A    -11.298701     5A    -11.273147     6A    -11.270899
       7A    -11.266888     8A    -11.263182     9A    -11.262978
      10A     -9.022401    11A     -6.703870    12A     -6.702380
      13A     -6.701538    14A     -1.213359    15A     -1.185504
      16A     -1.091264    17A     -1.043939    18A     -0.999643
      19A     -0.855987    20A     -0.839259    21A     -0.733822
      22A     -0.683637    23A     -0.657834    24A     -0.645213
      25A     -0.614436    26A     -0.585417    27A     -0.559622
      28A     -0.535898    29A     -0.527858    30A     -0.513731
      31A     -0.510321    32A     -0.448025    33A     -0.386972
      34A     -0.367942    35A     -0.363264

  @DF-RHF Final Energy:  -720.06171842646313

   => Energetics <=

    Nuclear Repulsion Energy =            440.1552393755100070
    One-Electron Energy =               -1858.3495335421637265
    Two-Electron Energy =                 698.1325757401905321
    Total Energy =                       -720.0617184264631305
  Basis Set: (AUG-CC-PVTZ AUX)
    Blend: AUG-CC-PVTZ-RI
    Molecular point group: c1

    Geometry (in Angstrom), charge = 0, multiplicity = 1:

       Center              X                  Y                   Z               Mass
    ------------   -----------------  -----------------  -----------------  -----------------
         S            1.530341550470    -0.000479587945    -0.963848341501    31.972071174400
         N            2.923958550470     0.000738412055     1.563612658499    14.003074004430
         C           -0.167196449530    -0.000177587945    -0.379344341501    12.000000000000
         C           -0.829119449530     1.216436412055    -0.185129341501    12.000000000000
         C           -0.829254449530    -1.216583587945    -0.184291341501    12.000000000000
         C           -2.161528449530     1.210146412055     0.230472658499    12.000000000000
         C           -2.161665449530    -1.209858587945     0.231299658499    12.000000000000
         C           -2.828285449530     0.000251412055     0.436728658499    12.000000000000
         C            2.319446550470     0.000243412055     0.542763658499    12.000000000000
         H           -0.376120349530     2.152130012055    -0.586025741501     1.007825032230
         H           -0.302671449530    -2.153502587945    -0.345644341501     1.007825032230
         H           -2.679160449530     2.152771412055     0.388852658499     1.007825032230
         H           -2.679402449530    -2.152316587945     0.390326658499     1.007825032230
         H           -3.866506449530     0.000420412055     0.758596658499     1.007825032230

  Basis Set: AUG-CC-PVTZ
    Blend: AUG-CC-PVTZ
  Basis Set: (AUG-CC-PVTZ AUX)
    Blend: AUG-CC-PVTZ-JKFIT
	 Reference Energy          =    -720.0617184264631305 [Eh]
	 Singles Energy            =      -0.0000000000000000 [Eh]
	 Same-Spin Energy          =      -0.4131231250513252 [Eh]
	 Opposite-Spin Energy      =      -1.2518618884343256 [Eh]
	 Correlation Energy        =      -1.6649850134856508 [Eh]
	 Total Energy              =    -721.7267034399487784 [Eh]

	 ================> DF-SCS-MP2 Energies <==================
	-----------------------------------------------------------
	 SCS Same-Spin Scale       =       0.3333333333333333 [-]
	 SCS Opposite-Spin Scale   =       1.2000000000000000 [-]
	 SCS Same-Spin Energy      =      -0.1377077083504417 [Eh]
	 SCS Opposite-Spin Energy  =      -1.5022342661211907 [Eh]
	 SCS Correlation Energy    =      -1.6399419744716324 [Eh]
	 SCS Total Energy          =    -721.7016604009347702 [Eh]
	-----------------------------------------------------------

  Dipole Moment: [D]
     X:    -4.2382      Y:    -0.0307      Z:    -2.1085     Total:     4.7338

*** Psi4 exiting successfully. Buy a developer a beer!
