                               Psi4 1.3.2 release

  ==> Input File <==

--------------------------------------------------------------------------
#psi4
#
memory 32 gb

molecule  {
0 1
  S        1.5992360    -0.0004910    -0.9713300
  N        2.9928530     0.0007270     1.5561310
  C       -0.0983020    -0.0001890    -0.3868260
  C       -0.7602250     1.2164250    -0.1926110
  C       -0.7290043    -1.2165640    -0.0968161
  C       -2.0926340     1.2101350     0.2229910
  C       -2.0927710    -1.2098700     0.2238180
  C       -2.7593910     0.0002400     0.4292470
  C        2.3883410     0.0002320     0.5352820
  H       -0.2335390     2.1531730    -0.3546160
  H       -0.2337770    -2.1535140    -0.3531260
  H       -2.6102660     2.1527600     0.3813710
  H       -2.6105080    -2.1523280     0.3828450
  H       -3.7976120     0.0004090     0.7511150
units angstrom
no_reorient  #important for SAPT in psi4, default
symmetry c1  #important for SAPT in psi4, default
}

set PROPERTIES_ORIGIN ["COM"]
properties('MP2/aug-cc-pvtz', properties = ['dipole'])
--------------------------------------------------------------------------

    Molecular point group: c1
  Charge       = 0
  Multiplicity = 1
  Basis Set: AUG-CC-PVTZ
    Blend: AUG-CC-PVTZ
  Basis Set: (AUG-CC-PVTZ AUX)
    Blend: AUG-CC-PVTZ-JKFIT

    Orbital Energies [Eh]
    ---------------------

    Doubly Occupied:

       1A    -92.023466     2A    -15.586967     3A    -11.303203
       4A    -11.298796     5A    -11.271539     6A    -11.270570
       7A    -11.266574     8A    -11.263593     9A    -11.262971
      10A     -9.022497    11A     -6.703971    12A     -6.702449
      13A     -6.701618    14A     -1.213559    15A     -1.184991
      16A     -1.091215    17A     -1.043768    18A     -0.999539
      19A     -0.856877    20A     -0.838861    21A     -0.734432
      22A     -0.686111    23A     -0.656916    24A     -0.645348
      25A     -0.615454    26A     -0.586013    27A     -0.559705
      28A     -0.533111    29A     -0.528752    30A     -0.514506
      31A     -0.511559    32A     -0.448279    33A     -0.387419
      34A     -0.367467    35A     -0.363289

  @DF-RHF Final Energy:  -720.06288343254710

   => Energetics <=

    Nuclear Repulsion Energy =            440.3574069791609418
    One-Electron Energy =               -1858.7498106083326093
    Two-Electron Energy =                 698.3295201966245713
    Total Energy =                       -720.0628834325470962
  Basis Set: (AUG-CC-PVTZ AUX)
    Blend: AUG-CC-PVTZ-RI
    Molecular point group: c1

    Geometry (in Angstrom), charge = 0, multiplicity = 1:

       Center              X                  Y                   Z               Mass
    ------------   -----------------  -----------------  -----------------  -----------------
         S            1.527004629852    -0.000490213864    -0.974071287042    31.972071174400
         N            2.920621629852     0.000727786136     1.553389712958    14.003074004430
         C           -0.170533370148    -0.000188213864    -0.389567287042    12.000000000000
         C           -0.832456370148     1.216425786136    -0.195352287042    12.000000000000
         C           -0.801235670148    -1.216563213864    -0.099557387042    12.000000000000
         C           -2.164865370148     1.210135786136     0.220249712958    12.000000000000
         C           -2.165002370148    -1.209869213864     0.221076712958    12.000000000000
         C           -2.831622370148     0.000240786136     0.426505712958    12.000000000000
         C            2.316109629852     0.000232786136     0.532540712958    12.000000000000
         H           -0.305770370148     2.153173786136    -0.357357287042     1.007825032230
         H           -0.306008370148    -2.153513213864    -0.355867287042     1.007825032230
         H           -2.682497370148     2.152760786136     0.378629712958     1.007825032230
         H           -2.682739370148    -2.152327213864     0.380103712958     1.007825032230
         H           -3.869843370148     0.000409786136     0.748373712958     1.007825032230

  Basis Set: AUG-CC-PVTZ
    Blend: AUG-CC-PVTZ
  Basis Set: (AUG-CC-PVTZ AUX)
    Blend: AUG-CC-PVTZ-JKFIT
	 Reference Energy          =    -720.0628834325470962 [Eh]
	 Singles Energy            =      -0.0000000000000000 [Eh]
	 Same-Spin Energy          =      -0.4130937789642767 [Eh]
	 Opposite-Spin Energy      =      -1.2518736008915705 [Eh]
	 Correlation Energy        =      -1.6649673798558471 [Eh]
	 Total Energy              =    -721.7278508124029486 [Eh]

	 ================> DF-SCS-MP2 Energies <==================
	-----------------------------------------------------------
	 SCS Same-Spin Scale       =       0.3333333333333333 [-]
	 SCS Opposite-Spin Scale   =       1.2000000000000000 [-]
	 SCS Same-Spin Energy      =      -0.1376979263214256 [Eh]
	 SCS Opposite-Spin Energy  =      -1.5022483210698845 [Eh]
	 SCS Correlation Energy    =      -1.6399462473913100 [Eh]
	 SCS Total Energy          =    -721.7028296799384179 [Eh]
	-----------------------------------------------------------

  Dipole Moment: [D]
     X:    -4.1912      Y:     0.0102      Z:    -2.0121     Total:     4.6491

*** Psi4 exiting successfully. Buy a developer a beer!
