                               Psi4 1.3.2 release

  ==> Input File <==

--------------------------------------------------------------------------
#psi4
#
memory 32 gb

molecule  {
0 1
  S        1.5992360    -0.0004910    -0.9713300
  N        2.9928530     0.0007270     1.5561310
  C       -0.0983020    -0.0001890    -0.3868260
  C       -0.7602250     1.2164250    -0.1926110
  C       -0.7603600    -1.2165950    -0.1917730
  C       -2.0926340     1.2101350     0.2229910
  C       -2.0927710    -1.2098700     0.2238180
  C       -2.7593910     0.0002400     0.4292470
  C        2.3883410     0.0002320     0.5352820
  H       -0.2335390     2.1531730    -0.3546160
  H       -0.2337770    -2.1535140    -0.3531260
  H       -2.6102660     2.1527600     0.3813710
  H       -2.6105080    -2.1523280     0.3828450
  H       -3.8863172     0.0003161     0.4645293
units angstrom
no_reorient  #important for SAPT in psi4, default
symmetry c1  #important for SAPT in psi4, default
}

set PROPERTIES_ORIGIN ["COM"]
properties('MP2/aug-cc-pvtz', properties = ['dipole'])
--------------------------------------------------------------------------

    Molecular point group: c1
  Charge       = 0
  Multiplicity = 1
  Basis Set: AUG-CC-PVTZ
    Blend: AUG-CC-PVTZ
  Basis Set: (AUG-CC-PVTZ AUX)
    Blend: AUG-CC-PVTZ-JKFIT

    Orbital Energies [Eh]
    ---------------------

    Doubly Occupied:

       1A    -92.023939     2A    -15.587357     3A    -11.303503
       4A    -11.299037     5A    -11.270976     6A    -11.270940
       7A    -11.270196     8A    -11.263384     9A    -11.263271
      10A     -9.022940    11A     -6.704411    12A     -6.702901
      13A     -6.702066    14A     -1.213901    15A     -1.185719
      16A     -1.091115    17A     -1.044783    18A     -0.998949
      19A     -0.857325    20A     -0.837754    21A     -0.733121
      22A     -0.681905    23A     -0.657972    24A     -0.645159
      25A     -0.616527    26A     -0.585986    27A     -0.560593
      28A     -0.529512    29A     -0.524519    30A     -0.518741
      31A     -0.512086    32A     -0.448262    33A     -0.387507
      34A     -0.367067    35A     -0.363981

  @DF-RHF Final Energy:  -720.05950141366350

   => Energetics <=

    Nuclear Repulsion Energy =            440.1573106583956587
    One-Electron Energy =               -1858.3388213296636877
    Two-Electron Energy =                 698.1220092576044181
    Total Energy =                       -720.0595014136634973
  Basis Set: (AUG-CC-PVTZ AUX)
    Blend: AUG-CC-PVTZ-RI
    Molecular point group: c1

    Geometry (in Angstrom), charge = 0, multiplicity = 1:

       Center              X                  Y                   Z               Mass
    ------------   -----------------  -----------------  -----------------  -----------------
         S            1.530453655795    -0.000486765140    -0.963492323509    31.972071174400
         N            2.924070655795     0.000731234860     1.563968676491    14.003074004430
         C           -0.167084344205    -0.000184765140    -0.378988323509    12.000000000000
         C           -0.829007344205     1.216429234860    -0.184773323509    12.000000000000
         C           -0.829142344205    -1.216590765140    -0.183935323509    12.000000000000
         C           -2.161416344205     1.210139234860     0.230828676491    12.000000000000
         C           -2.161553344205    -1.209865765140     0.231655676491    12.000000000000
         C           -2.828173344205     0.000244234860     0.437084676491    12.000000000000
         C            2.319558655795     0.000236234860     0.543119676491    12.000000000000
         H           -0.302321344205     2.153177234860    -0.346778323509     1.007825032230
         H           -0.302559344205    -2.153509765140    -0.345288323509     1.007825032230
         H           -2.679048344205     2.152764234860     0.389208676491     1.007825032230
         H           -2.679290344205    -2.152323765140     0.390682676491     1.007825032230
         H           -3.955099544205     0.000320334860     0.472366976491     1.007825032230

  Basis Set: AUG-CC-PVTZ
    Blend: AUG-CC-PVTZ
  Basis Set: (AUG-CC-PVTZ AUX)
    Blend: AUG-CC-PVTZ-JKFIT
	 Reference Energy          =    -720.0595014136634973 [Eh]
	 Singles Energy            =      -0.0000000000000000 [Eh]
	 Same-Spin Energy          =      -0.4132354140274062 [Eh]
	 Opposite-Spin Energy      =      -1.2522436894075706 [Eh]
	 Correlation Energy        =      -1.6654791034349767 [Eh]
	 Total Energy              =    -721.7249805170985155 [Eh]

	 ================> DF-SCS-MP2 Energies <==================
	-----------------------------------------------------------
	 SCS Same-Spin Scale       =       0.3333333333333333 [-]
	 SCS Opposite-Spin Scale   =       1.2000000000000000 [-]
	 SCS Same-Spin Energy      =      -0.1377451380091354 [Eh]
	 SCS Opposite-Spin Energy  =      -1.5026924272890847 [Eh]
	 SCS Correlation Energy    =      -1.6404375652982202 [Eh]
	 SCS Total Energy          =    -721.6999389789617680 [Eh]
	-----------------------------------------------------------

  Dipole Moment: [D]
     X:    -4.1559      Y:    -0.0010      Z:    -2.1712     Total:     4.6889

*** Psi4 exiting successfully. Buy a developer a beer!
