                               Psi4 1.3.2 release

  ==> Input File <==

--------------------------------------------------------------------------
#psi4
#
memory 32 gb

molecule  {
0 1
  S        1.5992360    -0.0004910    -0.9713300
  N        2.9928530     0.0007270     1.5561310
  C       -0.0983020    -0.0001890    -0.3868260
  C       -0.7602250     1.2164250    -0.1926110
  C       -0.7603600    -1.2165950    -0.1917730
  C       -2.0926340     1.2101350     0.2229910
  C       -2.0927710    -1.2098700     0.2238180
  C       -2.7593910     0.0002400     0.4292470
  C        2.3883410     0.0002320     0.5352820
  H       -0.2335390     2.1531730    -0.3546160
  H       -0.2337770    -2.1535140    -0.3531260
  H       -2.6102660     2.1527600     0.3813710
  H       -2.6105080    -2.1523280     0.3828450
  H       -3.8567488     0.0003471     0.5600578
units angstrom
no_reorient  #important for SAPT in psi4, default
symmetry c1  #important for SAPT in psi4, default
}

set PROPERTIES_ORIGIN ["COM"]
properties('MP2/aug-cc-pvtz', properties = ['dipole'])
--------------------------------------------------------------------------

    Molecular point group: c1
  Charge       = 0
  Multiplicity = 1
  Basis Set: AUG-CC-PVTZ
    Blend: AUG-CC-PVTZ
  Basis Set: (AUG-CC-PVTZ AUX)
    Blend: AUG-CC-PVTZ-JKFIT

    Orbital Energies [Eh]
    ---------------------

    Doubly Occupied:

       1A    -92.023732     2A    -15.587175     3A    -11.303343
       4A    -11.298641     5A    -11.270839     6A    -11.270798
       7A    -11.268281     8A    -11.263013     9A    -11.262868
      10A     -9.022734    11A     -6.704206    12A     -6.702691
      13A     -6.701860    14A     -1.213734    15A     -1.185555
      16A     -1.091174    17A     -1.044559    18A     -0.999377
      19A     -0.857142    20A     -0.838755    21A     -0.734034
      22A     -0.684021    23A     -0.657789    24A     -0.645072
      25A     -0.616339    26A     -0.586973    27A     -0.560345
      28A     -0.529311    29A     -0.526572    30A     -0.519138
      31A     -0.511909    32A     -0.448179    33A     -0.387334
      34A     -0.367491    35A     -0.363783

  @DF-RHF Final Energy:  -720.06320275836742

   => Energetics <=

    Nuclear Repulsion Energy =            440.2438298241515895
    One-Electron Energy =               -1858.5165251698676911
    Two-Electron Energy =                 698.2094925873486773
    Total Energy =                       -720.0632027583674244
  Basis Set: (AUG-CC-PVTZ AUX)
    Blend: AUG-CC-PVTZ-RI
    Molecular point group: c1

    Geometry (in Angstrom), charge = 0, multiplicity = 1:

       Center              X                  Y                   Z               Mass
    ------------   -----------------  -----------------  -----------------  -----------------
         S            1.530232940062    -0.000486996542    -0.964205403788    31.972071174400
         N            2.923849940062     0.000731003458     1.563255596212    14.003074004430
         C           -0.167305059938    -0.000184996542    -0.379701403788    12.000000000000
         C           -0.829228059938     1.216429003458    -0.185486403788    12.000000000000
         C           -0.829363059938    -1.216590996542    -0.184648403788    12.000000000000
         C           -2.161637059938     1.210139003458     0.230115596212    12.000000000000
         C           -2.161774059938    -1.209865996542     0.230942596212    12.000000000000
         C           -2.828394059938     0.000244003458     0.436371596212    12.000000000000
         C            2.319337940062     0.000236003458     0.542406596212    12.000000000000
         H           -0.302542059938     2.153177003458    -0.347491403788     1.007825032230
         H           -0.302780059938    -2.153509996542    -0.346001403788     1.007825032230
         H           -2.679269059938     2.152764003458     0.388495596212     1.007825032230
         H           -2.679511059938    -2.152323996542     0.389969596212     1.007825032230
         H           -3.925751859938     0.000351103458     0.567182396212     1.007825032230

  Basis Set: AUG-CC-PVTZ
    Blend: AUG-CC-PVTZ
  Basis Set: (AUG-CC-PVTZ AUX)
    Blend: AUG-CC-PVTZ-JKFIT
	 Reference Energy          =    -720.0632027583674244 [Eh]
	 Singles Energy            =      -0.0000000000000000 [Eh]
	 Same-Spin Energy          =      -0.4130562798142822 [Eh]
	 Opposite-Spin Energy      =      -1.2517582076396989 [Eh]
	 Correlation Energy        =      -1.6648144874539810 [Eh]
	 Total Energy              =    -721.7280172458214338 [Eh]

	 ================> DF-SCS-MP2 Energies <==================
	-----------------------------------------------------------
	 SCS Same-Spin Scale       =       0.3333333333333333 [-]
	 SCS Opposite-Spin Scale   =       1.2000000000000000 [-]
	 SCS Same-Spin Energy      =      -0.1376854266047607 [Eh]
	 SCS Opposite-Spin Energy  =      -1.5021098491676386 [Eh]
	 SCS Correlation Energy    =      -1.6397952757723993 [Eh]
	 SCS Total Energy          =    -721.7029980341397959 [Eh]
	-----------------------------------------------------------

  Dipole Moment: [D]
     X:    -4.1770      Y:    -0.0010      Z:    -2.1039     Total:     4.6769

*** Psi4 exiting successfully. Buy a developer a beer!
