                               Psi4 1.3.2 release

  ==> Input File <==

--------------------------------------------------------------------------
#psi4
#
memory 32 gb

molecule  {
0 1
  S        1.5992360    -0.0004910    -0.9713300
  N        2.9928530     0.0007270     1.5561310
  C       -0.0983020    -0.0001890    -0.3868260
  C       -0.7602250     1.2164250    -0.1926110
  C       -0.7603600    -1.2165950    -0.1917730
  C       -2.0926340     1.2101350     0.2229910
  C       -2.0927710    -1.2098700     0.2238180
  C       -2.7593910     0.0002400     0.4292470
  C        2.3883410     0.0002320     0.5352820
  H       -0.2335390     2.1531730    -0.3546160
  H       -0.2337770    -2.1535140    -0.3531260
  H       -2.6844255     2.1525875     0.1426236
  H       -2.6105080    -2.1523280     0.3828450
  H       -3.7976120     0.0004090     0.7511150
units angstrom
no_reorient  #important for SAPT in psi4, default
symmetry c1  #important for SAPT in psi4, default
}

set PROPERTIES_ORIGIN ["COM"]
properties('MP2/aug-cc-pvtz', properties = ['dipole'])
--------------------------------------------------------------------------

    Molecular point group: c1
  Charge       = 0
  Multiplicity = 1
  Basis Set: AUG-CC-PVTZ
    Blend: AUG-CC-PVTZ
  Basis Set: (AUG-CC-PVTZ AUX)
    Blend: AUG-CC-PVTZ-JKFIT

    Orbital Energies [Eh]
    ---------------------

    Doubly Occupied:

       1A    -92.023710     2A    -15.587133     3A    -11.303287
       4A    -11.298511     5A    -11.271282     6A    -11.271215
       7A    -11.267268     8A    -11.265033     9A    -11.262825
      10A     -9.022718    11A     -6.704192    12A     -6.702667
      13A     -6.701841    14A     -1.213700    15A     -1.185630
      16A     -1.091291    17A     -1.044023    18A     -0.999902
      19A     -0.855906    20A     -0.839176    21A     -0.733791
      22A     -0.685926    23A     -0.657887    24A     -0.642172
      25A     -0.614219    26A     -0.587236    27A     -0.560091
      28A     -0.535825    29A     -0.528174    30A     -0.514233
      31A     -0.509126    32A     -0.448377    33A     -0.387259
      34A     -0.367968    35A     -0.363462

  @DF-RHF Final Energy:  -720.06158274304153

   => Energetics <=

    Nuclear Repulsion Energy =            440.1962712809396407
    One-Electron Energy =               -1858.4215912131232926
    Two-Electron Energy =                 698.1637371891420116
    Total Energy =                       -720.0615827430415266
  Basis Set: (AUG-CC-PVTZ AUX)
    Blend: AUG-CC-PVTZ-RI
    Molecular point group: c1

    Geometry (in Angstrom), charge = 0, multiplicity = 1:

       Center              X                  Y                   Z               Mass
    ------------   -----------------  -----------------  -----------------  -----------------
         S            1.530345078231    -0.000486170959    -0.963849416401    31.972071174400
         N            2.923962078231     0.000731829041     1.563611583599    14.003074004430
         C           -0.167192921769    -0.000184170959    -0.379345416401    12.000000000000
         C           -0.829115921769     1.216429829041    -0.185130416401    12.000000000000
         C           -0.829250921769    -1.216590170959    -0.184292416401    12.000000000000
         C           -2.161524921769     1.210139829041     0.230471583599    12.000000000000
         C           -2.161661921769    -1.209865170959     0.231298583599    12.000000000000
         C           -2.828281921769     0.000244829041     0.436727583599    12.000000000000
         C            2.319450078231     0.000236829041     0.542762583599    12.000000000000
         H           -0.302429921769     2.153177829041    -0.347135416401     1.007825032230
         H           -0.302667921769    -2.153509170959    -0.345645416401     1.007825032230
         H           -2.753316421769     2.152592329041     0.150104183599     1.007825032230
         H           -2.679398921769    -2.152323170959     0.390325583599     1.007825032230
         H           -3.866502921769     0.000413829041     0.758595583599     1.007825032230

  Basis Set: AUG-CC-PVTZ
    Blend: AUG-CC-PVTZ
  Basis Set: (AUG-CC-PVTZ AUX)
    Blend: AUG-CC-PVTZ-JKFIT
	 Reference Energy          =    -720.0615827430415266 [Eh]
	 Singles Energy            =      -0.0000000000000000 [Eh]
	 Same-Spin Energy          =      -0.4131151811052403 [Eh]
	 Opposite-Spin Energy      =      -1.2519387683366188 [Eh]
	 Correlation Energy        =      -1.6650539494418590 [Eh]
	 Total Energy              =    -721.7266366924833392 [Eh]

	 ================> DF-SCS-MP2 Energies <==================
	-----------------------------------------------------------
	 SCS Same-Spin Scale       =       0.3333333333333333 [-]
	 SCS Opposite-Spin Scale   =       1.2000000000000000 [-]
	 SCS Same-Spin Energy      =      -0.1377050603684134 [Eh]
	 SCS Opposite-Spin Energy  =      -1.5023265220039426 [Eh]
	 SCS Correlation Energy    =      -1.6400315823723559 [Eh]
	 SCS Total Energy          =    -721.7016143254138569 [Eh]
	-----------------------------------------------------------

  Dipole Moment: [D]
     X:    -4.1877      Y:    -0.0428      Z:    -2.1280     Total:     4.6975

*** Psi4 exiting successfully. Buy a developer a beer!
