                               Psi4 1.3.2 release

  ==> Input File <==

--------------------------------------------------------------------------
#psi4
#
memory 32 gb

molecule  {
0 1
  S        1.5992360    -0.0004910    -0.9713300
  N        2.9928530     0.0007270     1.5561310
  C       -0.0983020    -0.0001890    -0.3868260
  C       -0.7602250     1.2164250    -0.1926110
  C       -0.7603600    -1.2165950    -0.1917730
  C       -2.0926340     1.2101350     0.2229910
  C       -2.0927710    -1.2098700     0.2238180
  C       -2.7593910     0.0002400     0.4292470
  C        2.3883410     0.0002320     0.5352820
  H       -0.2924886     2.1523295    -0.5457292
  H       -0.2337770    -2.1535140    -0.3531260
  H       -2.6102660     2.1527600     0.3813710
  H       -2.6105080    -2.1523280     0.3828450
  H       -3.7976120     0.0004090     0.7511150
units angstrom
no_reorient  #important for SAPT in psi4, default
symmetry c1  #important for SAPT in psi4, default
}

set PROPERTIES_ORIGIN ["COM"]
properties('MP2/aug-cc-pvtz', properties = ['dipole'])
--------------------------------------------------------------------------

    Molecular point group: c1
  Charge       = 0
  Multiplicity = 1
  Basis Set: AUG-CC-PVTZ
    Blend: AUG-CC-PVTZ
  Basis Set: (AUG-CC-PVTZ AUX)
    Blend: AUG-CC-PVTZ-JKFIT

    Orbital Energies [Eh]
    ---------------------

    Doubly Occupied:

       1A    -92.023433     2A    -15.586889     3A    -11.303053
       4A    -11.298563     5A    -11.272299     6A    -11.270831
       7A    -11.266823     8A    -11.263007     9A    -11.262809
      10A     -9.022442    11A     -6.703912    12A     -6.702415
      13A     -6.701577    14A     -1.213406    15A     -1.185474
      16A     -1.091242    17A     -1.044095    18A     -0.999679
      19A     -0.856330    20A     -0.839392    21A     -0.734248
      22A     -0.684264    23A     -0.657767    24A     -0.645339
      25A     -0.615086    26A     -0.585790    27A     -0.559671
      28A     -0.535193    29A     -0.528179    30A     -0.514221
      31A     -0.510894    32A     -0.448052    33A     -0.387029
      34A     -0.367913    35A     -0.363384

  @DF-RHF Final Energy:  -720.06330615232821

   => Energetics <=

    Nuclear Repulsion Energy =            440.2060125299742026
    One-Electron Energy =               -1858.4492384659463369
    Two-Electron Energy =                 698.1799197836438680
    Total Energy =                       -720.0633061523282095
  Basis Set: (AUG-CC-PVTZ AUX)
    Blend: AUG-CC-PVTZ-RI
    Molecular point group: c1

    Geometry (in Angstrom), charge = 0, multiplicity = 1:

       Center              X                  Y                   Z               Mass
    ------------   -----------------  -----------------  -----------------  -----------------
         S            1.530231542692    -0.000481162225    -0.964204985771    31.972071174400
         N            2.923848542692     0.000736837775     1.563256014229    14.003074004430
         C           -0.167306457308    -0.000179162225    -0.379700985771    12.000000000000
         C           -0.829229457308     1.216434837775    -0.185485985771    12.000000000000
         C           -0.829364457308    -1.216585162225    -0.184647985771    12.000000000000
         C           -2.161638457308     1.210144837775     0.230116014229    12.000000000000
         C           -2.161775457308    -1.209860162225     0.230943014229    12.000000000000
         C           -2.828395457308     0.000249837775     0.436372014229    12.000000000000
         C            2.319336542692     0.000241837775     0.542407014229    12.000000000000
         H           -0.361493057308     2.152339337775    -0.538604185771     1.007825032230
         H           -0.302781457308    -2.153504162225    -0.346000985771     1.007825032230
         H           -2.679270457308     2.152769837775     0.388496014229     1.007825032230
         H           -2.679512457308    -2.152318162225     0.389970014229     1.007825032230
         H           -3.866616457308     0.000418837775     0.758240014229     1.007825032230

  Basis Set: AUG-CC-PVTZ
    Blend: AUG-CC-PVTZ
  Basis Set: (AUG-CC-PVTZ AUX)
    Blend: AUG-CC-PVTZ-JKFIT
	 Reference Energy          =    -720.0633061523282095 [Eh]
	 Singles Energy            =      -0.0000000000000000 [Eh]
	 Same-Spin Energy          =      -0.4130402595046231 [Eh]
	 Opposite-Spin Energy      =      -1.2516624061195669 [Eh]
	 Correlation Energy        =      -1.6647026656241901 [Eh]
	 Total Energy              =    -721.7280088179524000 [Eh]

	 ================> DF-SCS-MP2 Energies <==================
	-----------------------------------------------------------
	 SCS Same-Spin Scale       =       0.3333333333333333 [-]
	 SCS Opposite-Spin Scale   =       1.2000000000000000 [-]
	 SCS Same-Spin Energy      =      -0.1376800865015410 [Eh]
	 SCS Opposite-Spin Energy  =      -1.5019948873434803 [Eh]
	 SCS Correlation Energy    =      -1.6396749738450214 [Eh]
	 SCS Total Energy          =    -721.7029811261731993 [Eh]
	-----------------------------------------------------------

  Dipole Moment: [D]
     X:    -4.2215      Y:    -0.0190      Z:    -2.0838     Total:     4.7078

*** Psi4 exiting successfully. Buy a developer a beer!
