                               Psi4 1.3.2 release

  ==> Input File <==

--------------------------------------------------------------------------
#psi4
#
memory 32 gb

molecule  {
0 1
  S        1.5992360    -0.0004910    -0.9713300
  N        2.9928530     0.0007270     1.5561310
  C       -0.0983020    -0.0001890    -0.3868260
  C       -0.7602250     1.2164250    -0.1926110
  C       -0.7133265    -1.2165486    -0.0493376
  C       -2.0926340     1.2101350     0.2229910
  C       -2.0927710    -1.2098700     0.2238180
  C       -2.7593910     0.0002400     0.4292470
  C        2.3883410     0.0002320     0.5352820
  H       -0.2335390     2.1531730    -0.3546160
  H       -0.2337770    -2.1535140    -0.3531260
  H       -2.6102660     2.1527600     0.3813710
  H       -2.6105080    -2.1523280     0.3828450
  H       -3.7976120     0.0004090     0.7511150
units angstrom
no_reorient  #important for SAPT in psi4, default
symmetry c1  #important for SAPT in psi4, default
}

set PROPERTIES_ORIGIN ["COM"]
properties('MP2/aug-cc-pvtz', properties = ['dipole'])
--------------------------------------------------------------------------

    Molecular point group: c1
  Charge       = 0
  Multiplicity = 1
  Basis Set: AUG-CC-PVTZ
    Blend: AUG-CC-PVTZ
  Basis Set: (AUG-CC-PVTZ AUX)
    Blend: AUG-CC-PVTZ-JKFIT

    Orbital Energies [Eh]
    ---------------------

    Doubly Occupied:

       1A    -92.023411     2A    -15.586947     3A    -11.303211
       4A    -11.299614     5A    -11.272567     6A    -11.270439
       7A    -11.266527     8A    -11.264656     9A    -11.263503
      10A     -9.022462    11A     -6.703935    12A     -6.702415
      13A     -6.701580    14A     -1.213524    15A     -1.184531
      16A     -1.091197    17A     -1.043160    18A     -0.999313
      19A     -0.856619    20A     -0.838089    21A     -0.733853
      22A     -0.686041    23A     -0.655996    24A     -0.645337
      25A     -0.614582    26A     -0.585423    27A     -0.559497
      28A     -0.533493    29A     -0.528197    30A     -0.513375
      31A     -0.511240    32A     -0.448344    33A     -0.387686
      34A     -0.366854    35A     -0.363080

  @DF-RHF Final Energy:  -720.05898328965645

   => Energetics <=

    Nuclear Repulsion Energy =            440.2902929340618812
    One-Electron Energy =               -1858.6171566143775635
    Two-Electron Energy =                 698.2678803906592293
    Total Energy =                       -720.0589832896564531
  Basis Set: (AUG-CC-PVTZ AUX)
    Blend: AUG-CC-PVTZ-RI
    Molecular point group: c1

    Geometry (in Angstrom), charge = 0, multiplicity = 1:

       Center              X                  Y                   Z               Mass
    ------------   -----------------  -----------------  -----------------  -----------------
         S            1.525611194925    -0.000491582608    -0.978291152087    31.972071174400
         N            2.919228194925     0.000726417392     1.549169847913    14.003074004430
         C           -0.171926805075    -0.000189582608    -0.393787152087    12.000000000000
         C           -0.833849805075     1.216424417392    -0.199572152087    12.000000000000
         C           -0.786951305075    -1.216549182608    -0.056298752087    12.000000000000
         C           -2.166258805075     1.210134417392     0.216029847913    12.000000000000
         C           -2.166395805075    -1.209870582608     0.216856847913    12.000000000000
         C           -2.833015805075     0.000239417392     0.422285847913    12.000000000000
         C            2.314716194925     0.000231417392     0.528320847913    12.000000000000
         H           -0.307163805075     2.153172417392    -0.361577152087     1.007825032230
         H           -0.307401805075    -2.153514582608    -0.360087152087     1.007825032230
         H           -2.683890805075     2.152759417392     0.374409847913     1.007825032230
         H           -2.684132805075    -2.152328582608     0.375883847913     1.007825032230
         H           -3.871236805075     0.000408417392     0.744153847913     1.007825032230

  Basis Set: AUG-CC-PVTZ
    Blend: AUG-CC-PVTZ
  Basis Set: (AUG-CC-PVTZ AUX)
    Blend: AUG-CC-PVTZ-JKFIT
	 Reference Energy          =    -720.0589832896564531 [Eh]
	 Singles Energy            =      -0.0000000000000000 [Eh]
	 Same-Spin Energy          =      -0.4133203296448781 [Eh]
	 Opposite-Spin Energy      =      -1.2525016011038077 [Eh]
	 Correlation Energy        =      -1.6658219307486859 [Eh]
	 Total Energy              =    -721.7248052204051874 [Eh]

	 ================> DF-SCS-MP2 Energies <==================
	-----------------------------------------------------------
	 SCS Same-Spin Scale       =       0.3333333333333333 [-]
	 SCS Opposite-Spin Scale   =       1.2000000000000000 [-]
	 SCS Same-Spin Energy      =      -0.1377734432149594 [Eh]
	 SCS Opposite-Spin Energy  =      -1.5030019213245691 [Eh]
	 SCS Correlation Energy    =      -1.6407753645395284 [Eh]
	 SCS Total Energy          =    -721.6997586541959890 [Eh]
	-----------------------------------------------------------

  Dipole Moment: [D]
     X:    -4.2093      Y:     0.0282      Z:    -2.0275     Total:     4.6722

*** Psi4 exiting successfully. Buy a developer a beer!
