                               Psi4 1.3.2 release

  ==> Input File <==

--------------------------------------------------------------------------
#psi4
#
memory 32 gb

molecule  {
0 1
  S        1.5992360    -0.0004910    -0.9713300
  N        2.9928530     0.0007270     1.5561310
  C       -0.0983020    -0.0001890    -0.3868260
  C       -0.7602250     1.2164250    -0.1926110
  C       -0.6662930    -1.2165021     0.0930978
  C       -2.0926340     1.2101350     0.2229910
  C       -2.0927710    -1.2098700     0.2238180
  C       -2.7593910     0.0002400     0.4292470
  C        2.3883410     0.0002320     0.5352820
  H       -0.2335390     2.1531730    -0.3546160
  H       -0.2337770    -2.1535140    -0.3531260
  H       -2.6102660     2.1527600     0.3813710
  H       -2.6105080    -2.1523280     0.3828450
  H       -3.7976120     0.0004090     0.7511150
units angstrom
no_reorient  #important for SAPT in psi4, default
symmetry c1  #important for SAPT in psi4, default
}

set PROPERTIES_ORIGIN ["COM"]
properties('MP2/aug-cc-pvtz', properties = ['dipole'])
--------------------------------------------------------------------------

    Molecular point group: c1
  Charge       = 0
  Multiplicity = 1
  Basis Set: AUG-CC-PVTZ
    Blend: AUG-CC-PVTZ
  Basis Set: (AUG-CC-PVTZ AUX)
    Blend: AUG-CC-PVTZ-JKFIT

    Orbital Energies [Eh]
    ---------------------

    Doubly Occupied:

       1A    -92.023265     2A    -15.586906     3A    -11.304227
       4A    -11.303294     5A    -11.277774     6A    -11.270812
       7A    -11.269958     8A    -11.267060     9A    -11.265246
      10A     -9.022391    11A     -6.703860    12A     -6.702350
      13A     -6.701493    14A     -1.213359    15A     -1.182321
      16A     -1.091181    17A     -1.040215    18A     -0.998098
      19A     -0.855273    20A     -0.834543    21A     -0.731360
      22A     -0.685403    23A     -0.651381    24A     -0.644569
      25A     -0.610325    26A     -0.583100    27A     -0.558655
      28A     -0.533767    29A     -0.525366    30A     -0.510734
      31A     -0.507250    32A     -0.448582    33A     -0.388926
      34A     -0.364279    35A     -0.361959

  @DF-RHF Final Energy:  -720.03734724634512

   => Energetics <=

    Nuclear Repulsion Energy =            439.7664437358462237
    One-Electron Energy =               -1857.5690188178543849
    Two-Electron Energy =                 697.7652278356630404
    Total Energy =                       -720.0373472463451208
  Basis Set: (AUG-CC-PVTZ AUX)
    Blend: AUG-CC-PVTZ-RI
    Molecular point group: c1

    Geometry (in Angstrom), charge = 0, multiplicity = 1:

       Center              X                  Y                   Z               Mass
    ------------   -----------------  -----------------  -----------------  -----------------
         S            1.521430881254    -0.000495715504    -0.990950738334    31.972071174400
         N            2.915047881254     0.000722284496     1.536510261666    14.003074004430
         C           -0.176107118746    -0.000193715504    -0.406446738334    12.000000000000
         C           -0.838030118746     1.216420284496    -0.212231738334    12.000000000000
         C           -0.744098118746    -1.216506815504     0.073477061666    12.000000000000
         C           -2.170439118746     1.210130284496     0.203370261666    12.000000000000
         C           -2.170576118746    -1.209874715504     0.204197261666    12.000000000000
         C           -2.837196118746     0.000235284496     0.409626261666    12.000000000000
         C            2.310535881254     0.000227284496     0.515661261666    12.000000000000
         H           -0.311344118746     2.153168284496    -0.374236738334     1.007825032230
         H           -0.311582118746    -2.153518715504    -0.372746738334     1.007825032230
         H           -2.688071118746     2.152755284496     0.361750261666     1.007825032230
         H           -2.688313118746    -2.152332715504     0.363224261666     1.007825032230
         H           -3.875417118746     0.000404284496     0.731494261666     1.007825032230

  Basis Set: AUG-CC-PVTZ
    Blend: AUG-CC-PVTZ
  Basis Set: (AUG-CC-PVTZ AUX)
    Blend: AUG-CC-PVTZ-JKFIT
	 Reference Energy          =    -720.0373472463451208 [Eh]
	 Singles Energy            =      -0.0000000000000000 [Eh]
	 Same-Spin Energy          =      -0.4145136305834588 [Eh]
	 Opposite-Spin Energy      =      -1.2558887741883742 [Eh]
	 Correlation Energy        =      -1.6704024047718331 [Eh]
	 Total Energy              =    -721.7077496511169556 [Eh]

	 ================> DF-SCS-MP2 Energies <==================
	-----------------------------------------------------------
	 SCS Same-Spin Scale       =       0.3333333333333333 [-]
	 SCS Opposite-Spin Scale   =       1.2000000000000000 [-]
	 SCS Same-Spin Energy      =      -0.1381712101944862 [Eh]
	 SCS Opposite-Spin Energy  =      -1.5070665290260490 [Eh]
	 SCS Correlation Energy    =      -1.6452377392205353 [Eh]
	 SCS Total Energy          =    -721.6825849855656543 [Eh]
	-----------------------------------------------------------

  Dipole Moment: [D]
     X:    -4.2961      Y:     0.1299      Z:    -2.0699     Total:     4.7705

*** Psi4 exiting successfully. Buy a developer a beer!
