                               Psi4 1.3.2 release

  ==> Input File <==

--------------------------------------------------------------------------
#psi4
#
memory 32 gb

molecule  {
0 1
  S        1.5992360    -0.0004910    -0.9713300
  N        2.9928530     0.0007270     1.5561310
  C       -0.0983020    -0.0001890    -0.3868260
  C       -0.7602250     1.2164250    -0.1926110
  C       -0.7603600    -1.2165950    -0.1917730
  C       -2.0926340     1.2101350     0.2229910
  C       -2.0927710    -1.2098700     0.2238180
  C       -2.7593910     0.0002400     0.4292470
  C        2.3883410     0.0002320     0.5352820
  H       -0.2335390     2.1531730    -0.3546160
  H       -0.2337770    -2.1535140    -0.3531260
  H       -2.6102660     2.1527600     0.3813710
  H       -2.6105080    -2.1523280     0.3828450
  H       -3.8419646     0.0003625     0.6078221
units angstrom
no_reorient  #important for SAPT in psi4, default
symmetry c1  #important for SAPT in psi4, default
}

set PROPERTIES_ORIGIN ["COM"]
properties('MP2/aug-cc-pvtz', properties = ['dipole'])
--------------------------------------------------------------------------

    Molecular point group: c1
  Charge       = 0
  Multiplicity = 1
  Basis Set: AUG-CC-PVTZ
    Blend: AUG-CC-PVTZ
  Basis Set: (AUG-CC-PVTZ AUX)
    Blend: AUG-CC-PVTZ-JKFIT

    Orbital Energies [Eh]
    ---------------------

    Doubly Occupied:

       1A    -92.023661     2A    -15.587112     3A    -11.303289
       4A    -11.298502     5A    -11.270792     6A    -11.270751
       7A    -11.267597     8A    -11.262885     9A    -11.262724
      10A     -9.022664    11A     -6.704137    12A     -6.702620
      13A     -6.701790    14A     -1.213677    15A     -1.185500
      16A     -1.091201    17A     -1.044482    18A     -0.999542
      19A     -0.857079    20A     -0.839140    21A     -0.734397
      22A     -0.684802    23A     -0.657727    24A     -0.645048
      25A     -0.616275    26A     -0.587221    27A     -0.560239
      28A     -0.529242    29A     -0.527959    30A     -0.518688
      31A     -0.511850    32A     -0.448160    33A     -0.387277
      34A     -0.367650    35A     -0.363713

  @DF-RHF Final Energy:  -720.06440812926496

   => Energetics <=

    Nuclear Repulsion Energy =            440.2757707604747566
    One-Electron Energy =               -1858.5815663603475514
    Two-Electron Energy =                 698.2413874706079469
    Total Energy =                       -720.0644081292649616
  Basis Set: (AUG-CC-PVTZ AUX)
    Blend: AUG-CC-PVTZ-RI
    Molecular point group: c1

    Geometry (in Angstrom), charge = 0, multiplicity = 1:

       Center              X                  Y                   Z               Mass
    ------------   -----------------  -----------------  -----------------  -----------------
         S            1.530122582195    -0.000487111496    -0.964561944301    31.972071174400
         N            2.923739582195     0.000730888504     1.562899055699    14.003074004430
         C           -0.167415417805    -0.000185111496    -0.380057944301    12.000000000000
         C           -0.829338417805     1.216428888504    -0.185842944301    12.000000000000
         C           -0.829473417805    -1.216591111496    -0.185004944301    12.000000000000
         C           -2.161747417805     1.210138888504     0.229759055699    12.000000000000
         C           -2.161884417805    -1.209866111496     0.230586055699    12.000000000000
         C           -2.828504417805     0.000243888504     0.436015055699    12.000000000000
         C            2.319227582195     0.000235888504     0.542050055699    12.000000000000
         H           -0.302652417805     2.153176888504    -0.347847944301     1.007825032230
         H           -0.302890417805    -2.153510111496    -0.346357944301     1.007825032230
         H           -2.679379417805     2.152763888504     0.388139055699     1.007825032230
         H           -2.679621417805    -2.152324111496     0.389613055699     1.007825032230
         H           -3.911078017805     0.000366388504     0.614590155699     1.007825032230

  Basis Set: AUG-CC-PVTZ
    Blend: AUG-CC-PVTZ
  Basis Set: (AUG-CC-PVTZ AUX)
    Blend: AUG-CC-PVTZ-JKFIT
	 Reference Energy          =    -720.0644081292649616 [Eh]
	 Singles Energy            =      -0.0000000000000000 [Eh]
	 Same-Spin Energy          =      -0.4129921866762765 [Eh]
	 Opposite-Spin Energy      =      -1.2515924265601877 [Eh]
	 Correlation Energy        =      -1.6645846132364641 [Eh]
	 Total Energy              =    -721.7289927425014184 [Eh]

	 ================> DF-SCS-MP2 Energies <==================
	-----------------------------------------------------------
	 SCS Same-Spin Scale       =       0.3333333333333333 [-]
	 SCS Opposite-Spin Scale   =       1.2000000000000000 [-]
	 SCS Same-Spin Energy      =      -0.1376640622254255 [Eh]
	 SCS Opposite-Spin Energy  =      -1.5019109118722251 [Eh]
	 SCS Correlation Energy    =      -1.6395749740976506 [Eh]
	 SCS Total Energy          =    -721.7039831033625887 [Eh]
	-----------------------------------------------------------

  Dipole Moment: [D]
     X:    -4.1816      Y:    -0.0009      Z:    -2.0711     Total:     4.6664

*** Psi4 exiting successfully. Buy a developer a beer!
