                               Psi4 1.3.2 release

  ==> Input File <==

--------------------------------------------------------------------------
#psi4
#
memory 32 gb

molecule  {
0 1
  S        1.5992360    -0.0004910    -0.9713300
  N        2.9928530     0.0007270     1.5561310
  C       -0.0983020    -0.0001890    -0.3868260
  C       -0.7602250     1.2164250    -0.1926110
  C       -0.7603600    -1.2165950    -0.1917730
  C       -2.0926340     1.2101350     0.2229910
  C       -2.0927710    -1.2098700     0.2238180
  C       -2.7593910     0.0002400     0.4292470
  C        2.3883410     0.0002320     0.5352820
  H       -0.2335390     2.1531730    -0.3546160
  H       -0.2337770    -2.1535140    -0.3531260
  H       -2.6102660     2.1527600     0.3813710
  H       -2.6105080    -2.1523280     0.3828450
  H       -3.8715330     0.0003316     0.5122936
units angstrom
no_reorient  #important for SAPT in psi4, default
symmetry c1  #important for SAPT in psi4, default
}

set PROPERTIES_ORIGIN ["COM"]
properties('MP2/aug-cc-pvtz', properties = ['dipole'])
--------------------------------------------------------------------------

    Molecular point group: c1
  Charge       = 0
  Multiplicity = 1
  Basis Set: AUG-CC-PVTZ
    Blend: AUG-CC-PVTZ
  Basis Set: (AUG-CC-PVTZ AUX)
    Blend: AUG-CC-PVTZ-JKFIT

    Orbital Energies [Eh]
    ---------------------

    Doubly Occupied:

       1A    -92.023825     2A    -15.587257     3A    -11.303414
       4A    -11.298820     5A    -11.270900     6A    -11.270860
       7A    -11.269151     8A    -11.263180     9A    -11.263051
      10A     -9.022826    11A     -6.704298    12A     -6.702785
      13A     -6.701952    14A     -1.213808    15A     -1.185628
      16A     -1.091144    17A     -1.044659    18A     -0.999177
      19A     -0.857224    20A     -0.838287    21A     -0.733601
      22A     -0.683050    23A     -0.657871    24A     -0.645109
      25A     -0.616423    26A     -0.586561    27A     -0.560464
      28A     -0.529401    29A     -0.525348    30A     -0.519234
      31A     -0.511988    32A     -0.448213    33A     -0.387411
      34A     -0.367295    35A     -0.363872

  @DF-RHF Final Energy:  -720.06158109551461

   => Energetics <=

    Nuclear Repulsion Energy =            440.2041821695526664
    One-Electron Energy =               -1858.4353531100009604
    Two-Electron Energy =                 698.1695898449336255
    Total Energy =                       -720.0615810955146117
  Basis Set: (AUG-CC-PVTZ AUX)
    Blend: AUG-CC-PVTZ-RI
    Molecular point group: c1

    Geometry (in Angstrom), charge = 0, multiplicity = 1:

       Center              X                  Y                   Z               Mass
    ------------   -----------------  -----------------  -----------------  -----------------
         S            1.530343297928    -0.000486880841    -0.963848864022    31.972071174400
         N            2.923960297928     0.000731119159     1.563612135978    14.003074004430
         C           -0.167194702072    -0.000184880841    -0.379344864022    12.000000000000
         C           -0.829117702072     1.216429119159    -0.185129864022    12.000000000000
         C           -0.829252702072    -1.216590880841    -0.184291864022    12.000000000000
         C           -2.161526702072     1.210139119159     0.230472135978    12.000000000000
         C           -2.161663702072    -1.209865880841     0.231299135978    12.000000000000
         C           -2.828283702072     0.000244119159     0.436728135978    12.000000000000
         C            2.319448297928     0.000236119159     0.542763135978    12.000000000000
         H           -0.302431702072     2.153177119159    -0.347134864022     1.007825032230
         H           -0.302669702072    -2.153509880841    -0.345644864022     1.007825032230
         H           -2.679158702072     2.152764119159     0.388852135978     1.007825032230
         H           -2.679400702072    -2.152323880841     0.390326135978     1.007825032230
         H           -3.940425702072     0.000335719159     0.519774735978     1.007825032230

  Basis Set: AUG-CC-PVTZ
    Blend: AUG-CC-PVTZ
  Basis Set: (AUG-CC-PVTZ AUX)
    Blend: AUG-CC-PVTZ-JKFIT
	 Reference Energy          =    -720.0615810955146117 [Eh]
	 Singles Energy            =      -0.0000000000000000 [Eh]
	 Same-Spin Energy          =      -0.4131376940400092 [Eh]
	 Opposite-Spin Energy      =      -1.2519753653776600 [Eh]
	 Correlation Energy        =      -1.6651130594176693 [Eh]
	 Total Energy              =    -721.7266941549322610 [Eh]

	 ================> DF-SCS-MP2 Energies <==================
	-----------------------------------------------------------
	 SCS Same-Spin Scale       =       0.3333333333333333 [-]
	 SCS Opposite-Spin Scale   =       1.2000000000000000 [-]
	 SCS Same-Spin Energy      =      -0.1377125646800031 [Eh]
	 SCS Opposite-Spin Energy  =      -1.5023704384531920 [Eh]
	 SCS Correlation Energy    =      -1.6400830031331950 [Eh]
	 SCS Total Energy          =    -721.7016640986478251 [Eh]
	-----------------------------------------------------------

  Dipole Moment: [D]
     X:    -4.1684      Y:    -0.0010      Z:    -2.1373     Total:     4.6844

*** Psi4 exiting successfully. Buy a developer a beer!
