                               Psi4 1.3.2 release

  ==> Input File <==

--------------------------------------------------------------------------
#psi4
#
memory 32 gb

molecule  {
0 1
  S        1.5992360    -0.0004910    -0.9713300
  N        2.9928530     0.0007270     1.5561310
  C       -0.0983020    -0.0001890    -0.3868260
  C       -0.7602250     1.2164250    -0.1926110
  C       -0.7603600    -1.2165950    -0.1917730
  C       -2.0926340     1.2101350     0.2229910
  C       -2.0927710    -1.2098700     0.2238180
  C       -2.7593910     0.0002400     0.4292470
  C        2.3883410     0.0002320     0.5352820
  H       -0.2335390     2.1531730    -0.3546160
  H       -0.2337770    -2.1535140    -0.3531260
  H       -2.6102660     2.1527600     0.3813710
  H       -2.6105080    -2.1523280     0.3828450
  H       -3.8123962     0.0003935     0.7033507
units angstrom
no_reorient  #important for SAPT in psi4, default
symmetry c1  #important for SAPT in psi4, default
}

set PROPERTIES_ORIGIN ["COM"]
properties('MP2/aug-cc-pvtz', properties = ['dipole'])
--------------------------------------------------------------------------

    Molecular point group: c1
  Charge       = 0
  Multiplicity = 1
  Basis Set: AUG-CC-PVTZ
    Blend: AUG-CC-PVTZ
  Basis Set: (AUG-CC-PVTZ AUX)
    Blend: AUG-CC-PVTZ-JKFIT

    Orbital Energies [Eh]
    ---------------------

    Doubly Occupied:

       1A    -92.023585     2A    -15.587042     3A    -11.303235
       4A    -11.298343     5A    -11.270740     6A    -11.270699
       7A    -11.266806     8A    -11.262741     9A    -11.262556
      10A     -9.022590    11A     -6.704064    12A     -6.702542
      13A     -6.701715    14A     -1.213617    15A     -1.185439
      16A     -1.091240    17A     -1.044397    18A     -0.999742
      19A     -0.857008    20A     -0.839604    21A     -0.734836
      22A     -0.685754    23A     -0.657658    24A     -0.645038
      25A     -0.616205    26A     -0.587227    27A     -0.560057
      28A     -0.530746    29A     -0.529166    30A     -0.517225
      31A     -0.511787    32A     -0.448169    33A     -0.387222
      34A     -0.367847    35A     -0.363630

  @DF-RHF Final Energy:  -720.06571748303429

   => Energetics <=

    Nuclear Repulsion Energy =            440.3150320277401875
    One-Electron Energy =               -1858.6609544926495801
    Two-Electron Energy =                 698.2802049818750447
    Total Energy =                       -720.0657174830342910
  Basis Set: (AUG-CC-PVTZ AUX)
    Blend: AUG-CC-PVTZ-RI
    Molecular point group: c1

    Geometry (in Angstrom), charge = 0, multiplicity = 1:

       Center              X                  Y                   Z               Mass
    ------------   -----------------  -----------------  -----------------  -----------------
         S            1.529901866462    -0.000487342898    -0.965275025326    31.972071174400
         N            2.923518866462     0.000730657102     1.562185974674    14.003074004430
         C           -0.167636133538    -0.000185342898    -0.380771025326    12.000000000000
         C           -0.829559133538     1.216428657102    -0.186556025326    12.000000000000
         C           -0.829694133538    -1.216591342898    -0.185718025326    12.000000000000
         C           -2.161968133538     1.210138657102     0.229045974674    12.000000000000
         C           -2.162105133538    -1.209866342898     0.229872974674    12.000000000000
         C           -2.828725133538     0.000243657102     0.435301974674    12.000000000000
         C            2.319006866462     0.000235657102     0.541336974674    12.000000000000
         H           -0.302873133538     2.153176657102    -0.348561025326     1.007825032230
         H           -0.303111133538    -2.153510342898    -0.347071025326     1.007825032230
         H           -2.679600133538     2.152763657102     0.387425974674     1.007825032230
         H           -2.679842133538    -2.152324342898     0.388899974674     1.007825032230
         H           -3.881730333538     0.000397157102     0.709405674674     1.007825032230

  Basis Set: AUG-CC-PVTZ
    Blend: AUG-CC-PVTZ
  Basis Set: (AUG-CC-PVTZ AUX)
    Blend: AUG-CC-PVTZ-JKFIT
	 Reference Energy          =    -720.0657174830342910 [Eh]
	 Singles Energy            =      -0.0000000000000000 [Eh]
	 Same-Spin Energy          =      -0.4129188348465003 [Eh]
	 Opposite-Spin Energy      =      -1.2514106414447761 [Eh]
	 Correlation Energy        =      -1.6643294762912764 [Eh]
	 Total Energy              =    -721.7300469593255912 [Eh]

	 ================> DF-SCS-MP2 Energies <==================
	-----------------------------------------------------------
	 SCS Same-Spin Scale       =       0.3333333333333333 [-]
	 SCS Opposite-Spin Scale   =       1.2000000000000000 [-]
	 SCS Same-Spin Energy      =      -0.1376396116155001 [Eh]
	 SCS Opposite-Spin Energy  =      -1.5016927697337312 [Eh]
	 SCS Correlation Energy    =      -1.6393323813492313 [Eh]
	 SCS Total Energy          =    -721.7050498643835681 [Eh]
	-----------------------------------------------------------

  Dipole Moment: [D]
     X:    -4.1786      Y:    -0.0009      Z:    -2.0079     Total:     4.6360

*** Psi4 exiting successfully. Buy a developer a beer!
