                               Psi4 1.3.2 release

  ==> Input File <==

--------------------------------------------------------------------------
#psi4
#
memory 32 gb

molecule  {
0 1
  S        1.5992360    -0.0004910    -0.9713300
  N        2.9928530     0.0007270     1.5561310
  C       -0.0983020    -0.0001890    -0.3868260
  C       -0.7602250     1.2164250    -0.1926110
  C       -0.7603600    -1.2165950    -0.1917730
  C       -2.0926340     1.2101350     0.2229910
  C       -2.0927710    -1.2098700     0.2238180
  C       -2.7593910     0.0002400     0.4292470
  C        2.3883410     0.0002320     0.5352820
  H       -0.2335390     2.1531730    -0.3546160
  H       -0.2337770    -2.1535140    -0.3531260
  H       -2.6399298     2.1526910     0.2858720
  H       -2.6105080    -2.1523280     0.3828450
  H       -3.7976120     0.0004090     0.7511150
units angstrom
no_reorient  #important for SAPT in psi4, default
symmetry c1  #important for SAPT in psi4, default
}

set PROPERTIES_ORIGIN ["COM"]
properties('MP2/aug-cc-pvtz', properties = ['dipole'])
--------------------------------------------------------------------------

    Molecular point group: c1
  Charge       = 0
  Multiplicity = 1
  Basis Set: AUG-CC-PVTZ
    Blend: AUG-CC-PVTZ
  Basis Set: (AUG-CC-PVTZ AUX)
    Blend: AUG-CC-PVTZ-JKFIT

    Orbital Energies [Eh]
    ---------------------

    Doubly Occupied:

       1A    -92.023593     2A    -15.587040     3A    -11.303225
       4A    -11.298348     5A    -11.270818     6A    -11.270775
       7A    -11.266789     8A    -11.263061     9A    -11.262635
      10A     -9.022600    11A     -6.704074    12A     -6.702550
      13A     -6.701724    14A     -1.213613    15A     -1.185459
      16A     -1.091247    17A     -1.044321    18A     -0.999784
      19A     -0.856801    20A     -0.839578    21A     -0.734707
      22A     -0.685948    23A     -0.657684    24A     -0.644404
      25A     -0.615898    26A     -0.587033    27A     -0.559970
      28A     -0.533517    29A     -0.528827    30A     -0.515179
      31A     -0.511473    32A     -0.448243    33A     -0.387188
      34A     -0.367901    35A     -0.363631

  @DF-RHF Final Energy:  -720.06522523920967

   => Energetics <=

    Nuclear Repulsion Energy =            440.2966048260649927
    One-Electron Energy =               -1858.6243831525059704
    Two-Electron Energy =                 698.2625530872312538
    Total Energy =                       -720.0652252392096671
  Basis Set: (AUG-CC-PVTZ AUX)
    Blend: AUG-CC-PVTZ-RI
    Molecular point group: c1

    Geometry (in Angstrom), charge = 0, multiplicity = 1:

       Center              X                  Y                   Z               Mass
    ------------   -----------------  -----------------  -----------------  -----------------
         S            1.530012936449    -0.000486943543    -0.964918705765    31.972071174400
         N            2.923629936449     0.000731056457     1.562542294235    14.003074004430
         C           -0.167525063551    -0.000184943543    -0.380414705765    12.000000000000
         C           -0.829448063551     1.216429056457    -0.186199705765    12.000000000000
         C           -0.829583063551    -1.216590943543    -0.185361705765    12.000000000000
         C           -2.161857063551     1.210139056457     0.229402294235    12.000000000000
         C           -2.161994063551    -1.209865943543     0.230229294235    12.000000000000
         C           -2.828614063551     0.000244056457     0.435658294235    12.000000000000
         C            2.319117936449     0.000236056457     0.541693294235    12.000000000000
         H           -0.302762063551     2.153177056457    -0.348204705765     1.007825032230
         H           -0.303000063551    -2.153509943543    -0.346714705765     1.007825032230
         H           -2.709152863551     2.152695056457     0.292283294235     1.007825032230
         H           -2.679731063551    -2.152323943543     0.389256294235     1.007825032230
         H           -3.866835063551     0.000413056457     0.757526294235     1.007825032230

  Basis Set: AUG-CC-PVTZ
    Blend: AUG-CC-PVTZ
  Basis Set: (AUG-CC-PVTZ AUX)
    Blend: AUG-CC-PVTZ-JKFIT
	 Reference Energy          =    -720.0652252392096671 [Eh]
	 Singles Energy            =      -0.0000000000000000 [Eh]
	 Same-Spin Energy          =      -0.4129445075635687 [Eh]
	 Opposite-Spin Energy      =      -1.2514792810706103 [Eh]
	 Correlation Energy        =      -1.6644237886341791 [Eh]
	 Total Energy              =    -721.7296490278438341 [Eh]

	 ================> DF-SCS-MP2 Energies <==================
	-----------------------------------------------------------
	 SCS Same-Spin Scale       =       0.3333333333333333 [-]
	 SCS Opposite-Spin Scale   =       1.2000000000000000 [-]
	 SCS Same-Spin Energy      =      -0.1376481691878562 [Eh]
	 SCS Opposite-Spin Energy  =      -1.5017751372847323 [Eh]
	 SCS Correlation Energy    =      -1.6394233064725885 [Eh]
	 SCS Total Energy          =    -721.7046485456822893 [Eh]
	-----------------------------------------------------------

  Dipole Moment: [D]
     X:    -4.1841      Y:    -0.0081      Z:    -2.0371     Total:     4.6537

*** Psi4 exiting successfully. Buy a developer a beer!
