                               Psi4 1.3.2 release

  ==> Input File <==

--------------------------------------------------------------------------
#psi4
#
memory 32 gb

molecule  {
0 1
  S        1.5992360    -0.0004910    -0.9713300
  N        2.9928530     0.0007270     1.5561310
  C       -0.0983020    -0.0001890    -0.3868260
  C       -0.7602250     1.2164250    -0.1926110
  C       -0.7603600    -1.2165950    -0.1917730
  C       -2.0926340     1.2101350     0.2229910
  C       -2.0927710    -1.2098700     0.2238180
  C       -2.7593910     0.0002400     0.4292470
  C        2.3883410     0.0002320     0.5352820
  H       -0.2777512     2.1525404    -0.4979509
  H       -0.2337770    -2.1535140    -0.3531260
  H       -2.6102660     2.1527600     0.3813710
  H       -2.6105080    -2.1523280     0.3828450
  H       -3.7976120     0.0004090     0.7511150
units angstrom
no_reorient  #important for SAPT in psi4, default
symmetry c1  #important for SAPT in psi4, default
}

set PROPERTIES_ORIGIN ["COM"]
properties('MP2/aug-cc-pvtz', properties = ['dipole'])
--------------------------------------------------------------------------

    Molecular point group: c1
  Charge       = 0
  Multiplicity = 1
  Basis Set: AUG-CC-PVTZ
    Blend: AUG-CC-PVTZ
  Basis Set: (AUG-CC-PVTZ AUX)
    Blend: AUG-CC-PVTZ-JKFIT

    Orbital Energies [Eh]
    ---------------------

    Doubly Occupied:

       1A    -92.023474     2A    -15.586922     3A    -11.303094
       4A    -11.298456     5A    -11.271627     6A    -11.270780
       7A    -11.266772     8A    -11.262874     9A    -11.262680
      10A     -9.022481    11A     -6.703953    12A     -6.702449
      13A     -6.701614    14A     -1.213456    15A     -1.185452
      16A     -1.091230    17A     -1.044223    18A     -0.999711
      19A     -0.856618    20A     -0.839499    21A     -0.734582
      22A     -0.684818    23A     -0.657715    24A     -0.645389
      25A     -0.615589    26A     -0.586130    27A     -0.559733
      28A     -0.534420    29A     -0.528504    30A     -0.514774
      31A     -0.511271    32A     -0.448083    33A     -0.387082
      34A     -0.367894    35A     -0.363479

  @DF-RHF Final Energy:  -720.06448108131360

   => Energetics <=

    Nuclear Repulsion Energy =            440.2484137173737508
    One-Electron Energy =               -1858.5321355193289037
    Two-Electron Energy =                 698.2192407206415510
    Total Energy =                       -720.0644810813136019
  Basis Set: (AUG-CC-PVTZ AUX)
    Blend: AUG-CC-PVTZ-RI
    Molecular point group: c1

    Geometry (in Angstrom), charge = 0, multiplicity = 1:

       Center              X                  Y                   Z               Mass
    ------------   -----------------  -----------------  -----------------  -----------------
         S            1.530121534168    -0.000482736505    -0.964561630788    31.972071174400
         N            2.923738534168     0.000735263495     1.562899369212    14.003074004430
         C           -0.167416465832    -0.000180736505    -0.380057630788    12.000000000000
         C           -0.829339465832     1.216433263495    -0.185842630788    12.000000000000
         C           -0.829474465832    -1.216586736505    -0.185004630788    12.000000000000
         C           -2.161748465832     1.210143263495     0.229759369212    12.000000000000
         C           -2.161885465832    -1.209861736505     0.230586369212    12.000000000000
         C           -2.828505465832     0.000248263495     0.436015369212    12.000000000000
         C            2.319226534168     0.000240263495     0.542050369212    12.000000000000
         H           -0.346865665832     2.152548663495    -0.491182530788     1.007825032230
         H           -0.302891465832    -2.153505736505    -0.346357630788     1.007825032230
         H           -2.679380465832     2.152768263495     0.388139369212     1.007825032230
         H           -2.679622465832    -2.152319736505     0.389613369212     1.007825032230
         H           -3.866726465832     0.000417263495     0.757883369212     1.007825032230

  Basis Set: AUG-CC-PVTZ
    Blend: AUG-CC-PVTZ
  Basis Set: (AUG-CC-PVTZ AUX)
    Blend: AUG-CC-PVTZ-JKFIT
	 Reference Energy          =    -720.0644810813136019 [Eh]
	 Singles Energy            =      -0.0000000000000000 [Eh]
	 Same-Spin Energy          =      -0.4129772362594505 [Eh]
	 Opposite-Spin Energy      =      -1.2515173893129110 [Eh]
	 Correlation Energy        =      -1.6644946255723616 [Eh]
	 Total Energy              =    -721.7289757068859899 [Eh]

	 ================> DF-SCS-MP2 Energies <==================
	-----------------------------------------------------------
	 SCS Same-Spin Scale       =       0.3333333333333333 [-]
	 SCS Opposite-Spin Scale   =       1.2000000000000000 [-]
	 SCS Same-Spin Energy      =      -0.1376590787531502 [Eh]
	 SCS Opposite-Spin Energy  =      -1.5018208671754931 [Eh]
	 SCS Correlation Energy    =      -1.6394799459286433 [Eh]
	 SCS Total Energy          =    -721.7039610272422578 [Eh]
	-----------------------------------------------------------

  Dipole Moment: [D]
     X:    -4.2063      Y:    -0.0101      Z:    -2.0583     Total:     4.6829

*** Psi4 exiting successfully. Buy a developer a beer!
