                               Psi4 1.3.2 release

  ==> Input File <==

--------------------------------------------------------------------------
#psi4
#
memory 32 gb

molecule  {
0 1
  S        1.5992360    -0.0004910    -0.9713300
  N        2.9928530     0.0007270     1.5561310
  C       -0.0983020    -0.0001890    -0.3868260
  C       -0.7602250     1.2164250    -0.1926110
  C       -0.7603600    -1.2165950    -0.1917730
  C       -2.0926340     1.2101350     0.2229910
  C       -2.0927710    -1.2098700     0.2238180
  C       -2.7593910     0.0002400     0.4292470
  C        2.3883410     0.0002320     0.5352820
  H       -0.2335390     2.1531730    -0.3546160
  H       -0.2337770    -2.1535140    -0.3531260
  H       -2.6992575     2.1525530     0.0948741
  H       -2.6105080    -2.1523280     0.3828450
  H       -3.7976120     0.0004090     0.7511150
units angstrom
no_reorient  #important for SAPT in psi4, default
symmetry c1  #important for SAPT in psi4, default
}

set PROPERTIES_ORIGIN ["COM"]
properties('MP2/aug-cc-pvtz', properties = ['dipole'])
--------------------------------------------------------------------------

    Molecular point group: c1
  Charge       = 0
  Multiplicity = 1
  Basis Set: AUG-CC-PVTZ
    Blend: AUG-CC-PVTZ
  Basis Set: (AUG-CC-PVTZ AUX)
    Blend: AUG-CC-PVTZ-JKFIT

    Orbital Energies [Eh]
    ---------------------

    Doubly Occupied:

       1A    -92.023776     2A    -15.587188     3A    -11.303329
       4A    -11.298601     5A    -11.271527     6A    -11.271448
       7A    -11.267576     8A    -11.265981     9A    -11.262919
      10A     -9.022784    11A     -6.704259    12A     -6.702733
      13A     -6.701907    14A     -1.213753    15A     -1.185725
      16A     -1.091323    17A     -1.043888    18A     -0.999970
      19A     -0.855517    20A     -0.838970    21A     -0.733369
      22A     -0.685908    23A     -0.657999    24A     -0.641220
      25A     -0.613258    26A     -0.587340    27A     -0.560169
      28A     -0.536503    29A     -0.528006    30A     -0.514171
      31A     -0.507798    32A     -0.448439    33A     -0.387316
      34A     -0.368012    35A     -0.363353

  @DF-RHF Final Energy:  -720.05951296926219

   => Energetics <=

    Nuclear Repulsion Energy =            440.1476719138683507
    One-Electron Energy =               -1858.3222956047145544
    Two-Electron Energy =                 698.1151107215839602
    Total Energy =                       -720.0595129692621867
  Basis Set: (AUG-CC-PVTZ AUX)
    Blend: AUG-CC-PVTZ-RI
    Molecular point group: c1

    Geometry (in Angstrom), charge = 0, multiplicity = 1:

       Center              X                  Y                   Z               Mass
    ------------   -----------------  -----------------  -----------------  -----------------
         S            1.530455792905    -0.000485913431    -0.963492986364    31.972071174400
         N            2.924072792905     0.000732086569     1.563968013636    14.003074004430
         C           -0.167082207095    -0.000183913431    -0.378988986364    12.000000000000
         C           -0.829005207095     1.216430086569    -0.184773986364    12.000000000000
         C           -0.829140207095    -1.216589913431    -0.183935986364    12.000000000000
         C           -2.161414207095     1.210140086569     0.230828013636    12.000000000000
         C           -2.161551207095    -1.209864913431     0.231655013636    12.000000000000
         C           -2.828171207095     0.000245086569     0.437084013636    12.000000000000
         C            2.319560792905     0.000237086569     0.543119013636    12.000000000000
         H           -0.302319207095     2.153178086569    -0.346778986364     1.007825032230
         H           -0.302557207095    -2.153508913431    -0.345288986364     1.007825032230
         H           -2.768037707095     2.152558086569     0.102711113636     1.007825032230
         H           -2.679288207095    -2.152322913431     0.390682013636     1.007825032230
         H           -3.866392207095     0.000414086569     0.758952013636     1.007825032230

  Basis Set: AUG-CC-PVTZ
    Blend: AUG-CC-PVTZ
  Basis Set: (AUG-CC-PVTZ AUX)
    Blend: AUG-CC-PVTZ-JKFIT
	 Reference Energy          =    -720.0595129692621867 [Eh]
	 Singles Energy            =      -0.0000000000000000 [Eh]
	 Same-Spin Energy          =      -0.4132018484129594 [Eh]
	 Opposite-Spin Energy      =      -1.2521850368134764 [Eh]
	 Correlation Energy        =      -1.6653868852264357 [Eh]
	 Total Energy              =    -721.7248998544886263 [Eh]

	 ================> DF-SCS-MP2 Energies <==================
	-----------------------------------------------------------
	 SCS Same-Spin Scale       =       0.3333333333333333 [-]
	 SCS Opposite-Spin Scale   =       1.2000000000000000 [-]
	 SCS Same-Spin Energy      =      -0.1377339494709865 [Eh]
	 SCS Opposite-Spin Energy  =      -1.5026220441761715 [Eh]
	 SCS Correlation Energy    =      -1.6403559936471579 [Eh]
	 SCS Total Energy          =    -721.6998689629093633 [Eh]
	-----------------------------------------------------------

  Dipole Moment: [D]
     X:    -4.1846      Y:    -0.0605      Z:    -2.1584     Total:     4.7088

*** Psi4 exiting successfully. Buy a developer a beer!
