                               Psi4 1.4a2.dev612

  ==> Input File <==

--------------------------------------------------------------------------
#psi4
#
memory 32 gb

molecule  {
-1 1
  O       -1.4366360    -1.1870470     0.0571230
  O       -1.4476160     1.0691130    -0.2107340
  N        1.2636070     1.2939420     0.0706720
  C        0.6629007    -0.0135440     0.1996979
  C        1.4068670    -1.1350240    -0.2248910
  C       -0.8878250    -0.0451320     0.0288030
  H        0.6585810    -0.1007720     1.4894850
  H        2.4544500    -1.1027320     0.0899700
  H        0.9700140    -2.0919800     0.0583780
  H        1.3764410    -1.0627810    -1.3188240
  H        0.5133110     1.9810410     0.1712720
  H        1.4338170     1.2887330    -0.9390950
units angstrom
no_reorient  #important for SAPT in psi4, default
symmetry c1  #important for SAPT in psi4, default
}

set PROPERTIES_ORIGIN ["COM"]
properties('MP2/aug-cc-pvtz', properties = ['dipole'])
--------------------------------------------------------------------------

    Molecular point group: c1
  Charge       = -1
  Multiplicity = 1
  Basis Set: AUG-CC-PVTZ
    Blend: AUG-CC-PVTZ
  Basis Set: (AUG-CC-PVTZ AUX)
    Blend: AUG-CC-PVTZ-JKFIT

    Orbital Energies [Eh]
    ---------------------

    Doubly Occupied:

       1A    -20.303487     2A    -20.298170     3A    -15.392688
       4A    -11.146230     5A    -11.105288     6A    -11.071294
       7A     -1.171163     8A     -1.070537     9A     -1.040085
      10A     -0.869298    11A     -0.679644    12A     -0.540992
      13A     -0.512006    14A     -0.469812    15A     -0.440126
      16A     -0.410416    17A     -0.389738    18A     -0.380460
      19A     -0.360515    20A     -0.303438    21A     -0.260230
      22A     -0.216007    23A     -0.201341    24A     -0.188657

  @DF-RHF Final Energy:  -321.38917762199873

   => Energetics <=

    Nuclear Repulsion Energy =            238.9524592307862747
    One-Electron Energy =                -923.0400278973577315
    Two-Electron Energy =                 362.6983910445727020
    Total Energy =                       -321.3891776219987264
  Basis Set: (AUG-CC-PVTZ AUX)
    Blend: AUG-CC-PVTZ-RI
    Molecular point group: c1

    Geometry (in Angstrom), charge = -1, multiplicity = 1:

       Center              X                  Y                   Z               Mass
    ------------   -----------------  -----------------  -----------------  -----------------
         O           -1.359499356884    -1.196263426583     0.078435811123    15.994914619570
         O           -1.370479356884     1.059896573417    -0.189421188877    15.994914619570
         N            1.340743643116     1.284725573417     0.091984811123    14.003074004430
         C            0.740037343116    -0.022760426583     0.221010711123    12.000000000000
         C            1.484003643116    -1.144240426583    -0.203578188877    12.000000000000
         C           -0.810688356884    -0.054348426583     0.050115811123    12.000000000000
         H            0.735717643116    -0.109988426583     1.510797811123     1.007825032230
         H            2.531586643116    -1.111948426583     0.111282811123     1.007825032230
         H            1.047150643116    -2.101196426583     0.079690811123     1.007825032230
         H            1.453577643116    -1.071997426583    -1.297511188877     1.007825032230
         H            0.590447643116     1.971824573417     0.192584811123     1.007825032230
         H            1.510953643116     1.279516573417    -0.917782188877     1.007825032230

  Basis Set: AUG-CC-PVTZ
    Blend: AUG-CC-PVTZ
  Basis Set: (AUG-CC-PVTZ AUX)
    Blend: AUG-CC-PVTZ-JKFIT
	 Reference Energy          =    -321.3891776219987264 [Eh]
	 Singles Energy            =      -0.0000000000000000 [Eh]
	 Same-Spin Energy          =      -0.3275108672021946 [Eh]
	 Opposite-Spin Energy      =      -1.0095042229267022 [Eh]
	 Correlation Energy        =      -1.3370150901288969 [Eh]
	 Total Energy              =    -322.7261927121276130 [Eh]

	 ================> DF-SCS-MP2 Energies <==================
	-----------------------------------------------------------
	 SCS Same-Spin Scale       =       0.3333333333333333 [-]
	 SCS Opposite-Spin Scale   =       1.2000000000000000 [-]
	 SCS Same-Spin Energy      =      -0.1091702890673982 [Eh]
	 SCS Opposite-Spin Energy  =      -1.2114050675120425 [Eh]
	 SCS Correlation Energy    =      -1.3205753565794407 [Eh]
	 SCS Total Energy          =    -322.7097529785781944 [Eh]
	-----------------------------------------------------------

  Dipole Moment: [D]
     X:     4.6013      Y:    -0.0844      Z:    -0.6579     Total:     4.6488

*** Psi4 exiting successfully. Buy a developer a beer!
