                               Psi4 1.4a2.dev612

  ==> Input File <==

--------------------------------------------------------------------------
#psi4
#
memory 32 gb

molecule  {
-1 1
  O       -1.4366360    -1.1870470     0.0571230
  O       -1.4476160     1.0691130    -0.2107340
  N        1.2636070     1.2939420     0.0706720
  C        0.6853596    -0.0249245     0.1029194
  C        1.4068670    -1.1350240    -0.2248910
  C       -0.8878250    -0.0451320     0.0288030
  H        0.6585810    -0.1007720     1.4894850
  H        2.4544500    -1.1027320     0.0899700
  H        0.9700140    -2.0919800     0.0583780
  H        1.3764410    -1.0627810    -1.3188240
  H        0.5133110     1.9810410     0.1712720
  H        1.4338170     1.2887330    -0.9390950
units angstrom
no_reorient  #important for SAPT in psi4, default
symmetry c1  #important for SAPT in psi4, default
}

set PROPERTIES_ORIGIN ["COM"]
properties('MP2/aug-cc-pvtz', properties = ['dipole'])
--------------------------------------------------------------------------

    Molecular point group: c1
  Charge       = -1
  Multiplicity = 1
  Basis Set: AUG-CC-PVTZ
    Blend: AUG-CC-PVTZ
  Basis Set: (AUG-CC-PVTZ AUX)
    Blend: AUG-CC-PVTZ-JKFIT

    Orbital Energies [Eh]
    ---------------------

    Doubly Occupied:

       1A    -20.304859     2A    -20.298726     3A    -15.397887
       4A    -11.151483     5A    -11.114989     6A    -11.072846
       7A     -1.172255     8A     -1.071953     9A     -1.048631
      10A     -0.886179    11A     -0.673666    12A     -0.548366
      13A     -0.512786    14A     -0.476439    15A     -0.440668
      16A     -0.424041    17A     -0.391703    18A     -0.385478
      19A     -0.359674    20A     -0.305279    21A     -0.241020
      22A     -0.216215    23A     -0.202408    24A     -0.180362

  @DF-RHF Final Energy:  -321.34733241380576

   => Energetics <=

    Nuclear Repulsion Energy =            239.2415525896881832
    One-Electron Energy =                -923.4219407824723476
    Two-Electron Energy =                 362.8330557789784621
    Total Energy =                       -321.3473324138057592
  Basis Set: (AUG-CC-PVTZ AUX)
    Blend: AUG-CC-PVTZ-RI
    Molecular point group: c1

    Geometry (in Angstrom), charge = -1, multiplicity = 1:

       Center              X                  Y                   Z               Mass
    ------------   -----------------  -----------------  -----------------  -----------------
         O           -1.362560547805    -1.194712242719     0.091626905323    15.994914619570
         O           -1.373540547805     1.061447757281    -0.176230094677    15.994914619570
         N            1.337682452195     1.286276757281     0.105175905323    14.003074004430
         C            0.759435052195    -0.032589742719     0.137423305323    12.000000000000
         C            1.480942452195    -1.142689242719    -0.190387094677    12.000000000000
         C           -0.813749547805    -0.052797242719     0.063306905323    12.000000000000
         H            0.732656452195    -0.108437242719     1.523988905323     1.007825032230
         H            2.528525452195    -1.110397242719     0.124473905323     1.007825032230
         H            1.044089452195    -2.099645242719     0.092881905323     1.007825032230
         H            1.450516452195    -1.070446242719    -1.284320094677     1.007825032230
         H            0.587386452195     1.973375757281     0.205775905323     1.007825032230
         H            1.507892452195     1.281067757281    -0.904591094677     1.007825032230

  Basis Set: AUG-CC-PVTZ
    Blend: AUG-CC-PVTZ
  Basis Set: (AUG-CC-PVTZ AUX)
    Blend: AUG-CC-PVTZ-JKFIT
	 Reference Energy          =    -321.3473324138057592 [Eh]
	 Singles Energy            =      -0.0000000000000000 [Eh]
	 Same-Spin Energy          =      -0.3290737798386766 [Eh]
	 Opposite-Spin Energy      =      -1.0123193842184448 [Eh]
	 Correlation Energy        =      -1.3413931640571213 [Eh]
	 Total Energy              =    -322.6887255778628969 [Eh]

	 ================> DF-SCS-MP2 Energies <==================
	-----------------------------------------------------------
	 SCS Same-Spin Scale       =       0.3333333333333333 [-]
	 SCS Opposite-Spin Scale   =       1.2000000000000000 [-]
	 SCS Same-Spin Energy      =      -0.1096912599462255 [Eh]
	 SCS Opposite-Spin Energy  =      -1.2147832610621336 [Eh]
	 SCS Correlation Energy    =      -1.3244745210083591 [Eh]
	 SCS Total Energy          =    -322.6718069348141285 [Eh]
	-----------------------------------------------------------

  Dipole Moment: [D]
     X:     4.6514      Y:    -0.0625      Z:    -0.9250     Total:     4.7429

*** Psi4 exiting successfully. Buy a developer a beer!
