                               Psi4 1.4a2.dev612

  ==> Input File <==

--------------------------------------------------------------------------
#psi4
#
memory 32 gb

molecule  {
-1 1
  O       -1.4366360    -1.1870470     0.0571230
  O       -1.4476160     1.0691130    -0.2107340
  N        1.2636070     1.2939420     0.0706720
  C        0.6516713    -0.0078537     0.2480872
  C        1.4068670    -1.1350240    -0.2248910
  C       -0.8878250    -0.0451320     0.0288030
  H        0.6585810    -0.1007720     1.4894850
  H        2.4544500    -1.1027320     0.0899700
  H        0.9700140    -2.0919800     0.0583780
  H        1.3764410    -1.0627810    -1.3188240
  H        0.5133110     1.9810410     0.1712720
  H        1.4338170     1.2887330    -0.9390950
units angstrom
no_reorient  #important for SAPT in psi4, default
symmetry c1  #important for SAPT in psi4, default
}

set PROPERTIES_ORIGIN ["COM"]
properties('MP2/aug-cc-pvtz', properties = ['dipole'])
--------------------------------------------------------------------------

    Molecular point group: c1
  Charge       = -1
  Multiplicity = 1
  Basis Set: AUG-CC-PVTZ
    Blend: AUG-CC-PVTZ
  Basis Set: (AUG-CC-PVTZ AUX)
    Blend: AUG-CC-PVTZ-JKFIT

    Orbital Energies [Eh]
    ---------------------

    Doubly Occupied:

       1A    -20.302985     2A    -20.298063     3A    -15.390512
       4A    -11.144274     5A    -11.101372     6A    -11.070965
       7A     -1.170757     8A     -1.070023     9A     -1.035628
      10A     -0.861605    11A     -0.682903    12A     -0.538490
      13A     -0.510779    14A     -0.467112    15A     -0.440099
      16A     -0.405734    17A     -0.389091    18A     -0.375242
      19A     -0.361149    20A     -0.304310    21A     -0.269449
      22A     -0.215879    23A     -0.200938    24A     -0.190973

  @DF-RHF Final Energy:  -321.40519113442502

   => Energetics <=

    Nuclear Repulsion Energy =            238.7503858867196413
    One-Electron Energy =                -922.7144921236024402
    Two-Electron Energy =                 362.5589151024577745
    Total Energy =                       -321.4051911344250243
  Basis Set: (AUG-CC-PVTZ AUX)
    Blend: AUG-CC-PVTZ-RI
    Molecular point group: c1

    Geometry (in Angstrom), charge = -1, multiplicity = 1:

       Center              X                  Y                   Z               Mass
    ------------   -----------------  -----------------  -----------------  -----------------
         O           -1.357968768239    -1.197039025329     0.071840257208    15.994914619570
         O           -1.368948768239     1.059120974671    -0.196016742792    15.994914619570
         N            1.342274231761     1.283949974671     0.085389257208    14.003074004430
         C            0.730338531761    -0.017845725329     0.262804457208    12.000000000000
         C            1.485534231761    -1.145016025329    -0.210173742792    12.000000000000
         C           -0.809157768239    -0.055124025329     0.043520257208    12.000000000000
         H            0.737248231761    -0.110764025329     1.504202257208     1.007825032230
         H            2.533117231761    -1.112724025329     0.104687257208     1.007825032230
         H            1.048681231761    -2.101972025329     0.073095257208     1.007825032230
         H            1.455108231761    -1.072773025329    -1.304106742792     1.007825032230
         H            0.591978231761     1.971048974671     0.185989257208     1.007825032230
         H            1.512484231761     1.278740974671    -0.924377742792     1.007825032230

  Basis Set: AUG-CC-PVTZ
    Blend: AUG-CC-PVTZ
  Basis Set: (AUG-CC-PVTZ AUX)
    Blend: AUG-CC-PVTZ-JKFIT
	 Reference Energy          =    -321.4051911344250243 [Eh]
	 Singles Energy            =      -0.0000000000000000 [Eh]
	 Same-Spin Energy          =      -0.3268713582107398 [Eh]
	 Opposite-Spin Energy      =      -1.0084076847289114 [Eh]
	 Correlation Energy        =      -1.3352790429396513 [Eh]
	 Total Energy              =    -322.7404701773646707 [Eh]

	 ================> DF-SCS-MP2 Energies <==================
	-----------------------------------------------------------
	 SCS Same-Spin Scale       =       0.3333333333333333 [-]
	 SCS Opposite-Spin Scale   =       1.2000000000000000 [-]
	 SCS Same-Spin Energy      =      -0.1089571194035799 [Eh]
	 SCS Opposite-Spin Energy  =      -1.2100892216746937 [Eh]
	 SCS Correlation Energy    =      -1.3190463410782736 [Eh]
	 SCS Total Energy          =    -322.7242374755032870 [Eh]
	-----------------------------------------------------------

  Dipole Moment: [D]
     X:     4.5703      Y:    -0.0971      Z:    -0.5353     Total:     4.6026

*** Psi4 exiting successfully. Buy a developer a beer!
