                               Psi4 1.4a2.dev612

  ==> Input File <==

--------------------------------------------------------------------------
#psi4
#
memory 32 gb

molecule  {
-1 1
  O       -1.4366360    -1.1870470     0.0571230
  O       -1.4476160     1.0691130    -0.2107340
  N        1.2636070     1.2939420     0.0706720
  C        0.6179830     0.0092170     0.3932550
  C        1.4068670    -1.1350240    -0.2248910
  C       -0.8878250    -0.0451320     0.0288030
  H        0.6585810    -0.1007720     1.4894850
  H        2.4544500    -1.1027320     0.0899700
  H        0.9700140    -2.0919800     0.0583780
  H        1.3764410    -1.0627810    -1.3188240
  H        0.5133110     1.9810410     0.1712720
  H        1.4338170     1.2887330    -0.9390950
units angstrom
no_reorient  #important for SAPT in psi4, default
symmetry c1  #important for SAPT in psi4, default
}

set PROPERTIES_ORIGIN ["COM"]
properties('MP2/aug-cc-pvtz', properties = ['dipole'])
--------------------------------------------------------------------------

    Molecular point group: c1
  Charge       = -1
  Multiplicity = 1
  Basis Set: AUG-CC-PVTZ
    Blend: AUG-CC-PVTZ
  Basis Set: (AUG-CC-PVTZ AUX)
    Blend: AUG-CC-PVTZ-JKFIT

    Orbital Energies [Eh]
    ---------------------

    Doubly Occupied:

       1A    -20.302241     2A    -20.298348     3A    -15.385750
       4A    -11.141336     5A    -11.093431     6A    -11.071411
       7A     -1.170100     8A     -1.069239     9A     -1.021712
      10A     -0.842037    11A     -0.694405    12A     -0.538983
      13A     -0.501299    14A     -0.460866    15A     -0.441624
      16A     -0.399919    17A     -0.387871    18A     -0.371690
      19A     -0.348190    20A     -0.318910    21A     -0.279096
      22A     -0.215638    23A     -0.200366    24A     -0.194027

  @DF-RHF Final Energy:  -321.42851527320585

   => Energetics <=

    Nuclear Repulsion Energy =            237.9425764851571898
    One-Electron Energy =                -921.2452101030869471
    Two-Electron Energy =                 361.8741183447239678
    Total Energy =                       -321.4285152732058464
  Basis Set: (AUG-CC-PVTZ AUX)
    Blend: AUG-CC-PVTZ-RI
    Molecular point group: c1

    Geometry (in Angstrom), charge = -1, multiplicity = 1:

       Center              X                  Y                   Z               Mass
    ------------   -----------------  -----------------  -----------------  -----------------
         O           -1.353376988673    -1.199365794310     0.052053609094    15.994914619570
         O           -1.364356988673     1.056794205690    -0.215803390906    15.994914619570
         N            1.346866011327     1.281623205690     0.065602609094    14.003074004430
         C            0.701242011327    -0.003101794310     0.388185609094    12.000000000000
         C            1.490126011327    -1.147342794310    -0.229960390906    12.000000000000
         C           -0.804565988673    -0.057450794310     0.023733609094    12.000000000000
         H            0.741840011327    -0.113090794310     1.484415609094     1.007825032230
         H            2.537709011327    -1.115050794310     0.084900609094     1.007825032230
         H            1.053273011327    -2.104298794310     0.053308609094     1.007825032230
         H            1.459700011327    -1.075099794310    -1.323893390906     1.007825032230
         H            0.596570011327     1.968722205690     0.166202609094     1.007825032230
         H            1.517076011327     1.276414205690    -0.944164390906     1.007825032230

  Basis Set: AUG-CC-PVTZ
    Blend: AUG-CC-PVTZ
  Basis Set: (AUG-CC-PVTZ AUX)
    Blend: AUG-CC-PVTZ-JKFIT
	 Reference Energy          =    -321.4285152732058464 [Eh]
	 Singles Energy            =      -0.0000000000000000 [Eh]
	 Same-Spin Energy          =      -0.3255789950087903 [Eh]
	 Opposite-Spin Energy      =      -1.0065708046610014 [Eh]
	 Correlation Energy        =      -1.3321497996697915 [Eh]
	 Total Energy              =    -322.7606650728756108 [Eh]

	 ================> DF-SCS-MP2 Energies <==================
	-----------------------------------------------------------
	 SCS Same-Spin Scale       =       0.3333333333333333 [-]
	 SCS Opposite-Spin Scale   =       1.2000000000000000 [-]
	 SCS Same-Spin Energy      =      -0.1085263316695968 [Eh]
	 SCS Opposite-Spin Energy  =      -1.2078849655932016 [Eh]
	 SCS Correlation Energy    =      -1.3164112972627984 [Eh]
	 SCS Total Energy          =    -322.7449265704686354 [Eh]
	-----------------------------------------------------------

  Dipole Moment: [D]
     X:     4.4502      Y:    -0.1339      Z:    -0.2119     Total:     4.4573

*** Psi4 exiting successfully. Buy a developer a beer!
