                               Psi4 1.4a2.dev612

  ==> Input File <==

--------------------------------------------------------------------------
#psi4
#
memory 32 gb

molecule  {
-1 1
  O       -1.4366360    -1.1870470     0.0571230
  O       -1.4476160     1.0691130    -0.2107340
  N        1.2636070     1.2939420     0.0706720
  C        0.6292124     0.0035268     0.3448657
  C        1.4068670    -1.1350240    -0.2248910
  C       -0.8878250    -0.0451320     0.0288030
  H        0.6585810    -0.1007720     1.4894850
  H        2.4544500    -1.1027320     0.0899700
  H        0.9700140    -2.0919800     0.0583780
  H        1.3764410    -1.0627810    -1.3188240
  H        0.5133110     1.9810410     0.1712720
  H        1.4338170     1.2887330    -0.9390950
units angstrom
no_reorient  #important for SAPT in psi4, default
symmetry c1  #important for SAPT in psi4, default
}

set PROPERTIES_ORIGIN ["COM"]
properties('MP2/aug-cc-pvtz', properties = ['dipole'])
--------------------------------------------------------------------------

    Molecular point group: c1
  Charge       = -1
  Multiplicity = 1
  Basis Set: AUG-CC-PVTZ
    Blend: AUG-CC-PVTZ
  Basis Set: (AUG-CC-PVTZ AUX)
    Blend: AUG-CC-PVTZ-JKFIT

    Orbital Energies [Eh]
    ---------------------

    Doubly Occupied:

       1A    -20.302363     2A    -20.298157     3A    -15.387048
       4A    -11.141812     5A    -11.095457     6A    -11.071050
       7A     -1.170227     8A     -1.069377     9A     -1.026425
      10A     -0.847935    11A     -0.690210    12A     -0.537435
      13A     -0.505374    14A     -0.462670    15A     -0.440778
      16A     -0.400960    17A     -0.388203    18A     -0.368868
      19A     -0.355604    20A     -0.313375    21A     -0.278852
      22A     -0.215692    23A     -0.200446    24A     -0.193473

  @DF-RHF Final Energy:  -321.42533803532410

   => Energetics <=

    Nuclear Repulsion Energy =            238.2427435668172393
    One-Electron Energy =                -921.8125846281293434
    Two-Electron Energy =                 362.1445030259880014
    Total Energy =                       -321.4253380353241027
  Basis Set: (AUG-CC-PVTZ AUX)
    Blend: AUG-CC-PVTZ-RI
    Molecular point group: c1

    Geometry (in Angstrom), charge = -1, multiplicity = 1:

       Center              X                  Y                   Z               Mass
    ------------   -----------------  -----------------  -----------------  -----------------
         O           -1.354907577318    -1.198590209193     0.058649163009    15.994914619570
         O           -1.365887577318     1.057569790807    -0.209207836991    15.994914619570
         N            1.345335422682     1.282398790807     0.072198163009    14.003074004430
         C            0.710940822682    -0.008016409193     0.346391863009    12.000000000000
         C            1.488595422682    -1.146567209193    -0.223364836991    12.000000000000
         C           -0.806096577318    -0.056675209193     0.030329163009    12.000000000000
         H            0.740309422682    -0.112315209193     1.491011163009     1.007825032230
         H            2.536178422682    -1.114275209193     0.091496163009     1.007825032230
         H            1.051742422682    -2.103523209193     0.059904163009     1.007825032230
         H            1.458169422682    -1.074324209193    -1.317297836991     1.007825032230
         H            0.595039422682     1.969497790807     0.172798163009     1.007825032230
         H            1.515545422682     1.277189790807    -0.937568836991     1.007825032230

  Basis Set: AUG-CC-PVTZ
    Blend: AUG-CC-PVTZ
  Basis Set: (AUG-CC-PVTZ AUX)
    Blend: AUG-CC-PVTZ-JKFIT
	 Reference Energy          =    -321.4253380353241027 [Eh]
	 Singles Energy            =      -0.0000000000000000 [Eh]
	 Same-Spin Energy          =      -0.3259013494134450 [Eh]
	 Opposite-Spin Energy      =      -1.0069180669567448 [Eh]
	 Correlation Energy        =      -1.3328194163701896 [Eh]
	 Total Energy              =    -322.7581574516942737 [Eh]

	 ================> DF-SCS-MP2 Energies <==================
	-----------------------------------------------------------
	 SCS Same-Spin Scale       =       0.3333333333333333 [-]
	 SCS Opposite-Spin Scale   =       1.2000000000000000 [-]
	 SCS Same-Spin Energy      =      -0.1086337831378150 [Eh]
	 SCS Opposite-Spin Energy  =      -1.2083016803480937 [Eh]
	 SCS Correlation Energy    =      -1.3169354634859087 [Eh]
	 SCS Total Energy          =    -322.7422734988099933 [Eh]
	-----------------------------------------------------------

  Dipole Moment: [D]
     X:     4.4949      Y:    -0.1222      Z:    -0.3126     Total:     4.5074

*** Psi4 exiting successfully. Buy a developer a beer!
