                               Psi4 1.4a2.dev612

  ==> Input File <==

--------------------------------------------------------------------------
#psi4
#
memory 32 gb

molecule  {
-1 1
  O       -1.4366360    -1.1870470     0.0571230
  O       -1.4476160     1.0691130    -0.2107340
  N        1.2636070     1.2939420     0.0706720
  C        0.6404419    -0.0021635     0.2964765
  C        1.4068670    -1.1350240    -0.2248910
  C       -0.8878250    -0.0451320     0.0288030
  H        0.6585810    -0.1007720     1.4894850
  H        2.4544500    -1.1027320     0.0899700
  H        0.9700140    -2.0919800     0.0583780
  H        1.3764410    -1.0627810    -1.3188240
  H        0.5133110     1.9810410     0.1712720
  H        1.4338170     1.2887330    -0.9390950
units angstrom
no_reorient  #important for SAPT in psi4, default
symmetry c1  #important for SAPT in psi4, default
}

set PROPERTIES_ORIGIN ["COM"]
properties('MP2/aug-cc-pvtz', properties = ['dipole'])
--------------------------------------------------------------------------

    Molecular point group: c1
  Charge       = -1
  Multiplicity = 1
  Basis Set: AUG-CC-PVTZ
    Blend: AUG-CC-PVTZ
  Basis Set: (AUG-CC-PVTZ AUX)
    Blend: AUG-CC-PVTZ-JKFIT

    Orbital Energies [Eh]
    ---------------------

    Doubly Occupied:

       1A    -20.302611     2A    -20.298060     3A    -15.388632
       4A    -11.142795     5A    -11.098097     6A    -11.070893
       7A     -1.170445     8A     -1.069637     9A     -1.031069
      10A     -0.854471    11A     -0.686403    12A     -0.537251
      13A     -0.508593    14A     -0.464745    15A     -0.440293
      16A     -0.402742    17A     -0.388600    18A     -0.369767
      19A     -0.360736    20A     -0.307672    21A     -0.275962
      22A     -0.215772    23A     -0.200637    24A     -0.192505

  @DF-RHF Final Energy:  -321.41739384112600

   => Energetics <=

    Nuclear Repulsion Energy =            238.5129566172985278
    One-Electron Energy =                -922.3039274769229223
    Two-Electron Energy =                 362.3735770184983949
    Total Energy =                       -321.4173938411259996
  Basis Set: (AUG-CC-PVTZ AUX)
    Blend: AUG-CC-PVTZ-RI
    Molecular point group: c1

    Geometry (in Angstrom), charge = -1, multiplicity = 1:

       Center              X                  Y                   Z               Mass
    ------------   -----------------  -----------------  -----------------  -----------------
         O           -1.356438179594    -1.197814610446     0.065244703293    15.994914619570
         O           -1.367418179594     1.058345389554    -0.202612296707    15.994914619570
         N            1.343804820406     1.283174389554     0.078793703293    14.003074004430
         C            0.720639720406    -0.012931110446     0.304598203293    12.000000000000
         C            1.487064820406    -1.145791610446    -0.216769296707    12.000000000000
         C           -0.807627179594    -0.055899610446     0.036924703293    12.000000000000
         H            0.738778820406    -0.111539610446     1.497606703293     1.007825032230
         H            2.534647820406    -1.113499610446     0.098091703293     1.007825032230
         H            1.050211820406    -2.102747610446     0.066499703293     1.007825032230
         H            1.456638820406    -1.073548610446    -1.310702296707     1.007825032230
         H            0.593508820406     1.970273389554     0.179393703293     1.007825032230
         H            1.514014820406     1.277965389554    -0.930973296707     1.007825032230

  Basis Set: AUG-CC-PVTZ
    Blend: AUG-CC-PVTZ
  Basis Set: (AUG-CC-PVTZ AUX)
    Blend: AUG-CC-PVTZ-JKFIT
	 Reference Energy          =    -321.4173938411259996 [Eh]
	 Singles Energy            =      -0.0000000000000000 [Eh]
	 Same-Spin Energy          =      -0.3263334789714832 [Eh]
	 Opposite-Spin Energy      =      -1.0075387435851684 [Eh]
	 Correlation Energy        =      -1.3338722225566515 [Eh]
	 Total Energy              =    -322.7512660636826354 [Eh]

	 ================> DF-SCS-MP2 Energies <==================
	-----------------------------------------------------------
	 SCS Same-Spin Scale       =       0.3333333333333333 [-]
	 SCS Opposite-Spin Scale   =       1.2000000000000000 [-]
	 SCS Same-Spin Energy      =      -0.1087778263238277 [Eh]
	 SCS Opposite-Spin Energy  =      -1.2090464923022020 [Eh]
	 SCS Correlation Energy    =      -1.3178243186260297 [Eh]
	 SCS Total Energy          =    -322.7352181597520371 [Eh]
	-----------------------------------------------------------

  Dipole Moment: [D]
     X:     4.5349      Y:    -0.1098      Z:    -0.4203     Total:     4.5557

*** Psi4 exiting successfully. Buy a developer a beer!
