                               Psi4 1.4a2.dev612

  ==> Input File <==

--------------------------------------------------------------------------
#psi4
#
memory 32 gb

molecule  {
-1 1
  O       -1.4366360    -1.1870470     0.0571230
  O       -1.4476160     1.0691130    -0.2107340
  N        1.2636070     1.2939420     0.0706720
  C        0.6741302    -0.0192342     0.1513087
  C        1.4068670    -1.1350240    -0.2248910
  C       -0.8878250    -0.0451320     0.0288030
  H        0.6585810    -0.1007720     1.4894850
  H        2.4544500    -1.1027320     0.0899700
  H        0.9700140    -2.0919800     0.0583780
  H        1.3764410    -1.0627810    -1.3188240
  H        0.5133110     1.9810410     0.1712720
  H        1.4338170     1.2887330    -0.9390950
units angstrom
no_reorient  #important for SAPT in psi4, default
symmetry c1  #important for SAPT in psi4, default
}

set PROPERTIES_ORIGIN ["COM"]
properties('MP2/aug-cc-pvtz', properties = ['dipole'])
--------------------------------------------------------------------------

    Molecular point group: c1
  Charge       = -1
  Multiplicity = 1
  Basis Set: AUG-CC-PVTZ
    Blend: AUG-CC-PVTZ
  Basis Set: (AUG-CC-PVTZ AUX)
    Blend: AUG-CC-PVTZ-JKFIT

    Orbital Energies [Eh]
    ---------------------

    Doubly Occupied:

       1A    -20.304112     2A    -20.298389     3A    -15.395153
       4A    -11.148642     5A    -11.109837     6A    -11.071911
       7A     -1.171663     8A     -1.071180     9A     -1.044425
      10A     -0.877507    11A     -0.676578    12A     -0.544406
      13A     -0.512565    14A     -0.472900    15A     -0.440320
      16A     -0.416753    17A     -0.390615    18A     -0.383795
      19A     -0.359982    20A     -0.304013    21A     -0.250236
      22A     -0.216136    23A     -0.201835    24A     -0.185243

  @DF-RHF Final Energy:  -321.36976212855808

   => Energetics <=

    Nuclear Repulsion Energy =            239.1168653680321938
    One-Electron Energy =                -923.2768584031983892
    Two-Electron Energy =                 362.7902309066080875
    Total Energy =                       -321.3697621285580794
  Basis Set: (AUG-CC-PVTZ AUX)
    Blend: AUG-CC-PVTZ-RI
    Molecular point group: c1

    Geometry (in Angstrom), charge = -1, multiplicity = 1:

       Center              X                  Y                   Z               Mass
    ------------   -----------------  -----------------  -----------------  -----------------
         O           -1.361029959160    -1.195487841466     0.085031351408    15.994914619570
         O           -1.372009959160     1.060672158534    -0.182825648592    15.994914619570
         N            1.339213040840     1.285501158534     0.098580351408    14.003074004430
         C            0.749736240840    -0.027675041466     0.179217051408    12.000000000000
         C            1.482473040840    -1.143464841466    -0.196982648592    12.000000000000
         C           -0.812218959160    -0.053572841466     0.056711351408    12.000000000000
         H            0.734187040840    -0.109212841466     1.517393351408     1.007825032230
         H            2.530056040840    -1.111172841466     0.117878351408     1.007825032230
         H            1.045620040840    -2.100420841466     0.086286351408     1.007825032230
         H            1.452047040840    -1.071221841466    -1.290915648592     1.007825032230
         H            0.588917040840     1.972600158534     0.199180351408     1.007825032230
         H            1.509423040840     1.280292158534    -0.911186648592     1.007825032230

  Basis Set: AUG-CC-PVTZ
    Blend: AUG-CC-PVTZ
  Basis Set: (AUG-CC-PVTZ AUX)
    Blend: AUG-CC-PVTZ-JKFIT
	 Reference Energy          =    -321.3697621285580794 [Eh]
	 Singles Energy            =      -0.0000000000000000 [Eh]
	 Same-Spin Energy          =      -0.3282471303921464 [Eh]
	 Opposite-Spin Energy      =      -1.0108123401971660 [Eh]
	 Correlation Energy        =      -1.3390594705893124 [Eh]
	 Total Energy              =    -322.7088215991473703 [Eh]

	 ================> DF-SCS-MP2 Energies <==================
	-----------------------------------------------------------
	 SCS Same-Spin Scale       =       0.3333333333333333 [-]
	 SCS Opposite-Spin Scale   =       1.2000000000000000 [-]
	 SCS Same-Spin Energy      =      -0.1094157101307155 [Eh]
	 SCS Opposite-Spin Energy  =      -1.2129748082365992 [Eh]
	 SCS Correlation Energy    =      -1.3223905183673146 [Eh]
	 SCS Total Energy          =    -322.6921526469254218 [Eh]
	-----------------------------------------------------------

  Dipole Moment: [D]
     X:     4.6282      Y:    -0.0726      Z:    -0.7879     Total:     4.6954

*** Psi4 exiting successfully. Buy a developer a beer!
