                               Psi4 1.3.2 release

  ==> Input File <==

--------------------------------------------------------------------------
#psi4
#
memory 32 gb

molecule  {
0 1
  C        0.0090502    -0.4009941     0.3080617
  C        1.2544970    -0.8517210    -0.4669820
  C        0.0000460     1.0638580     0.6808560
  C       -1.2544680    -0.8517020    -0.4669850
  C        2.5736910    -0.5549740     0.2429080
  C       -0.0001100     2.0271580    -0.5052670
  C       -2.5736650    -0.5550660     0.2429470
  H        0.0000220    -0.9878970     1.2560840
  H        1.1855160    -1.9310980    -0.6540960
  H        1.2530210    -0.3759140    -1.4557310
  H        0.8718230     1.2713760     1.3117180
  H       -0.8715850     1.2713570     1.3119230
  H       -1.2530320    -0.3758260    -1.4557010
  H       -1.1854530    -1.9310640    -0.6541770
  H        2.7601620     0.5190550     0.3238500
  H        3.4151550    -0.9947620    -0.3010430
  H        2.5741680    -0.9734350     1.2548350
  H        0.8834690     1.8928260    -1.1356920
  H       -0.0001040     3.0640380    -0.1556120
  H       -0.8838160     1.8927720    -1.1355030
  H       -3.4151150    -0.9948620    -0.3010190
  H       -2.7601920     0.5189470     0.3239600
  H       -2.5741050    -0.9735930     1.2548470
units angstrom
no_reorient  #important for SAPT in psi4, default
symmetry c1  #important for SAPT in psi4, default
}

set PROPERTIES_ORIGIN ["COM"]
properties('MP2/aug-cc-pvtz', properties = ['dipole'])
--------------------------------------------------------------------------

    Molecular point group: c1
  Charge       = 0
  Multiplicity = 1
  Basis Set: AUG-CC-PVTZ
    Blend: AUG-CC-PVTZ
  Basis Set: (AUG-CC-PVTZ AUX)
    Blend: AUG-CC-PVTZ-JKFIT

    Orbital Energies [Eh]
    ---------------------

    Doubly Occupied:

       1A    -11.217885     2A    -11.213018     3A    -11.212740
       4A    -11.211403     5A    -11.208900     6A    -11.208708
       7A    -11.208685     8A     -1.102672     9A     -1.012495
      10A     -1.004984    11A     -0.918324    12A     -0.852179
      13A     -0.815799    14A     -0.732970    15A     -0.647911
      16A     -0.634841    17A     -0.593620    18A     -0.562864
      19A     -0.557896    20A     -0.556191    21A     -0.545511
      22A     -0.517250    23A     -0.500346    24A     -0.496159
      25A     -0.483658    26A     -0.470494    27A     -0.443873
      28A     -0.435325    29A     -0.429812

  @DF-RHF Final Energy:  -274.49086536360232

   => Energetics <=

    Nuclear Repulsion Energy =            333.7924848935178943
    One-Electron Energy =               -1030.9736744818833358
    Two-Electron Energy =                 422.6903242247631169
    Total Energy =                       -274.4908653636023246
  Basis Set: (AUG-CC-PVTZ AUX)
    Blend: AUG-CC-PVTZ-RI
    Molecular point group: c1

    Geometry (in Angstrom), charge = 0, multiplicity = 1:

       Center              X                  Y                   Z               Mass
    ------------   -----------------  -----------------  -----------------  -----------------
         C            0.007967276990    -0.395177443511     0.305929833861    12.000000000000
         C            1.253414076990    -0.845904343511    -0.469113866139    12.000000000000
         C           -0.001036923010     1.069674656489     0.678724133861    12.000000000000
         C           -1.255550923010    -0.845885343511    -0.469116866139    12.000000000000
         C            2.572608076990    -0.549157343511     0.240776133861    12.000000000000
         C           -0.001192923010     2.032974656489    -0.507398866139    12.000000000000
         C           -2.574747923010    -0.549249343511     0.240815133861    12.000000000000
         H           -0.001060923010    -0.982080343511     1.253952133861     1.007825032230
         H            1.184433076990    -1.925281343511    -0.656227866139     1.007825032230
         H            1.251938076990    -0.370097343511    -1.457862866139     1.007825032230
         H            0.870740076990     1.277192656489     1.309586133861     1.007825032230
         H           -0.872667923010     1.277173656489     1.309791133861     1.007825032230
         H           -1.254114923010    -0.370009343511    -1.457832866139     1.007825032230
         H           -1.186535923010    -1.925247343511    -0.656308866139     1.007825032230
         H            2.759079076990     0.524871656489     0.321718133861     1.007825032230
         H            3.414072076990    -0.988945343511    -0.303174866139     1.007825032230
         H            2.573085076990    -0.967618343511     1.252703133861     1.007825032230
         H            0.882386076990     1.898642656489    -1.137823866139     1.007825032230
         H           -0.001186923010     3.069854656489    -0.157743866139     1.007825032230
         H           -0.884898923010     1.898588656489    -1.137634866139     1.007825032230
         H           -3.416197923010    -0.989045343511    -0.303150866139     1.007825032230
         H           -2.761274923010     0.524763656489     0.321828133861     1.007825032230
         H           -2.575187923010    -0.967776343511     1.252715133861     1.007825032230

  Basis Set: AUG-CC-PVTZ
    Blend: AUG-CC-PVTZ
  Basis Set: (AUG-CC-PVTZ AUX)
    Blend: AUG-CC-PVTZ-JKFIT
	 Reference Energy          =    -274.4908653636023246 [Eh]
	 Singles Energy            =      -0.0000000000000000 [Eh]
	 Same-Spin Energy          =      -0.2969528172547802 [Eh]
	 Opposite-Spin Energy      =      -1.1074071144641886 [Eh]
	 Correlation Energy        =      -1.4043599317189688 [Eh]
	 Total Energy              =    -275.8952252953212678 [Eh]

	 ================> DF-SCS-MP2 Energies <==================
	-----------------------------------------------------------
	 SCS Same-Spin Scale       =       0.3333333333333333 [-]
	 SCS Opposite-Spin Scale   =       1.2000000000000000 [-]
	 SCS Same-Spin Energy      =      -0.0989842724182601 [Eh]
	 SCS Opposite-Spin Energy  =      -1.3288885373570263 [Eh]
	 SCS Correlation Energy    =      -1.4278728097752864 [Eh]
	 SCS Total Energy          =    -275.9187381733776192 [Eh]
	-----------------------------------------------------------

  Dipole Moment: [D]
     X:     0.0036      Y:    -0.0521      Z:     0.0222     Total:     0.0567

*** Psi4 exiting successfully. Buy a developer a beer!
