                               Psi4 1.3.2 release

  ==> Input File <==

--------------------------------------------------------------------------
#psi4
#
memory 32 gb

molecule  {
0 1
  C        0.0000190    -0.4262070     0.3077490
  C        1.3103881    -0.9046620    -0.5407116
  C        0.0000460     1.0638580     0.6808560
  C       -1.2544680    -0.8517020    -0.4669850
  C        2.5736910    -0.5549740     0.2429080
  C       -0.0001100     2.0271580    -0.5052670
  C       -2.5736650    -0.5550660     0.2429470
  H        0.0000220    -0.9878970     1.2560840
  H        1.1855160    -1.9310980    -0.6540960
  H        1.2530210    -0.3759140    -1.4557310
  H        0.8718230     1.2713760     1.3117180
  H       -0.8715850     1.2713570     1.3119230
  H       -1.2530320    -0.3758260    -1.4557010
  H       -1.1854530    -1.9310640    -0.6541770
  H        2.7601620     0.5190550     0.3238500
  H        3.4151550    -0.9947620    -0.3010430
  H        2.5741680    -0.9734350     1.2548350
  H        0.8834690     1.8928260    -1.1356920
  H       -0.0001040     3.0640380    -0.1556120
  H       -0.8838160     1.8927720    -1.1355030
  H       -3.4151150    -0.9948620    -0.3010190
  H       -2.7601920     0.5189470     0.3239600
  H       -2.5741050    -0.9735930     1.2548470
units angstrom
no_reorient  #important for SAPT in psi4, default
symmetry c1  #important for SAPT in psi4, default
}

set PROPERTIES_ORIGIN ["COM"]
properties('MP2/aug-cc-pvtz', properties = ['dipole'])
--------------------------------------------------------------------------

    Molecular point group: c1
  Charge       = 0
  Multiplicity = 1
  Basis Set: AUG-CC-PVTZ
    Blend: AUG-CC-PVTZ
  Basis Set: (AUG-CC-PVTZ AUX)
    Blend: AUG-CC-PVTZ-JKFIT

    Orbital Energies [Eh]
    ---------------------

    Doubly Occupied:

       1A    -11.219853     2A    -11.211845     3A    -11.211424
       4A    -11.209350     5A    -11.208756     6A    -11.208586
       7A    -11.208077     8A     -1.093379     9A     -1.012561
      10A     -1.004013    11A     -0.913756    12A     -0.851291
      13A     -0.818956    14A     -0.734575    15A     -0.648672
      16A     -0.631413    17A     -0.595779    18A     -0.562823
      19A     -0.557858    20A     -0.554218    21A     -0.540637
      22A     -0.518871    23A     -0.504175    24A     -0.498506
      25A     -0.489467    26A     -0.475435    27A     -0.444853
      28A     -0.436961    29A     -0.409123

  @DF-RHF Final Energy:  -274.48265338762189

   => Energetics <=

    Nuclear Repulsion Energy =            332.2746037382453324
    One-Electron Energy =               -1027.9640884049008491
    Two-Electron Energy =                 421.2068312790336222
    Total Energy =                       -274.4826533876218946
  Basis Set: (AUG-CC-PVTZ AUX)
    Blend: AUG-CC-PVTZ-RI
    Molecular point group: c1

    Geometry (in Angstrom), charge = 0, multiplicity = 1:

       Center              X                  Y                   Z               Mass
    ------------   -----------------  -----------------  -----------------  -----------------
         C           -0.006680079553    -0.411023602719     0.314491099610    12.000000000000
         C            1.303689020447    -0.889478602719    -0.533969500390    12.000000000000
         C           -0.006653079553     1.079041397281     0.687598099610    12.000000000000
         C           -1.261167079553    -0.836518602719    -0.460242900390    12.000000000000
         C            2.566991920447    -0.539790602719     0.249650099610    12.000000000000
         C           -0.006809079553     2.042341397281    -0.498524900390    12.000000000000
         C           -2.580364079553    -0.539882602719     0.249689099610    12.000000000000
         H           -0.006677079553    -0.972713602719     1.262826099610     1.007825032230
         H            1.178816920447    -1.915914602719    -0.647353900390     1.007825032230
         H            1.246321920447    -0.360730602719    -1.448988900390     1.007825032230
         H            0.865123920447     1.286559397281     1.318460099610     1.007825032230
         H           -0.878284079553     1.286540397281     1.318665099610     1.007825032230
         H           -1.259731079553    -0.360642602719    -1.448958900390     1.007825032230
         H           -1.192152079553    -1.915880602719    -0.647434900390     1.007825032230
         H            2.753462920447     0.534238397281     0.330592099610     1.007825032230
         H            3.408455920447    -0.979578602719    -0.294300900390     1.007825032230
         H            2.567468920447    -0.958251602719     1.261577099610     1.007825032230
         H            0.876769920447     1.908009397281    -1.128949900390     1.007825032230
         H           -0.006803079553     3.079221397281    -0.148869900390     1.007825032230
         H           -0.890515079553     1.907955397281    -1.128760900390     1.007825032230
         H           -3.421814079553    -0.979678602719    -0.294276900390     1.007825032230
         H           -2.766891079553     0.534130397281     0.330702099610     1.007825032230
         H           -2.580804079553    -0.958409602719     1.261589099610     1.007825032230

  Basis Set: AUG-CC-PVTZ
    Blend: AUG-CC-PVTZ
  Basis Set: (AUG-CC-PVTZ AUX)
    Blend: AUG-CC-PVTZ-JKFIT
	 Reference Energy          =    -274.4826533876218946 [Eh]
	 Singles Energy            =      -0.0000000000000000 [Eh]
	 Same-Spin Energy          =      -0.2965492009582475 [Eh]
	 Opposite-Spin Energy      =      -1.1073154301423140 [Eh]
	 Correlation Energy        =      -1.4038646311005616 [Eh]
	 Total Energy              =    -275.8865180187224837 [Eh]

	 ================> DF-SCS-MP2 Energies <==================
	-----------------------------------------------------------
	 SCS Same-Spin Scale       =       0.3333333333333333 [-]
	 SCS Opposite-Spin Scale   =       1.2000000000000000 [-]
	 SCS Same-Spin Energy      =      -0.0988497336527492 [Eh]
	 SCS Opposite-Spin Energy  =      -1.3287785161707768 [Eh]
	 SCS Correlation Energy    =      -1.4276282498235260 [Eh]
	 SCS Total Energy          =    -275.9102816374453937 [Eh]
	-----------------------------------------------------------

  Dipole Moment: [D]
     X:     0.0129      Y:    -0.0699      Z:     0.0198     Total:     0.0738

*** Psi4 exiting successfully. Buy a developer a beer!
