                               Psi4 1.3.2 release

  ==> Input File <==

--------------------------------------------------------------------------
#psi4
#
memory 32 gb

molecule  {
0 1
  C        0.0000190    -0.4262070     0.3077490
  C        1.2141980    -0.9509071    -0.4703541
  C        0.0000460     1.0638580     0.6808560
  C       -1.2544680    -0.8517020    -0.4669850
  C        2.5736910    -0.5549740     0.2429080
  C       -0.0001100     2.0271580    -0.5052670
  C       -2.5736650    -0.5550660     0.2429470
  H        0.0000220    -0.9878970     1.2560840
  H        1.1855160    -1.9310980    -0.6540960
  H        1.2530210    -0.3759140    -1.4557310
  H        0.8718230     1.2713760     1.3117180
  H       -0.8715850     1.2713570     1.3119230
  H       -1.2530320    -0.3758260    -1.4557010
  H       -1.1854530    -1.9310640    -0.6541770
  H        2.7601620     0.5190550     0.3238500
  H        3.4151550    -0.9947620    -0.3010430
  H        2.5741680    -0.9734350     1.2548350
  H        0.8834690     1.8928260    -1.1356920
  H       -0.0001040     3.0640380    -0.1556120
  H       -0.8838160     1.8927720    -1.1355030
  H       -3.4151150    -0.9948620    -0.3010190
  H       -2.7601920     0.5189470     0.3239600
  H       -2.5741050    -0.9735930     1.2548470
units angstrom
no_reorient  #important for SAPT in psi4, default
symmetry c1  #important for SAPT in psi4, default
}

set PROPERTIES_ORIGIN ["COM"]
properties('MP2/aug-cc-pvtz', properties = ['dipole'])
--------------------------------------------------------------------------

    Molecular point group: c1
  Charge       = 0
  Multiplicity = 1
  Basis Set: AUG-CC-PVTZ
    Blend: AUG-CC-PVTZ
  Basis Set: (AUG-CC-PVTZ AUX)
    Blend: AUG-CC-PVTZ-JKFIT

    Orbital Energies [Eh]
    ---------------------

    Doubly Occupied:

       1A    -11.217521     2A    -11.213980     3A    -11.211696
       4A    -11.211633     5A    -11.210443     6A    -11.209030
       7A    -11.207974     8A     -1.100570     9A     -1.007872
      10A     -1.003799    11A     -0.916473    12A     -0.853731
      13A     -0.819603    14A     -0.737072    15A     -0.651508
      16A     -0.634612    17A     -0.589213    18A     -0.563377
      19A     -0.559258    20A     -0.553711    21A     -0.541453
      22A     -0.521751    23A     -0.503339    24A     -0.492677
      25A     -0.489888    26A     -0.464830    27A     -0.445453
      28A     -0.433955    29A     -0.425485

  @DF-RHF Final Energy:  -274.47880425765175

   => Energetics <=

    Nuclear Repulsion Energy =            333.0984461520200739
    One-Electron Energy =               -1029.5706851087659288
    Two-Electron Energy =                 421.9934346990941094
    Total Energy =                       -274.4788042576517455
  Basis Set: (AUG-CC-PVTZ AUX)
    Blend: AUG-CC-PVTZ-RI
    Molecular point group: c1

    Geometry (in Angstrom), charge = 0, multiplicity = 1:

       Center              X                  Y                   Z               Mass
    ------------   -----------------  -----------------  -----------------  -----------------
         C            0.004848298857    -0.405481129924     0.306058756946    12.000000000000
         C            1.219027298857    -0.930181229924    -0.472044343054    12.000000000000
         C            0.004875298857     1.084583870076     0.679165756946    12.000000000000
         C           -1.249638701143    -0.830976129924    -0.468675243054    12.000000000000
         C            2.578520298857    -0.534248129924     0.241217756946    12.000000000000
         C            0.004719298857     2.047883870076    -0.506957243054    12.000000000000
         C           -2.568835701143    -0.534340129924     0.241256756946    12.000000000000
         H            0.004851298857    -0.967171129924     1.254393756946     1.007825032230
         H            1.190345298857    -1.910372129924    -0.655786243054     1.007825032230
         H            1.257850298857    -0.355188129924    -1.457421243054     1.007825032230
         H            0.876652298857     1.292101870076     1.310027756946     1.007825032230
         H           -0.866755701143     1.292082870076     1.310232756946     1.007825032230
         H           -1.248202701143    -0.355100129924    -1.457391243054     1.007825032230
         H           -1.180623701143    -1.910338129924    -0.655867243054     1.007825032230
         H            2.764991298857     0.539780870076     0.322159756946     1.007825032230
         H            3.419984298857    -0.974036129924    -0.302733243054     1.007825032230
         H            2.578997298857    -0.952709129924     1.253144756946     1.007825032230
         H            0.888298298857     1.913551870076    -1.137382243054     1.007825032230
         H            0.004725298857     3.084763870076    -0.157302243054     1.007825032230
         H           -0.878986701143     1.913497870076    -1.137193243054     1.007825032230
         H           -3.410285701143    -0.974136129924    -0.302709243054     1.007825032230
         H           -2.755362701143     0.539672870076     0.322269756946     1.007825032230
         H           -2.569275701143    -0.952867129924     1.253156756946     1.007825032230

  Basis Set: AUG-CC-PVTZ
    Blend: AUG-CC-PVTZ
  Basis Set: (AUG-CC-PVTZ AUX)
    Blend: AUG-CC-PVTZ-JKFIT
	 Reference Energy          =    -274.4788042576517455 [Eh]
	 Singles Energy            =      -0.0000000000000000 [Eh]
	 Same-Spin Energy          =      -0.2967000085793322 [Eh]
	 Opposite-Spin Energy      =      -1.1075227977713720 [Eh]
	 Correlation Energy        =      -1.4042228063507043 [Eh]
	 Total Energy              =    -275.8830270640024764 [Eh]

	 ================> DF-SCS-MP2 Energies <==================
	-----------------------------------------------------------
	 SCS Same-Spin Scale       =       0.3333333333333333 [-]
	 SCS Opposite-Spin Scale   =       1.2000000000000000 [-]
	 SCS Same-Spin Energy      =      -0.0989000028597774 [Eh]
	 SCS Opposite-Spin Energy  =      -1.3290273573256464 [Eh]
	 SCS Correlation Energy    =      -1.4279273601854237 [Eh]
	 SCS Total Energy          =    -275.9067316178371811 [Eh]
	-----------------------------------------------------------

  Dipole Moment: [D]
     X:    -0.0151      Y:    -0.0819      Z:     0.0435     Total:     0.0940

*** Psi4 exiting successfully. Buy a developer a beer!
