                               Psi4 1.3.2 release

  ==> Input File <==

--------------------------------------------------------------------------
#psi4
#
memory 32 gb

molecule  {
0 1
  C        0.0000190    -0.4262070     0.3077490
  C        1.2415185    -0.8382496    -0.4479948
  C        0.0000460     1.0638580     0.6808560
  C       -1.2544680    -0.8517020    -0.4669850
  C        2.5736910    -0.5549740     0.2429080
  C       -0.0001100     2.0271580    -0.5052670
  C       -2.5736650    -0.5550660     0.2429470
  H        0.0000220    -0.9878970     1.2560840
  H        1.1855160    -1.9310980    -0.6540960
  H        1.2530210    -0.3759140    -1.4557310
  H        0.8718230     1.2713760     1.3117180
  H       -0.8715850     1.2713570     1.3119230
  H       -1.2530320    -0.3758260    -1.4557010
  H       -1.1854530    -1.9310640    -0.6541770
  H        2.7601620     0.5190550     0.3238500
  H        3.4151550    -0.9947620    -0.3010430
  H        2.5741680    -0.9734350     1.2548350
  H        0.8834690     1.8928260    -1.1356920
  H       -0.0001040     3.0640380    -0.1556120
  H       -0.8838160     1.8927720    -1.1355030
  H       -3.4151150    -0.9948620    -0.3010190
  H       -2.7601920     0.5189470     0.3239600
  H       -2.5741050    -0.9735930     1.2548470
units angstrom
no_reorient  #important for SAPT in psi4, default
symmetry c1  #important for SAPT in psi4, default
}

set PROPERTIES_ORIGIN ["COM"]
properties('MP2/aug-cc-pvtz', properties = ['dipole'])
--------------------------------------------------------------------------

    Molecular point group: c1
  Charge       = 0
  Multiplicity = 1
  Basis Set: AUG-CC-PVTZ
    Blend: AUG-CC-PVTZ
  Basis Set: (AUG-CC-PVTZ AUX)
    Blend: AUG-CC-PVTZ-JKFIT

    Orbital Energies [Eh]
    ---------------------

    Doubly Occupied:

       1A    -11.216513     2A    -11.213887     3A    -11.212923
       4A    -11.211873     5A    -11.209229     6A    -11.209168
       7A    -11.208694     8A     -1.104178     9A     -1.013202
      10A     -1.004023    11A     -0.920245    12A     -0.850177
      13A     -0.816360    14A     -0.734591    15A     -0.647016
      16A     -0.634134    17A     -0.594778    18A     -0.561157
      19A     -0.558755    20A     -0.557635    21A     -0.547013
      22A     -0.516328    23A     -0.500087    24A     -0.495360
      25A     -0.482066    26A     -0.468491    27A     -0.441327
      28A     -0.438779    29A     -0.432515

  @DF-RHF Final Energy:  -274.49073488999011

   => Energetics <=

    Nuclear Repulsion Energy =            334.0059725862215601
    One-Electron Energy =               -1031.3924040230238006
    Two-Electron Energy =                 422.8956965468121325
    Total Energy =                       -274.4907348899901081
  Basis Set: (AUG-CC-PVTZ AUX)
    Blend: AUG-CC-PVTZ-RI
    Molecular point group: c1

    Geometry (in Angstrom), charge = 0, multiplicity = 1:

       Center              X                  Y                   Z               Mass
    ------------   -----------------  -----------------  -----------------  -----------------
         C            0.001573938374    -0.418983125356     0.303378996021    12.000000000000
         C            1.243073438374    -0.831025725356    -0.452364803979    12.000000000000
         C            0.001600938374     1.071081874644     0.676485996021    12.000000000000
         C           -1.252913061626    -0.844478125356    -0.471355003979    12.000000000000
         C            2.575245938374    -0.547750125356     0.238537996021    12.000000000000
         C            0.001444938374     2.034381874644    -0.509637003979    12.000000000000
         C           -2.572110061626    -0.547842125356     0.238576996021    12.000000000000
         H            0.001576938374    -0.980673125356     1.251713996021     1.007825032230
         H            1.187070938374    -1.923874125356    -0.658466003979     1.007825032230
         H            1.254575938374    -0.368690125356    -1.460101003979     1.007825032230
         H            0.873377938374     1.278599874644     1.307347996021     1.007825032230
         H           -0.870030061626     1.278580874644     1.307552996021     1.007825032230
         H           -1.251477061626    -0.368602125356    -1.460071003979     1.007825032230
         H           -1.183898061626    -1.923840125356    -0.658547003979     1.007825032230
         H            2.761716938374     0.526278874644     0.319479996021     1.007825032230
         H            3.416709938374    -0.987538125356    -0.305413003979     1.007825032230
         H            2.575722938374    -0.966211125356     1.250464996021     1.007825032230
         H            0.885023938374     1.900049874644    -1.140062003979     1.007825032230
         H            0.001450938374     3.071261874644    -0.159982003979     1.007825032230
         H           -0.882261061626     1.899995874644    -1.139873003979     1.007825032230
         H           -3.413560061626    -0.987638125356    -0.305389003979     1.007825032230
         H           -2.758637061626     0.526170874644     0.319589996021     1.007825032230
         H           -2.572550061626    -0.966369125356     1.250476996021     1.007825032230

  Basis Set: AUG-CC-PVTZ
    Blend: AUG-CC-PVTZ
  Basis Set: (AUG-CC-PVTZ AUX)
    Blend: AUG-CC-PVTZ-JKFIT
	 Reference Energy          =    -274.4907348899901081 [Eh]
	 Singles Energy            =      -0.0000000000000000 [Eh]
	 Same-Spin Energy          =      -0.2970495802580144 [Eh]
	 Opposite-Spin Energy      =      -1.1074775096301768 [Eh]
	 Correlation Energy        =      -1.4045270898881912 [Eh]
	 Total Energy              =    -275.8952619798782848 [Eh]

	 ================> DF-SCS-MP2 Energies <==================
	-----------------------------------------------------------
	 SCS Same-Spin Scale       =       0.3333333333333333 [-]
	 SCS Opposite-Spin Scale   =       1.2000000000000000 [-]
	 SCS Same-Spin Energy      =      -0.0990165267526715 [Eh]
	 SCS Opposite-Spin Energy  =      -1.3289730115562122 [Eh]
	 SCS Correlation Energy    =      -1.4279895383088836 [Eh]
	 SCS Total Energy          =    -275.9187244282990150 [Eh]
	-----------------------------------------------------------

  Dipole Moment: [D]
     X:    -0.0051      Y:    -0.0619      Z:     0.0335     Total:     0.0705

*** Psi4 exiting successfully. Buy a developer a beer!
