                               Psi4 1.3.2 release

  ==> Input File <==

--------------------------------------------------------------------------
#psi4
#
memory 32 gb

molecule  {
0 1
  C       -0.0853409    -0.4832823     0.1842265
  C        1.2544970    -0.8517210    -0.4669820
  C        0.0000460     1.0638580     0.6808560
  C       -1.2544680    -0.8517020    -0.4669850
  C        2.5736910    -0.5549740     0.2429080
  C       -0.0001100     2.0271580    -0.5052670
  C       -2.5736650    -0.5550660     0.2429470
  H        0.0000220    -0.9878970     1.2560840
  H        1.1855160    -1.9310980    -0.6540960
  H        1.2530210    -0.3759140    -1.4557310
  H        0.8718230     1.2713760     1.3117180
  H       -0.8715850     1.2713570     1.3119230
  H       -1.2530320    -0.3758260    -1.4557010
  H       -1.1854530    -1.9310640    -0.6541770
  H        2.7601620     0.5190550     0.3238500
  H        3.4151550    -0.9947620    -0.3010430
  H        2.5741680    -0.9734350     1.2548350
  H        0.8834690     1.8928260    -1.1356920
  H       -0.0001040     3.0640380    -0.1556120
  H       -0.8838160     1.8927720    -1.1355030
  H       -3.4151150    -0.9948620    -0.3010190
  H       -2.7601920     0.5189470     0.3239600
  H       -2.5741050    -0.9735930     1.2548470
units angstrom
no_reorient  #important for SAPT in psi4, default
symmetry c1  #important for SAPT in psi4, default
}

set PROPERTIES_ORIGIN ["COM"]
properties('MP2/aug-cc-pvtz', properties = ['dipole'])
--------------------------------------------------------------------------

    Molecular point group: c1
  Charge       = 0
  Multiplicity = 1
  Basis Set: AUG-CC-PVTZ
    Blend: AUG-CC-PVTZ
  Basis Set: (AUG-CC-PVTZ AUX)
    Blend: AUG-CC-PVTZ-JKFIT

    Orbital Energies [Eh]
    ---------------------

    Doubly Occupied:

       1A    -11.223381     2A    -11.214696     3A    -11.214672
       4A    -11.212713     5A    -11.212451     6A    -11.208662
       7A    -11.206467     8A     -1.112714     9A     -1.019916
      10A     -1.002383    11A     -0.924600    12A     -0.843796
      13A     -0.828498    14A     -0.726449    15A     -0.650709
      16A     -0.632889    17A     -0.599814    18A     -0.568717
      19A     -0.561259    20A     -0.557835    21A     -0.543443
      22A     -0.516689    23A     -0.501066    24A     -0.495960
      25A     -0.485563    26A     -0.478287    27A     -0.466210
      28A     -0.419791    29A     -0.401186

  @DF-RHF Final Energy:  -274.46230403201622

   => Energetics <=

    Nuclear Repulsion Energy =            334.1473990556319791
    One-Electron Energy =               -1031.5577735640001720
    Two-Electron Energy =                 422.9480704763520293
    Total Energy =                       -274.4623040320162204
  Basis Set: (AUG-CC-PVTZ AUX)
    Blend: AUG-CC-PVTZ-RI
    Molecular point group: c1

    Geometry (in Angstrom), charge = 0, multiplicity = 1:

       Center              X                  Y                   Z               Mass
    ------------   -----------------  -----------------  -----------------  -----------------
         C           -0.075111054655    -0.467603407082     0.196936276048    12.000000000000
         C            1.264726845345    -0.836042107082    -0.454272223952    12.000000000000
         C            0.010275845345     1.079536892918     0.693565776048    12.000000000000
         C           -1.244238154655    -0.836023107082    -0.454275223952    12.000000000000
         C            2.583920845345    -0.539295107082     0.255617776048    12.000000000000
         C            0.010119845345     2.042836892918    -0.492557223952    12.000000000000
         C           -2.563435154655    -0.539387107082     0.255656776048    12.000000000000
         H            0.010251845345    -0.972218107082     1.268793776048     1.007825032230
         H            1.195745845345    -1.915419107082    -0.641386223952     1.007825032230
         H            1.263250845345    -0.360235107082    -1.443021223952     1.007825032230
         H            0.882052845345     1.287054892918     1.324427776048     1.007825032230
         H           -0.861355154655     1.287035892918     1.324632776048     1.007825032230
         H           -1.242802154655    -0.360147107082    -1.442991223952     1.007825032230
         H           -1.175223154655    -1.915385107082    -0.641467223952     1.007825032230
         H            2.770391845345     0.534733892918     0.336559776048     1.007825032230
         H            3.425384845345    -0.979083107082    -0.288333223952     1.007825032230
         H            2.584397845345    -0.957756107082     1.267544776048     1.007825032230
         H            0.893698845345     1.908504892918    -1.122982223952     1.007825032230
         H            0.010125845345     3.079716892918    -0.142902223952     1.007825032230
         H           -0.873586154655     1.908450892918    -1.122793223952     1.007825032230
         H           -3.404885154655    -0.979183107082    -0.288309223952     1.007825032230
         H           -2.749962154655     0.534625892918     0.336669776048     1.007825032230
         H           -2.563875154655    -0.957914107082     1.267556776048     1.007825032230

  Basis Set: AUG-CC-PVTZ
    Blend: AUG-CC-PVTZ
  Basis Set: (AUG-CC-PVTZ AUX)
    Blend: AUG-CC-PVTZ-JKFIT
	 Reference Energy          =    -274.4623040320162204 [Eh]
	 Singles Energy            =      -0.0000000000000000 [Eh]
	 Same-Spin Energy          =      -0.2984370349709599 [Eh]
	 Opposite-Spin Energy      =      -1.1098354508246571 [Eh]
	 Correlation Energy        =      -1.4082724857956170 [Eh]
	 Total Energy              =    -275.8705765178118554 [Eh]

	 ================> DF-SCS-MP2 Energies <==================
	-----------------------------------------------------------
	 SCS Same-Spin Scale       =       0.3333333333333333 [-]
	 SCS Opposite-Spin Scale   =       1.2000000000000000 [-]
	 SCS Same-Spin Energy      =      -0.0994790116569866 [Eh]
	 SCS Opposite-Spin Energy  =      -1.3318025409895884 [Eh]
	 SCS Correlation Energy    =      -1.4312815526465750 [Eh]
	 SCS Total Energy          =    -275.8935855846627874 [Eh]
	-----------------------------------------------------------

  Dipole Moment: [D]
     X:    -0.0349      Y:    -0.0821      Z:    -0.0104     Total:     0.0898

*** Psi4 exiting successfully. Buy a developer a beer!
