                               Psi4 1.4a3.dev225

  ==> Input File <==

--------------------------------------------------------------------------
#psi4
#
memory 32 gb

molecule  {
0 1
  C        0.0000000    -0.4260750     0.3076100
  C        1.2708215    -0.8569817    -0.4772565
  C        0.0000000     1.0639900     0.6808960
  C       -1.2544720    -0.8514380    -0.4671590
  C        2.5736720    -0.5554960     0.2430540
  C        0.0000000     2.0274100    -0.5051140
  C       -2.5736720    -0.5554960     0.2430540
  H        0.0000000    -0.9878700     1.2558670
  H        1.1852130    -1.9306880    -0.6549460
  H        1.2532300    -0.3750670    -1.4556400
  H        0.8717050     1.2713650     1.3118990
  H       -0.8717030     1.2713660     1.3119000
  H       -1.2532300    -0.3750660    -1.4556400
  H       -1.1852130    -1.9306880    -0.6549460
  H        2.7605980     0.5184190     0.3244420
  H        3.4150690    -0.9954020    -0.3009240
  H        2.5738760    -0.9743250     1.2548280
  H        0.8836400     1.8931300    -1.1354610
  H        0.0000000     3.0642610    -0.1553580
  H       -0.8836410     1.8931290    -1.1354600
  H       -3.4150690    -0.9954020    -0.3009240
  H       -2.7605980     0.5184190     0.3244430
  H       -2.5738760    -0.9743270     1.2548280
units angstrom
no_reorient  #important for SAPT in psi4, default
symmetry c1  #important for SAPT in psi4, default
}

set PROPERTIES_ORIGIN ["COM"]
properties('MP2/aug-cc-pvtz', properties = ['dipole'])
--------------------------------------------------------------------------

    Molecular point group: c1
  Charge       = 0
  Multiplicity = 1
  Basis Set: AUG-CC-PVTZ
    Blend: AUG-CC-PVTZ
  Basis Set: (AUG-CC-PVTZ AUX)
    Blend: AUG-CC-PVTZ-JKFIT

    Orbital Energies [Eh]
    ---------------------

    Doubly Occupied:

       1A    -11.217867     2A    -11.212461     3A    -11.211983
       4A    -11.211688     5A    -11.208879     6A    -11.208652
       7A    -11.208584     8A     -1.099910     9A     -1.013727
      10A     -1.004111    11A     -0.917921    12A     -0.850150
      13A     -0.816657    14A     -0.734657    15A     -0.646732
      16A     -0.632972    17A     -0.595030    18A     -0.561697
      19A     -0.557915    20A     -0.556688    21A     -0.545777
      22A     -0.516908    23A     -0.500655    24A     -0.496497
      25A     -0.484665    26A     -0.470959    27A     -0.442815
      28A     -0.434960    29A     -0.429536

  @DF-RHF Final Energy:  -274.49157153885409

   => Energetics <=

    Nuclear Repulsion Energy =            333.4169521315587872
    One-Electron Energy =               -1030.2349463116383959
    Two-Electron Energy =                 422.3264226412255198
    Total Energy =                       -274.4915715388540889
  Basis Set: (AUG-CC-PVTZ AUX)
    Blend: AUG-CC-PVTZ-RI
    Molecular point group: c1

    Geometry (in Angstrom), charge = 0, multiplicity = 1:

       Center              X                  Y                   Z               Mass
    ------------   -----------------  -----------------  -----------------  -----------------
         C           -0.001959496778    -0.416578766246     0.306728401783    12.000000000000
         C            1.268862003222    -0.847485466246    -0.478138098217    12.000000000000
         C           -0.001959496778     1.073486233754     0.680014401783    12.000000000000
         C           -1.256431496778    -0.841941766246    -0.468040598217    12.000000000000
         C            2.571712503222    -0.545999766246     0.242172401783    12.000000000000
         C           -0.001959496778     2.036906233754    -0.505995598217    12.000000000000
         C           -2.575631496778    -0.545999766246     0.242172401783    12.000000000000
         H           -0.001959496778    -0.978373766246     1.254985401783     1.007825032230
         H            1.183253503222    -1.921191766246    -0.655827598217     1.007825032230
         H            1.251270503222    -0.365570766246    -1.456521598217     1.007825032230
         H            0.869745503222     1.280861233754     1.311017401783     1.007825032230
         H           -0.873662496778     1.280862233754     1.311018401783     1.007825032230
         H           -1.255189496778    -0.365569766246    -1.456521598217     1.007825032230
         H           -1.187172496778    -1.921191766246    -0.655827598217     1.007825032230
         H            2.758638503222     0.527915233754     0.323560401783     1.007825032230
         H            3.413109503222    -0.985905766246    -0.301805598217     1.007825032230
         H            2.571916503222    -0.964828766246     1.253946401783     1.007825032230
         H            0.881680503222     1.902626233754    -1.136342598217     1.007825032230
         H           -0.001959496778     3.073757233754    -0.156239598217     1.007825032230
         H           -0.885600496778     1.902625233754    -1.136341598217     1.007825032230
         H           -3.417028496778    -0.985905766246    -0.301805598217     1.007825032230
         H           -2.762557496778     0.527915233754     0.323561401783     1.007825032230
         H           -2.575835496778    -0.964830766246     1.253946401783     1.007825032230

  Basis Set: AUG-CC-PVTZ
    Blend: AUG-CC-PVTZ
  Basis Set: (AUG-CC-PVTZ AUX)
    Blend: AUG-CC-PVTZ-JKFIT
	 Reference Energy          =    -274.4915715388540889 [Eh]
	 Singles Energy            =      -0.0000000000000000 [Eh]
	 Same-Spin Energy          =      -0.2967688881024593 [Eh]
	 Opposite-Spin Energy      =      -1.1071750855992302 [Eh]
	 Correlation Energy        =      -1.4039439737016894 [Eh]
	 Total Energy              =    -275.8955155125557894 [Eh]

	 ================> DF-SCS-MP2 Energies <==================
	-----------------------------------------------------------
	 SCS Same-Spin Scale       =       0.3333333333333333 [-]
	 SCS Opposite-Spin Scale   =       1.2000000000000000 [-]
	 SCS Same-Spin Energy      =      -0.0989229627008198 [Eh]
	 SCS Opposite-Spin Energy  =      -1.3286101027190762 [Eh]
	 SCS Correlation Energy    =      -1.4275330654198959 [Eh]
	 SCS Total Energy          =    -275.9191046042739686 [Eh]
	-----------------------------------------------------------

  Dipole Moment: [D]
     X:     0.0054      Y:    -0.0675      Z:     0.0263     Total:     0.0727

*** Psi4 exiting successfully. Buy a developer a beer!
