                               Psi4 1.3.2 release

  ==> Input File <==

--------------------------------------------------------------------------
#psi4
#
memory 32 gb

molecule  {
0 1
  C        0.0000190    -0.4262070     0.3077490
  C        1.2544970    -0.8517210    -0.4669820
  C        0.0000460     1.0638580     0.6808560
  C       -1.2544680    -0.8517020    -0.4669850
  C        2.5736910    -0.5549740     0.2429080
  C       -0.0001100     2.0271580    -0.5052670
  C       -2.5736650    -0.5550660     0.2429470
  H        0.0000220    -0.9878970     1.2560840
  H        1.1836896    -1.9054545    -0.7660754
  H        1.2530210    -0.3759140    -1.4557310
  H        0.8718230     1.2713760     1.3117180
  H       -0.8715850     1.2713570     1.3119230
  H       -1.2530320    -0.3758260    -1.4557010
  H       -1.1854530    -1.9310640    -0.6541770
  H        2.7601620     0.5190550     0.3238500
  H        3.4151550    -0.9947620    -0.3010430
  H        2.5741680    -0.9734350     1.2548350
  H        0.8834690     1.8928260    -1.1356920
  H       -0.0001040     3.0640380    -0.1556120
  H       -0.8838160     1.8927720    -1.1355030
  H       -3.4151150    -0.9948620    -0.3010190
  H       -2.7601920     0.5189470     0.3239600
  H       -2.5741050    -0.9735930     1.2548470
units angstrom
no_reorient  #important for SAPT in psi4, default
symmetry c1  #important for SAPT in psi4, default
}

set PROPERTIES_ORIGIN ["COM"]
properties('MP2/aug-cc-pvtz', properties = ['dipole'])
--------------------------------------------------------------------------

    Molecular point group: c1
  Charge       = 0
  Multiplicity = 1
  Basis Set: AUG-CC-PVTZ
    Blend: AUG-CC-PVTZ
  Basis Set: (AUG-CC-PVTZ AUX)
    Blend: AUG-CC-PVTZ-JKFIT

    Orbital Energies [Eh]
    ---------------------

    Doubly Occupied:

       1A    -11.217803     2A    -11.212600     3A    -11.212292
       4A    -11.212230     5A    -11.209551     6A    -11.208894
       7A    -11.208470     8A     -1.101444     9A     -1.012666
      10A     -1.003870    11A     -0.918728    12A     -0.850918
      13A     -0.817515    14A     -0.736611    15A     -0.644585
      16A     -0.634044    17A     -0.593119    18A     -0.560972
      19A     -0.557566    20A     -0.557360    21A     -0.546137
      22A     -0.517535    23A     -0.499335    24A     -0.497365
      25A     -0.484526    26A     -0.466928    27A     -0.440255
      28A     -0.436619    29A     -0.434078

  @DF-RHF Final Energy:  -274.49045282691304

   => Energetics <=

    Nuclear Repulsion Energy =            333.6051880977919950
    One-Electron Energy =               -1030.6032490569964466
    Two-Electron Energy =                 422.5076081322913524
    Total Energy =                       -274.4904528269130424
  Basis Set: (AUG-CC-PVTZ AUX)
    Blend: AUG-CC-PVTZ-RI
    Molecular point group: c1

    Geometry (in Angstrom), charge = 0, multiplicity = 1:

       Center              X                  Y                   Z               Mass
    ------------   -----------------  -----------------  -----------------  -----------------
         C            0.000036849733    -0.417626697223     0.306781756172    12.000000000000
         C            1.254514849733    -0.843140697223    -0.467949243828    12.000000000000
         C            0.000063849733     1.072438302777     0.679888756172    12.000000000000
         C           -1.254450150267    -0.843121697223    -0.467952243828    12.000000000000
         C            2.573708849733    -0.546393697223     0.241940756172    12.000000000000
         C           -0.000092150267     2.035738302777    -0.506234243828    12.000000000000
         C           -2.573647150267    -0.546485697223     0.241979756172    12.000000000000
         H            0.000039849733    -0.979316697223     1.255116756172     1.007825032230
         H            1.183707449733    -1.896874197223    -0.767042643828     1.007825032230
         H            1.253038849733    -0.367333697223    -1.456698243828     1.007825032230
         H            0.871840849733     1.279956302777     1.310750756172     1.007825032230
         H           -0.871567150267     1.279937302777     1.310955756172     1.007825032230
         H           -1.253014150267    -0.367245697223    -1.456668243828     1.007825032230
         H           -1.185435150267    -1.922483697223    -0.655144243828     1.007825032230
         H            2.760179849733     0.527635302777     0.322882756172     1.007825032230
         H            3.415172849733    -0.986181697223    -0.302010243828     1.007825032230
         H            2.574185849733    -0.964854697223     1.253867756172     1.007825032230
         H            0.883486849733     1.901406302777    -1.136659243828     1.007825032230
         H           -0.000086150267     3.072618302777    -0.156579243828     1.007825032230
         H           -0.883798150267     1.901352302777    -1.136470243828     1.007825032230
         H           -3.415097150267    -0.986281697223    -0.301986243828     1.007825032230
         H           -2.760174150267     0.527527302777     0.322992756172     1.007825032230
         H           -2.574087150267    -0.965012697223     1.253879756172     1.007825032230

  Basis Set: AUG-CC-PVTZ
    Blend: AUG-CC-PVTZ
  Basis Set: (AUG-CC-PVTZ AUX)
    Blend: AUG-CC-PVTZ-JKFIT
	 Reference Energy          =    -274.4904528269130424 [Eh]
	 Singles Energy            =      -0.0000000000000000 [Eh]
	 Same-Spin Energy          =      -0.2969138692945912 [Eh]
	 Opposite-Spin Energy      =      -1.1072935374042518 [Eh]
	 Correlation Energy        =      -1.4042074066988430 [Eh]
	 Total Energy              =    -275.8946602336118872 [Eh]

	 ================> DF-SCS-MP2 Energies <==================
	-----------------------------------------------------------
	 SCS Same-Spin Scale       =       0.3333333333333333 [-]
	 SCS Opposite-Spin Scale   =       1.2000000000000000 [-]
	 SCS Same-Spin Energy      =      -0.0989712897648637 [Eh]
	 SCS Opposite-Spin Energy  =      -1.3287522448851021 [Eh]
	 SCS Correlation Energy    =      -1.4277235346499659 [Eh]
	 SCS Total Energy          =    -275.9181763615629848 [Eh]
	-----------------------------------------------------------

  Dipole Moment: [D]
     X:     0.0044      Y:    -0.0620      Z:    -0.0004     Total:     0.0622

*** Psi4 exiting successfully. Buy a developer a beer!
