                               Psi4 1.3.2 release

  ==> Input File <==

--------------------------------------------------------------------------
#psi4
#
memory 32 gb

molecule  {
0 1
  C       -0.0322586    -0.5282775     0.3041403
  C        1.2544970    -0.8517210    -0.4669820
  C        0.0000460     1.0638580     0.6808560
  C       -1.2544680    -0.8517020    -0.4669850
  C        2.5736910    -0.5549740     0.2429080
  C       -0.0001100     2.0271580    -0.5052670
  C       -2.5736650    -0.5550660     0.2429470
  H        0.0000220    -0.9878970     1.2560840
  H        1.1855160    -1.9310980    -0.6540960
  H        1.2530210    -0.3759140    -1.4557310
  H        0.8718230     1.2713760     1.3117180
  H       -0.8715850     1.2713570     1.3119230
  H       -1.2530320    -0.3758260    -1.4557010
  H       -1.1854530    -1.9310640    -0.6541770
  H        2.7601620     0.5190550     0.3238500
  H        3.4151550    -0.9947620    -0.3010430
  H        2.5741680    -0.9734350     1.2548350
  H        0.8834690     1.8928260    -1.1356920
  H       -0.0001040     3.0640380    -0.1556120
  H       -0.8838160     1.8927720    -1.1355030
  H       -3.4151150    -0.9948620    -0.3010190
  H       -2.7601920     0.5189470     0.3239600
  H       -2.5741050    -0.9735930     1.2548470
units angstrom
no_reorient  #important for SAPT in psi4, default
symmetry c1  #important for SAPT in psi4, default
}

set PROPERTIES_ORIGIN ["COM"]
properties('MP2/aug-cc-pvtz', properties = ['dipole'])
--------------------------------------------------------------------------

    Molecular point group: c1
  Charge       = 0
  Multiplicity = 1
  Basis Set: AUG-CC-PVTZ
    Blend: AUG-CC-PVTZ
  Basis Set: (AUG-CC-PVTZ AUX)
    Blend: AUG-CC-PVTZ-JKFIT

    Orbital Energies [Eh]
    ---------------------

    Doubly Occupied:

       1A    -11.216456     2A    -11.212854     3A    -11.212539
       4A    -11.211372     5A    -11.210095     6A    -11.209958
       7A    -11.207846     8A     -1.100362     9A     -1.015012
      10A     -1.000141    11A     -0.921191    12A     -0.843145
      13A     -0.820396    14A     -0.742370    15A     -0.643617
      16A     -0.628030    17A     -0.599932    18A     -0.564895
      19A     -0.557369    20A     -0.555604    21A     -0.547825
      22A     -0.514456    23A     -0.500577    24A     -0.495310
      25A     -0.483171    26A     -0.468651    27A     -0.457904
      28A     -0.444142    29A     -0.405125

  @DF-RHF Final Energy:  -274.48186926804181

   => Energetics <=

    Nuclear Repulsion Energy =            333.1260264090053624
    One-Electron Energy =               -1029.6351022235926393
    Two-Electron Energy =                 422.0272065465454716
    Total Energy =                       -274.4818692680418053
  Basis Set: (AUG-CC-PVTZ AUX)
    Blend: AUG-CC-PVTZ-RI
    Molecular point group: c1

    Geometry (in Angstrom), charge = 0, multiplicity = 1:

       Center              X                  Y                   Z               Mass
    ------------   -----------------  -----------------  -----------------  -----------------
         C           -0.028390665509    -0.507205934736     0.302478413444    12.000000000000
         C            1.258364934491    -0.830649434736    -0.468643886556    12.000000000000
         C            0.003913934491     1.084929565264     0.679194113444    12.000000000000
         C           -1.250600065509    -0.830630434736    -0.468646886556    12.000000000000
         C            2.577558934491    -0.533902434736     0.241246113444    12.000000000000
         C            0.003757934491     2.048229565264    -0.506928886556    12.000000000000
         C           -2.569797065509    -0.533994434736     0.241285113444    12.000000000000
         H            0.003889934491    -0.966825434736     1.254422113444     1.007825032230
         H            1.189383934491    -1.910026434736    -0.655757886556     1.007825032230
         H            1.256888934491    -0.354842434736    -1.457392886556     1.007825032230
         H            0.875690934491     1.292447565264     1.310056113444     1.007825032230
         H           -0.867717065509     1.292428565264     1.310261113444     1.007825032230
         H           -1.249164065509    -0.354754434736    -1.457362886556     1.007825032230
         H           -1.181585065509    -1.909992434736    -0.655838886556     1.007825032230
         H            2.764029934491     0.540126565264     0.322188113444     1.007825032230
         H            3.419022934491    -0.973690434736    -0.302704886556     1.007825032230
         H            2.578035934491    -0.952363434736     1.253173113444     1.007825032230
         H            0.887336934491     1.913897565264    -1.137353886556     1.007825032230
         H            0.003763934491     3.085109565264    -0.157273886556     1.007825032230
         H           -0.879948065509     1.913843565264    -1.137164886556     1.007825032230
         H           -3.411247065509    -0.973790434736    -0.302680886556     1.007825032230
         H           -2.756324065509     0.540018565264     0.322298113444     1.007825032230
         H           -2.570237065509    -0.952521434736     1.253185113444     1.007825032230

  Basis Set: AUG-CC-PVTZ
    Blend: AUG-CC-PVTZ
  Basis Set: (AUG-CC-PVTZ AUX)
    Blend: AUG-CC-PVTZ-JKFIT
	 Reference Energy          =    -274.4818692680418053 [Eh]
	 Singles Energy            =      -0.0000000000000000 [Eh]
	 Same-Spin Energy          =      -0.2970128047126576 [Eh]
	 Opposite-Spin Energy      =      -1.1077093059535992 [Eh]
	 Correlation Energy        =      -1.4047221106662569 [Eh]
	 Total Energy              =    -275.8865913787080899 [Eh]

	 ================> DF-SCS-MP2 Energies <==================
	-----------------------------------------------------------
	 SCS Same-Spin Scale       =       0.3333333333333333 [-]
	 SCS Opposite-Spin Scale   =       1.2000000000000000 [-]
	 SCS Same-Spin Energy      =      -0.0990042682375525 [Eh]
	 SCS Opposite-Spin Energy  =      -1.3292511671443190 [Eh]
	 SCS Correlation Energy    =      -1.4282554353818715 [Eh]
	 SCS Total Energy          =    -275.9101247034236621 [Eh]
	-----------------------------------------------------------

  Dipole Moment: [D]
     X:    -0.0134      Y:    -0.1222      Z:     0.0413     Total:     0.1296

*** Psi4 exiting successfully. Buy a developer a beer!
