                               Psi4 1.3.2 release

  ==> Input File <==

--------------------------------------------------------------------------
#psi4
#
memory 32 gb

molecule  {
0 1
  C        0.0000190    -0.4262070     0.3077490
  C        1.2544970    -0.8517210    -0.4669820
  C        0.0000460     1.0638580     0.6808560
  C       -1.2544680    -0.8517020    -0.4669850
  C        2.5736910    -0.5549740     0.2429080
  C       -0.0001100     2.0271580    -0.5052670
  C       -2.5736650    -0.5550660     0.2429470
  H        0.0000220    -0.9878970     1.2560840
  H        1.1729471    -2.1277694    -0.6881897
  H        1.2530210    -0.3759140    -1.4557310
  H        0.8718230     1.2713760     1.3117180
  H       -0.8715850     1.2713570     1.3119230
  H       -1.2530320    -0.3758260    -1.4557010
  H       -1.1854530    -1.9310640    -0.6541770
  H        2.7601620     0.5190550     0.3238500
  H        3.4151550    -0.9947620    -0.3010430
  H        2.5741680    -0.9734350     1.2548350
  H        0.8834690     1.8928260    -1.1356920
  H       -0.0001040     3.0640380    -0.1556120
  H       -0.8838160     1.8927720    -1.1355030
  H       -3.4151150    -0.9948620    -0.3010190
  H       -2.7601920     0.5189470     0.3239600
  H       -2.5741050    -0.9735930     1.2548470
units angstrom
no_reorient  #important for SAPT in psi4, default
symmetry c1  #important for SAPT in psi4, default
}

set PROPERTIES_ORIGIN ["COM"]
properties('MP2/aug-cc-pvtz', properties = ['dipole'])
--------------------------------------------------------------------------

    Molecular point group: c1
  Charge       = 0
  Multiplicity = 1
  Basis Set: AUG-CC-PVTZ
    Blend: AUG-CC-PVTZ
  Basis Set: (AUG-CC-PVTZ AUX)
    Blend: AUG-CC-PVTZ-JKFIT

    Orbital Energies [Eh]
    ---------------------

    Doubly Occupied:

       1A    -11.236592     2A    -11.219713     3A    -11.214287
       4A    -11.212448     5A    -11.211747     6A    -11.210374
       7A    -11.209041     8A     -1.101514     9A     -1.011610
      10A     -1.003583    11A     -0.920205    12A     -0.849179
      13A     -0.811015    14A     -0.733073    15A     -0.643232
      16A     -0.629409    17A     -0.595046    18A     -0.561923
      19A     -0.559057    20A     -0.555866    21A     -0.547235
      22A     -0.516321    23A     -0.501468    24A     -0.496549
      25A     -0.479978    26A     -0.461556    27A     -0.442284
      28A     -0.436569    29A     -0.426682

  @DF-RHF Final Energy:  -274.47228706066136

   => Energetics <=

    Nuclear Repulsion Energy =            332.7975102143840331
    One-Electron Energy =               -1028.9444842158620759
    Two-Electron Energy =                 421.6746869408166845
    Total Energy =                       -274.4722870606613583
  Basis Set: (AUG-CC-PVTZ AUX)
    Blend: AUG-CC-PVTZ-RI
    Molecular point group: c1

    Geometry (in Angstrom), charge = 0, multiplicity = 1:

       Center              X                  Y                   Z               Mass
    ------------   -----------------  -----------------  -----------------  -----------------
         C            0.000144979957    -0.415388953677     0.305997786125    12.000000000000
         C            1.254622979957    -0.840902953677    -0.468733213875    12.000000000000
         C            0.000171979957     1.074676046323     0.679104786125    12.000000000000
         C           -1.254342020043    -0.840883953677    -0.468736213875    12.000000000000
         C            2.573816979957    -0.544155953677     0.241156786125    12.000000000000
         C            0.000015979957     2.037976046323    -0.507018213875    12.000000000000
         C           -2.573539020043    -0.544247953677     0.241195786125    12.000000000000
         H            0.000147979957    -0.977078953677     1.254332786125     1.007825032230
         H            1.173073079957    -2.116951353677    -0.689940913875     1.007825032230
         H            1.253146979957    -0.365095953677    -1.457482213875     1.007825032230
         H            0.871948979957     1.282194046323     1.309966786125     1.007825032230
         H           -0.871459020043     1.282175046323     1.310171786125     1.007825032230
         H           -1.252906020043    -0.365007953677    -1.457452213875     1.007825032230
         H           -1.185327020043    -1.920245953677    -0.655928213875     1.007825032230
         H            2.760287979957     0.529873046323     0.322098786125     1.007825032230
         H            3.415280979957    -0.983943953677    -0.302794213875     1.007825032230
         H            2.574293979957    -0.962616953677     1.253083786125     1.007825032230
         H            0.883594979957     1.903644046323    -1.137443213875     1.007825032230
         H            0.000021979957     3.074856046323    -0.157363213875     1.007825032230
         H           -0.883690020043     1.903590046323    -1.137254213875     1.007825032230
         H           -3.414989020043    -0.984043953677    -0.302770213875     1.007825032230
         H           -2.760066020043     0.529765046323     0.322208786125     1.007825032230
         H           -2.573979020043    -0.962774953677     1.253095786125     1.007825032230

  Basis Set: AUG-CC-PVTZ
    Blend: AUG-CC-PVTZ
  Basis Set: (AUG-CC-PVTZ AUX)
    Blend: AUG-CC-PVTZ-JKFIT
	 Reference Energy          =    -274.4722870606613583 [Eh]
	 Singles Energy            =      -0.0000000000000000 [Eh]
	 Same-Spin Energy          =      -0.2969102081168751 [Eh]
	 Opposite-Spin Energy      =      -1.1089308759088903 [Eh]
	 Correlation Energy        =      -1.4058410840257654 [Eh]
	 Total Energy              =    -275.8781281446871390 [Eh]

	 ================> DF-SCS-MP2 Energies <==================
	-----------------------------------------------------------
	 SCS Same-Spin Scale       =       0.3333333333333333 [-]
	 SCS Opposite-Spin Scale   =       1.2000000000000000 [-]
	 SCS Same-Spin Energy      =      -0.0989700693722917 [Eh]
	 SCS Opposite-Spin Energy  =      -1.3307170510906683 [Eh]
	 SCS Correlation Energy    =      -1.4296871204629600 [Eh]
	 SCS Total Energy          =    -275.9019741811243307 [Eh]
	-----------------------------------------------------------

  Dipole Moment: [D]
     X:     0.0082      Y:     0.1358      Z:     0.0947     Total:     0.1658

*** Psi4 exiting successfully. Buy a developer a beer!
