                               Psi4 1.3.2 release

  ==> Input File <==

--------------------------------------------------------------------------
#psi4
#
memory 32 gb

molecule  {
0 1
  C        0.0156094    -0.4171315     0.3275461
  C        1.2544970    -0.8517210    -0.4669820
  C        0.0000460     1.0638580     0.6808560
  C       -1.2544680    -0.8517020    -0.4669850
  C        2.5736910    -0.5549740     0.2429080
  C       -0.0001100     2.0271580    -0.5052670
  C       -2.5736650    -0.5550660     0.2429470
  H        0.0000220    -0.9878970     1.2560840
  H        1.1855160    -1.9310980    -0.6540960
  H        1.2530210    -0.3759140    -1.4557310
  H        0.8718230     1.2713760     1.3117180
  H       -0.8715850     1.2713570     1.3119230
  H       -1.2530320    -0.3758260    -1.4557010
  H       -1.1854530    -1.9310640    -0.6541770
  H        2.7601620     0.5190550     0.3238500
  H        3.4151550    -0.9947620    -0.3010430
  H        2.5741680    -0.9734350     1.2548350
  H        0.8834690     1.8928260    -1.1356920
  H       -0.0001040     3.0640380    -0.1556120
  H       -0.8838160     1.8927720    -1.1355030
  H       -3.4151150    -0.9948620    -0.3010190
  H       -2.7601920     0.5189470     0.3239600
  H       -2.5741050    -0.9735930     1.2548470
units angstrom
no_reorient  #important for SAPT in psi4, default
symmetry c1  #important for SAPT in psi4, default
}

set PROPERTIES_ORIGIN ["COM"]
properties('MP2/aug-cc-pvtz', properties = ['dipole'])
--------------------------------------------------------------------------

    Molecular point group: c1
  Charge       = 0
  Multiplicity = 1
  Basis Set: AUG-CC-PVTZ
    Blend: AUG-CC-PVTZ
  Basis Set: (AUG-CC-PVTZ AUX)
    Blend: AUG-CC-PVTZ-JKFIT

    Orbital Energies [Eh]
    ---------------------

    Doubly Occupied:

       1A    -11.216756     2A    -11.212983     3A    -11.212546
       4A    -11.211464     5A    -11.209125     6A    -11.208444
       7A    -11.208412     8A     -1.100972     9A     -1.012031
      10A     -1.004121    11A     -0.918381    12A     -0.851181
      13A     -0.814920    14A     -0.736263    15A     -0.647031
      16A     -0.633491    17A     -0.594078    18A     -0.561901
      19A     -0.557680    20A     -0.556294    21A     -0.545542
      22A     -0.516817    23A     -0.500704    24A     -0.495911
      25A     -0.483295    26A     -0.469718    27A     -0.447016
      28A     -0.436358    29A     -0.427016

  @DF-RHF Final Energy:  -274.49120774821751

   => Energetics <=

    Nuclear Repulsion Energy =            333.5810058643757543
    One-Electron Energy =               -1030.5635206104725512
    Two-Electron Energy =                 422.4913069978792350
    Total Energy =                       -274.4912077482175050
  Basis Set: (AUG-CC-PVTZ AUX)
    Blend: AUG-CC-PVTZ-RI
    Molecular point group: c1

    Geometry (in Angstrom), charge = 0, multiplicity = 1:

       Center              X                  Y                   Z               Mass
    ------------   -----------------  -----------------  -----------------  -----------------
         C            0.013740357216    -0.409380776973     0.323079029549    12.000000000000
         C            1.252627957216    -0.843970276973    -0.471449070451    12.000000000000
         C           -0.001823042784     1.071608723027     0.676388929549    12.000000000000
         C           -1.256337042784    -0.843951276973    -0.471452070451    12.000000000000
         C            2.571821957216    -0.547223276973     0.238440929549    12.000000000000
         C           -0.001979042784     2.034908723027    -0.509734070451    12.000000000000
         C           -2.575534042784    -0.547315276973     0.238479929549    12.000000000000
         H           -0.001847042784    -0.980146276973     1.251616929549     1.007825032230
         H            1.183646957216    -1.923347276973    -0.658563070451     1.007825032230
         H            1.251151957216    -0.368163276973    -1.460198070451     1.007825032230
         H            0.869953957216     1.279126723027     1.307250929549     1.007825032230
         H           -0.873454042784     1.279107723027     1.307455929549     1.007825032230
         H           -1.254901042784    -0.368075276973    -1.460168070451     1.007825032230
         H           -1.187322042784    -1.923313276973    -0.658644070451     1.007825032230
         H            2.758292957216     0.526805723027     0.319382929549     1.007825032230
         H            3.413285957216    -0.987011276973    -0.305510070451     1.007825032230
         H            2.572298957216    -0.965684276973     1.250367929549     1.007825032230
         H            0.881599957216     1.900576723027    -1.140159070451     1.007825032230
         H           -0.001973042784     3.071788723027    -0.160079070451     1.007825032230
         H           -0.885685042784     1.900522723027    -1.139970070451     1.007825032230
         H           -3.416984042784    -0.987111276973    -0.305486070451     1.007825032230
         H           -2.762061042784     0.526697723027     0.319492929549     1.007825032230
         H           -2.575974042784    -0.965842276973     1.250379929549     1.007825032230

  Basis Set: AUG-CC-PVTZ
    Blend: AUG-CC-PVTZ
  Basis Set: (AUG-CC-PVTZ AUX)
    Blend: AUG-CC-PVTZ-JKFIT
	 Reference Energy          =    -274.4912077482175050 [Eh]
	 Singles Energy            =      -0.0000000000000000 [Eh]
	 Same-Spin Energy          =      -0.2967968909089323 [Eh]
	 Opposite-Spin Energy      =      -1.1072190359920389 [Eh]
	 Correlation Energy        =      -1.4040159269009711 [Eh]
	 Total Energy              =    -275.8952236751184728 [Eh]

	 ================> DF-SCS-MP2 Energies <==================
	-----------------------------------------------------------
	 SCS Same-Spin Scale       =       0.3333333333333333 [-]
	 SCS Opposite-Spin Scale   =       1.2000000000000000 [-]
	 SCS Same-Spin Energy      =      -0.0989322969696441 [Eh]
	 SCS Opposite-Spin Energy  =      -1.3286628431904466 [Eh]
	 SCS Correlation Energy    =      -1.4275951401600906 [Eh]
	 SCS Total Energy          =    -275.9188028883775701 [Eh]
	-----------------------------------------------------------

  Dipole Moment: [D]
     X:     0.0063      Y:    -0.0615      Z:     0.0304     Total:     0.0689

*** Psi4 exiting successfully. Buy a developer a beer!
