                               Psi4 1.3.2 release

  ==> Input File <==

--------------------------------------------------------------------------
#psi4
#
memory 32 gb

molecule  {
0 1
  C        0.0000190    -0.4262070     0.3077490
  C        1.2544970    -0.8517210    -0.4669820
  C        0.0000460     1.0638580     0.6808560
  C       -1.2544680    -0.8517020    -0.4669850
  C        2.7464532    -0.5161119     0.3358755
  C       -0.0001100     2.0271580    -0.5052670
  C       -2.5736650    -0.5550660     0.2429470
  H        0.0000220    -0.9878970     1.2560840
  H        1.1855160    -1.9310980    -0.6540960
  H        1.2530210    -0.3759140    -1.4557310
  H        0.8718230     1.2713760     1.3117180
  H       -0.8715850     1.2713570     1.3119230
  H       -1.2530320    -0.3758260    -1.4557010
  H       -1.1854530    -1.9310640    -0.6541770
  H        2.7601620     0.5190550     0.3238500
  H        3.4151550    -0.9947620    -0.3010430
  H        2.5741680    -0.9734350     1.2548350
  H        0.8834690     1.8928260    -1.1356920
  H       -0.0001040     3.0640380    -0.1556120
  H       -0.8838160     1.8927720    -1.1355030
  H       -3.4151150    -0.9948620    -0.3010190
  H       -2.7601920     0.5189470     0.3239600
  H       -2.5741050    -0.9735930     1.2548470
units angstrom
no_reorient  #important for SAPT in psi4, default
symmetry c1  #important for SAPT in psi4, default
}

set PROPERTIES_ORIGIN ["COM"]
properties('MP2/aug-cc-pvtz', properties = ['dipole'])
--------------------------------------------------------------------------

    Molecular point group: c1
  Charge       = 0
  Multiplicity = 1
  Basis Set: AUG-CC-PVTZ
    Blend: AUG-CC-PVTZ
  Basis Set: (AUG-CC-PVTZ AUX)
    Blend: AUG-CC-PVTZ-JKFIT

    Orbital Energies [Eh]
    ---------------------

    Doubly Occupied:

       1A    -11.219938     2A    -11.217484     3A    -11.212708
       4A    -11.212091     5A    -11.209040     6A    -11.208841
       7A    -11.205285     8A     -1.096576     9A     -1.007065
      10A     -0.992402    11A     -0.922690    12A     -0.851985
      13A     -0.821983    14A     -0.732993    15A     -0.645136
      16A     -0.633128    17A     -0.598648    18A     -0.574452
      19A     -0.562887    20A     -0.558030    21A     -0.543890
      22A     -0.518474    23A     -0.506423    24A     -0.499473
      25A     -0.480409    26A     -0.461722    27A     -0.442722
      28A     -0.437303    29A     -0.406816

  @DF-RHF Final Energy:  -274.46498609026162

   => Energetics <=

    Nuclear Repulsion Energy =            330.9920091739302279
    One-Electron Energy =               -1025.3527979639661680
    Two-Electron Energy =                 419.8958026997743218
    Total Energy =                       -274.4649860902616183
  Basis Set: (AUG-CC-PVTZ AUX)
    Blend: AUG-CC-PVTZ-RI
    Molecular point group: c1

    Geometry (in Angstrom), charge = 0, multiplicity = 1:

       Center              X                  Y                   Z               Mass
    ------------   -----------------  -----------------  -----------------  -----------------
         C           -0.020687074723    -0.422026199411     0.294512460968    12.000000000000
         C            1.233790925277    -0.847540199411    -0.480218539032    12.000000000000
         C           -0.020660074723     1.068038800589     0.667619460968    12.000000000000
         C           -1.275174074723    -0.847521199411    -0.480221539032    12.000000000000
         C            2.725747125277    -0.511931099411     0.322638960968    12.000000000000
         C           -0.020816074723     2.031338800589    -0.518503539032    12.000000000000
         C           -2.594371074723    -0.550885199411     0.229710460968    12.000000000000
         H           -0.020684074723    -0.983716199411     1.242847460968     1.007825032230
         H            1.164809925277    -1.926917199411    -0.667332539032     1.007825032230
         H            1.232314925277    -0.371733199411    -1.468967539032     1.007825032230
         H            0.851116925277     1.275556800589     1.298481460968     1.007825032230
         H           -0.892291074723     1.275537800589     1.298686460968     1.007825032230
         H           -1.273738074723    -0.371645199411    -1.468937539032     1.007825032230
         H           -1.206159074723    -1.926883199411    -0.667413539032     1.007825032230
         H            2.739455925277     0.523235800589     0.310613460968     1.007825032230
         H            3.394448925277    -0.990581199411    -0.314279539032     1.007825032230
         H            2.553461925277    -0.969254199411     1.241598460968     1.007825032230
         H            0.862762925277     1.897006800589    -1.148928539032     1.007825032230
         H           -0.020810074723     3.068218800589    -0.168848539032     1.007825032230
         H           -0.904522074723     1.896952800589    -1.148739539032     1.007825032230
         H           -3.435821074723    -0.990681199411    -0.314255539032     1.007825032230
         H           -2.780898074723     0.523127800589     0.310723460968     1.007825032230
         H           -2.594811074723    -0.969412199411     1.241610460968     1.007825032230

  Basis Set: AUG-CC-PVTZ
    Blend: AUG-CC-PVTZ
  Basis Set: (AUG-CC-PVTZ AUX)
    Blend: AUG-CC-PVTZ-JKFIT
	 Reference Energy          =    -274.4649860902616183 [Eh]
	 Singles Energy            =      -0.0000000000000000 [Eh]
	 Same-Spin Energy          =      -0.2968588916205049 [Eh]
	 Opposite-Spin Energy      =      -1.1086224592363683 [Eh]
	 Correlation Energy        =      -1.4054813508568731 [Eh]
	 Total Energy              =    -275.8704674411184783 [Eh]

	 ================> DF-SCS-MP2 Energies <==================
	-----------------------------------------------------------
	 SCS Same-Spin Scale       =       0.3333333333333333 [-]
	 SCS Opposite-Spin Scale   =       1.2000000000000000 [-]
	 SCS Same-Spin Energy      =      -0.0989529638735016 [Eh]
	 SCS Opposite-Spin Energy  =      -1.3303469510836419 [Eh]
	 SCS Correlation Energy    =      -1.4292999149571435 [Eh]
	 SCS Total Energy          =    -275.8942860052187598 [Eh]
	-----------------------------------------------------------

  Dipole Moment: [D]
     X:    -0.1042      Y:    -0.0789      Z:     0.0037     Total:     0.1307

*** Psi4 exiting successfully. Buy a developer a beer!
