                               Psi4 1.3.2 release

  ==> Input File <==

--------------------------------------------------------------------------
#psi4
#
memory 32 gb

molecule  {
0 1
  C        0.0000190    -0.4262070     0.3077490
  C        1.2544970    -0.8517210    -0.4669820
  C        0.0000460     1.0638580     0.6808560
  C       -1.2544680    -0.8517020    -0.4669850
  C        2.5736910    -0.5549740     0.2429080
  C       -0.0001100     2.0271580    -0.5052670
  C       -2.5736650    -0.5550660     0.2429470
  H        0.0000220    -0.9878970     1.2560840
  H        1.1858945    -1.9342279    -0.6351999
  H        1.2530210    -0.3759140    -1.4557310
  H        0.8718230     1.2713760     1.3117180
  H       -0.8715850     1.2713570     1.3119230
  H       -1.2530320    -0.3758260    -1.4557010
  H       -1.1854530    -1.9310640    -0.6541770
  H        2.7601620     0.5190550     0.3238500
  H        3.4151550    -0.9947620    -0.3010430
  H        2.5741680    -0.9734350     1.2548350
  H        0.8834690     1.8928260    -1.1356920
  H       -0.0001040     3.0640380    -0.1556120
  H       -0.8838160     1.8927720    -1.1355030
  H       -3.4151150    -0.9948620    -0.3010190
  H       -2.7601920     0.5189470     0.3239600
  H       -2.5741050    -0.9735930     1.2548470
units angstrom
no_reorient  #important for SAPT in psi4, default
symmetry c1  #important for SAPT in psi4, default
}

set PROPERTIES_ORIGIN ["COM"]
properties('MP2/aug-cc-pvtz', properties = ['dipole'])
--------------------------------------------------------------------------

    Molecular point group: c1
  Charge       = 0
  Multiplicity = 1
  Basis Set: AUG-CC-PVTZ
    Blend: AUG-CC-PVTZ
  Basis Set: (AUG-CC-PVTZ AUX)
    Blend: AUG-CC-PVTZ-JKFIT

    Orbital Energies [Eh]
    ---------------------

    Doubly Occupied:

       1A    -11.217150     2A    -11.212631     3A    -11.212560
       4A    -11.211748     5A    -11.208938     6A    -11.208834
       7A    -11.208732     8A     -1.101697     9A     -1.012985
      10A     -1.004028    11A     -0.918747    12A     -0.850245
      13A     -0.816518    14A     -0.734524    15A     -0.647448
      16A     -0.633308    17A     -0.595023    18A     -0.561405
      19A     -0.557751    20A     -0.557323    21A     -0.545923
      22A     -0.516500    23A     -0.500664    24A     -0.495681
      25A     -0.483168    26A     -0.470591    27A     -0.442435
      28A     -0.434282    29A     -0.433374

  @DF-RHF Final Energy:  -274.49174204056499

   => Energetics <=

    Nuclear Repulsion Energy =            333.6664084135853159
    One-Electron Energy =               -1030.7278697802162242
    Two-Electron Energy =                 422.5697193260659787
    Total Energy =                       -274.4917420405649864
  Basis Set: (AUG-CC-PVTZ AUX)
    Blend: AUG-CC-PVTZ-RI
    Molecular point group: c1

    Geometry (in Angstrom), charge = 0, multiplicity = 1:

       Center              X                  Y                   Z               Mass
    ------------   -----------------  -----------------  -----------------  -----------------
         C            0.000014655986    -0.417337074304     0.305464409447    12.000000000000
         C            1.254492655986    -0.842851074304    -0.469266590553    12.000000000000
         C            0.000041655986     1.072727925696     0.678571409447    12.000000000000
         C           -1.254472344014    -0.842832074304    -0.469269590553    12.000000000000
         C            2.573686655986    -0.546104074304     0.240623409447    12.000000000000
         C           -0.000114344014     2.036027925696    -0.507551590553    12.000000000000
         C           -2.573669344014    -0.546196074304     0.240662409447    12.000000000000
         H            0.000017655986    -0.979027074304     1.253799409447     1.007825032230
         H            1.185890155986    -1.925357974304    -0.637484490553     1.007825032230
         H            1.253016655986    -0.367044074304    -1.458015590553     1.007825032230
         H            0.871818655986     1.280245925696     1.309433409447     1.007825032230
         H           -0.871589344014     1.280226925696     1.309638409447     1.007825032230
         H           -1.253036344014    -0.366956074304    -1.457985590553     1.007825032230
         H           -1.185457344014    -1.922194074304    -0.656461590553     1.007825032230
         H            2.760157655986     0.527924925696     0.321565409447     1.007825032230
         H            3.415150655986    -0.985892074304    -0.303327590553     1.007825032230
         H            2.574163655986    -0.964565074304     1.252550409447     1.007825032230
         H            0.883464655986     1.901695925696    -1.137976590553     1.007825032230
         H           -0.000108344014     3.072907925696    -0.157896590553     1.007825032230
         H           -0.883820344014     1.901641925696    -1.137787590553     1.007825032230
         H           -3.415119344014    -0.985992074304    -0.303303590553     1.007825032230
         H           -2.760196344014     0.527816925696     0.321675409447     1.007825032230
         H           -2.574109344014    -0.964723074304     1.252562409447     1.007825032230

  Basis Set: AUG-CC-PVTZ
    Blend: AUG-CC-PVTZ
  Basis Set: (AUG-CC-PVTZ AUX)
    Blend: AUG-CC-PVTZ-JKFIT
	 Reference Energy          =    -274.4917420405649864 [Eh]
	 Singles Energy            =      -0.0000000000000000 [Eh]
	 Same-Spin Energy          =      -0.2968456361376959 [Eh]
	 Opposite-Spin Energy      =      -1.1072571832050198 [Eh]
	 Correlation Energy        =      -1.4041028193427156 [Eh]
	 Total Energy              =    -275.8958448599076974 [Eh]

	 ================> DF-SCS-MP2 Energies <==================
	-----------------------------------------------------------
	 SCS Same-Spin Scale       =       0.3333333333333333 [-]
	 SCS Opposite-Spin Scale   =       1.2000000000000000 [-]
	 SCS Same-Spin Energy      =      -0.0989485453792320 [Eh]
	 SCS Opposite-Spin Energy  =      -1.3287086198460236 [Eh]
	 SCS Correlation Energy    =      -1.4276571652252557 [Eh]
	 SCS Total Energy          =    -275.9193992057902278 [Eh]
	-----------------------------------------------------------

  Dipole Moment: [D]
     X:    -0.0008      Y:    -0.0664      Z:     0.0319     Total:     0.0737

*** Psi4 exiting successfully. Buy a developer a beer!
