                               Psi4 1.3.2 release

  ==> Input File <==

--------------------------------------------------------------------------
#psi4
#
memory 32 gb

molecule  {
0 1
  C        0.0991233    -0.3737937     0.4227834
  C        1.2544970    -0.8517210    -0.4669820
  C        0.0000460     1.0638580     0.6808560
  C       -1.2544680    -0.8517020    -0.4669850
  C        2.5736910    -0.5549740     0.2429080
  C       -0.0001100     2.0271580    -0.5052670
  C       -2.5736650    -0.5550660     0.2429470
  H        0.0000220    -0.9878970     1.2560840
  H        1.1855160    -1.9310980    -0.6540960
  H        1.2530210    -0.3759140    -1.4557310
  H        0.8718230     1.2713760     1.3117180
  H       -0.8715850     1.2713570     1.3119230
  H       -1.2530320    -0.3758260    -1.4557010
  H       -1.1854530    -1.9310640    -0.6541770
  H        2.7601620     0.5190550     0.3238500
  H        3.4151550    -0.9947620    -0.3010430
  H        2.5741680    -0.9734350     1.2548350
  H        0.8834690     1.8928260    -1.1356920
  H       -0.0001040     3.0640380    -0.1556120
  H       -0.8838160     1.8927720    -1.1355030
  H       -3.4151150    -0.9948620    -0.3010190
  H       -2.7601920     0.5189470     0.3239600
  H       -2.5741050    -0.9735930     1.2548470
units angstrom
no_reorient  #important for SAPT in psi4, default
symmetry c1  #important for SAPT in psi4, default
}

set PROPERTIES_ORIGIN ["COM"]
properties('MP2/aug-cc-pvtz', properties = ['dipole'])
--------------------------------------------------------------------------

    Molecular point group: c1
  Charge       = 0
  Multiplicity = 1
  Basis Set: AUG-CC-PVTZ
    Blend: AUG-CC-PVTZ
  Basis Set: (AUG-CC-PVTZ AUX)
    Blend: AUG-CC-PVTZ-JKFIT

    Orbital Energies [Eh]
    ---------------------

    Doubly Occupied:

       1A    -11.217235     2A    -11.213812     3A    -11.213467
       4A    -11.211700     5A    -11.210529     6A    -11.206446
       7A    -11.206152     8A     -1.101129     9A     -1.010833
      10A     -1.002281    11A     -0.918954    12A     -0.854132
      13A     -0.807540    14A     -0.743780    15A     -0.650197
      16A     -0.632970    17A     -0.592087    18A     -0.565402
      19A     -0.560819    20A     -0.552307    21A     -0.540400
      22A     -0.518270    23A     -0.504514    24A     -0.496489
      25A     -0.483188    26A     -0.469122    27A     -0.466177
      28A     -0.443385    29A     -0.387333

  @DF-RHF Final Energy:  -274.46949779001096

   => Energetics <=

    Nuclear Repulsion Energy =            333.2075448411401339
    One-Electron Energy =               -1029.7927836635908534
    Two-Electron Energy =                 422.1157410324397574
    Total Energy =                       -274.4694977900109620
  Basis Set: (AUG-CC-PVTZ AUX)
    Blend: AUG-CC-PVTZ-RI
    Molecular point group: c1

    Geometry (in Angstrom), charge = 0, multiplicity = 1:

       Center              X                  Y                   Z               Mass
    ------------   -----------------  -----------------  -----------------  -----------------
         C            0.087245120706    -0.371237010017     0.406902144168    12.000000000000
         C            1.242618820706    -0.849164310017    -0.482863255832    12.000000000000
         C           -0.011832179294     1.066414689983     0.664974744168    12.000000000000
         C           -1.266346179294    -0.849145310017    -0.482866255832    12.000000000000
         C            2.561812820706    -0.552417310017     0.227026744168    12.000000000000
         C           -0.011988179294     2.029714689983    -0.521148255832    12.000000000000
         C           -2.585543179294    -0.552509310017     0.227065744168    12.000000000000
         H           -0.011856179294    -0.985340310017     1.240202744168     1.007825032230
         H            1.173637820706    -1.928541310017    -0.669977255832     1.007825032230
         H            1.241142820706    -0.373357310017    -1.471612255832     1.007825032230
         H            0.859944820706     1.273932689983     1.295836744168     1.007825032230
         H           -0.883463179294     1.273913689983     1.296041744168     1.007825032230
         H           -1.264910179294    -0.373269310017    -1.471582255832     1.007825032230
         H           -1.197331179294    -1.928507310017    -0.670058255832     1.007825032230
         H            2.748283820706     0.521611689983     0.307968744168     1.007825032230
         H            3.403276820706    -0.992205310017    -0.316924255832     1.007825032230
         H            2.562289820706    -0.970878310017     1.238953744168     1.007825032230
         H            0.871590820706     1.895382689983    -1.151573255832     1.007825032230
         H           -0.011982179294     3.066594689983    -0.171493255832     1.007825032230
         H           -0.895694179294     1.895328689983    -1.151384255832     1.007825032230
         H           -3.426993179294    -0.992305310017    -0.316900255832     1.007825032230
         H           -2.772070179294     0.521503689983     0.308078744168     1.007825032230
         H           -2.585983179294    -0.971036310017     1.238965744168     1.007825032230

  Basis Set: AUG-CC-PVTZ
    Blend: AUG-CC-PVTZ
  Basis Set: (AUG-CC-PVTZ AUX)
    Blend: AUG-CC-PVTZ-JKFIT
	 Reference Energy          =    -274.4694977900109620 [Eh]
	 Singles Energy            =      -0.0000000000000000 [Eh]
	 Same-Spin Energy          =      -0.2974327979147492 [Eh]
	 Opposite-Spin Energy      =      -1.1087976669212631 [Eh]
	 Correlation Energy        =      -1.4062304648360122 [Eh]
	 Total Energy              =    -275.8757282548469902 [Eh]

	 ================> DF-SCS-MP2 Energies <==================
	-----------------------------------------------------------
	 SCS Same-Spin Scale       =       0.3333333333333333 [-]
	 SCS Opposite-Spin Scale   =       1.2000000000000000 [-]
	 SCS Same-Spin Energy      =      -0.0991442659715831 [Eh]
	 SCS Opposite-Spin Energy  =      -1.3305572003055157 [Eh]
	 SCS Correlation Energy    =      -1.4297014662770988 [Eh]
	 SCS Total Energy          =    -275.8991992562880569 [Eh]
	-----------------------------------------------------------

  Dipole Moment: [D]
     X:     0.0472      Y:    -0.0266      Z:     0.0383     Total:     0.0663

*** Psi4 exiting successfully. Buy a developer a beer!
