                               Psi4 1.4a3.dev225

  ==> Input File <==

--------------------------------------------------------------------------
#psi4
#
memory 32 gb

molecule  {
0 1
  C        0.0000000    -0.4260750     0.3076100
  C        1.2544720    -0.8514380    -0.4671590
  C        0.0000000     1.0639900     0.6808960
  C       -1.2544720    -0.8514380    -0.4671590
  C        2.5736720    -0.5554960     0.2430540
  C        0.0000000     2.0274100    -0.5051140
  C       -2.5736720    -0.5554960     0.2430540
  H        0.0000000    -0.9980642     1.2730739
  H        1.1852130    -1.9306880    -0.6549460
  H        1.2532300    -0.3750670    -1.4556400
  H        0.8717050     1.2713650     1.3118990
  H       -0.8717030     1.2713660     1.3119000
  H       -1.2532300    -0.3750660    -1.4556400
  H       -1.1852130    -1.9306880    -0.6549460
  H        2.7605980     0.5184190     0.3244420
  H        3.4150690    -0.9954020    -0.3009240
  H        2.5738760    -0.9743250     1.2548280
  H        0.8836400     1.8931300    -1.1354610
  H        0.0000000     3.0642610    -0.1553580
  H       -0.8836410     1.8931290    -1.1354600
  H       -3.4150690    -0.9954020    -0.3009240
  H       -2.7605980     0.5184190     0.3244430
  H       -2.5738760    -0.9743270     1.2548280
units angstrom
no_reorient  #important for SAPT in psi4, default
symmetry c1  #important for SAPT in psi4, default
}

set PROPERTIES_ORIGIN ["COM"]
properties('MP2/aug-cc-pvtz', properties = ['dipole'])
--------------------------------------------------------------------------

    Molecular point group: c1
  Charge       = 0
  Multiplicity = 1
  Basis Set: AUG-CC-PVTZ
    Blend: AUG-CC-PVTZ
  Basis Set: (AUG-CC-PVTZ AUX)
    Blend: AUG-CC-PVTZ-JKFIT

    Orbital Energies [Eh]
    ---------------------

    Doubly Occupied:

       1A    -11.219790     2A    -11.212824     3A    -11.212788
       4A    -11.212042     5A    -11.208944     6A    -11.208942
       7A    -11.208878     8A     -1.101256     9A     -1.013006
      10A     -1.004152    11A     -0.918167    12A     -0.850366
      13A     -0.816768    14A     -0.732899    15A     -0.646567
      16A     -0.633542    17A     -0.594757    18A     -0.561370
      19A     -0.557868    20A     -0.556809    21A     -0.545647
      22A     -0.516708    23A     -0.500421    24A     -0.495953
      25A     -0.483536    26A     -0.470230    27A     -0.440554
      28A     -0.434510    29A     -0.434047

  @DF-RHF Final Energy:  -274.49125070023842

   => Energetics <=

    Nuclear Repulsion Energy =            333.5510182925521008
    One-Electron Energy =               -1030.4978573231605878
    Two-Electron Energy =                 422.4555883303701194
    Total Energy =                       -274.4912507002384245
  Basis Set: (AUG-CC-PVTZ AUX)
    Blend: AUG-CC-PVTZ-RI
    Molecular point group: c1

    Geometry (in Angstrom), charge = 0, multiplicity = 1:

       Center              X                  Y                   Z               Mass
    ------------   -----------------  -----------------  -----------------  -----------------
         C           -0.000000010066    -0.417140567169     0.305345018340    12.000000000000
         C            1.254471989934    -0.842503567169    -0.469423981660    12.000000000000
         C           -0.000000010066     1.072924432831     0.678631018340    12.000000000000
         C           -1.254472010066    -0.842503567169    -0.469423981660    12.000000000000
         C            2.573671989934    -0.546561567169     0.240789018340    12.000000000000
         C           -0.000000010066     2.036344432831    -0.507378981660    12.000000000000
         C           -2.573672010066    -0.546561567169     0.240789018340    12.000000000000
         H           -0.000000010066    -0.989129767169     1.270808918340     1.007825032230
         H            1.185212989934    -1.921753567169    -0.657210981660     1.007825032230
         H            1.253229989934    -0.366132567169    -1.457904981660     1.007825032230
         H            0.871704989934     1.280299432831     1.309634018340     1.007825032230
         H           -0.871703010066     1.280300432831     1.309635018340     1.007825032230
         H           -1.253230010066    -0.366131567169    -1.457904981660     1.007825032230
         H           -1.185213010066    -1.921753567169    -0.657210981660     1.007825032230
         H            2.760597989934     0.527353432831     0.322177018340     1.007825032230
         H            3.415068989934    -0.986467567169    -0.303188981660     1.007825032230
         H            2.573875989934    -0.965390567169     1.252563018340     1.007825032230
         H            0.883639989934     1.902064432831    -1.137725981660     1.007825032230
         H           -0.000000010066     3.073195432831    -0.157622981660     1.007825032230
         H           -0.883641010066     1.902063432831    -1.137724981660     1.007825032230
         H           -3.415069010066    -0.986467567169    -0.303188981660     1.007825032230
         H           -2.760598010066     0.527353432831     0.322178018340     1.007825032230
         H           -2.573876010066    -0.965392567169     1.252563018340     1.007825032230

  Basis Set: AUG-CC-PVTZ
    Blend: AUG-CC-PVTZ
  Basis Set: (AUG-CC-PVTZ AUX)
    Blend: AUG-CC-PVTZ-JKFIT
	 Reference Energy          =    -274.4912507002384245 [Eh]
	 Singles Energy            =      -0.0000000000000000 [Eh]
	 Same-Spin Energy          =      -0.2968612740903580 [Eh]
	 Opposite-Spin Energy      =      -1.1073893739398950 [Eh]
	 Correlation Energy        =      -1.4042506480302530 [Eh]
	 Total Energy              =    -275.8955013482686809 [Eh]

	 ================> DF-SCS-MP2 Energies <==================
	-----------------------------------------------------------
	 SCS Same-Spin Scale       =       0.3333333333333333 [-]
	 SCS Opposite-Spin Scale   =       1.2000000000000000 [-]
	 SCS Same-Spin Energy      =      -0.0989537580301193 [Eh]
	 SCS Opposite-Spin Energy  =      -1.3288672487278739 [Eh]
	 SCS Correlation Energy    =      -1.4278210067579933 [Eh]
	 SCS Total Energy          =    -275.9190717069964194 [Eh]
	-----------------------------------------------------------

  Dipole Moment: [D]
     X:     0.0000      Y:    -0.0560      Z:     0.0122     Total:     0.0573

*** Psi4 exiting successfully. Buy a developer a beer!
