                               Psi4 1.3.2 release

  ==> Input File <==

--------------------------------------------------------------------------
#psi4
#
memory 32 gb

molecule  {
0 1
  C        0.0000190    -0.4262070     0.3077490
  C        1.2544970    -0.8517210    -0.4669820
  C        0.0000460     1.0638580     0.6808560
  C       -1.2544680    -0.8517020    -0.4669850
  C        2.5736910    -0.5549740     0.2429080
  C       -0.0001100     2.0271580    -0.5052670
  C       -2.5736650    -0.5550660     0.2429470
  H        0.0000220    -0.9878970     1.2560840
  H        1.1855160    -1.9310980    -0.6540960
  H        1.2530210    -0.3759140    -1.4557310
  H        0.8718230     1.2713760     1.3117180
  H       -0.8715850     1.2713570     1.3119230
  H       -1.2530320    -0.3758260    -1.4557010
  H       -1.1854530    -1.9310640    -0.6541770
  H        2.7772210     0.6173106     0.3312548
  H        3.4151550    -0.9947620    -0.3010430
  H        2.5741680    -0.9734350     1.2548350
  H        0.8834690     1.8928260    -1.1356920
  H       -0.0001040     3.0640380    -0.1556120
  H       -0.8838160     1.8927720    -1.1355030
  H       -3.4151150    -0.9948620    -0.3010190
  H       -2.7601920     0.5189470     0.3239600
  H       -2.5741050    -0.9735930     1.2548470
units angstrom
no_reorient  #important for SAPT in psi4, default
symmetry c1  #important for SAPT in psi4, default
}

set PROPERTIES_ORIGIN ["COM"]
properties('MP2/aug-cc-pvtz', properties = ['dipole'])
--------------------------------------------------------------------------

    Molecular point group: c1
  Charge       = 0
  Multiplicity = 1
  Basis Set: AUG-CC-PVTZ
    Blend: AUG-CC-PVTZ
  Basis Set: (AUG-CC-PVTZ AUX)
    Blend: AUG-CC-PVTZ-JKFIT

    Orbital Energies [Eh]
    ---------------------

    Doubly Occupied:

       1A    -11.221229     2A    -11.217596     3A    -11.213961
       4A    -11.212861     5A    -11.211385     6A    -11.209089
       7A    -11.208361     8A     -1.101619     9A     -1.011505
      10A     -1.003388    11A     -0.916222    12A     -0.849419
      13A     -0.813705    14A     -0.734729    15A     -0.646070
      16A     -0.632684    17A     -0.594068    18A     -0.560040
      19A     -0.557936    20A     -0.552446    21A     -0.546732
      22A     -0.514925    23A     -0.499217    24A     -0.494966
      25A     -0.482095    26A     -0.466689    27A     -0.442292
      28A     -0.434852    29A     -0.432902

  @DF-RHF Final Energy:  -274.48528413045057

   => Energetics <=

    Nuclear Repulsion Energy =            333.3063421706979739
    One-Electron Energy =               -1030.0172873341759896
    Two-Electron Energy =                 422.2256610330275066
    Total Energy =                       -274.4852841304505660
  Basis Set: (AUG-CC-PVTZ AUX)
    Blend: AUG-CC-PVTZ-RI
    Molecular point group: c1

    Geometry (in Angstrom), charge = 0, multiplicity = 1:

       Center              X                  Y                   Z               Mass
    ------------   -----------------  -----------------  -----------------  -----------------
         C           -0.000153244057    -0.418357585068     0.305580076828    12.000000000000
         C            1.254324755943    -0.843871585068    -0.469150923172    12.000000000000
         C           -0.000126244057     1.071707414932     0.678687076828    12.000000000000
         C           -1.254640244057    -0.843852585068    -0.469153923172    12.000000000000
         C            2.573518755943    -0.547124585068     0.240739076828    12.000000000000
         C           -0.000282244057     2.035007414932    -0.507435923172    12.000000000000
         C           -2.573837244057    -0.547216585068     0.240778076828    12.000000000000
         H           -0.000150244057    -0.980047585068     1.253915076828     1.007825032230
         H            1.185343755943    -1.923248585068    -0.656264923172     1.007825032230
         H            1.252848755943    -0.368064585068    -1.457899923172     1.007825032230
         H            0.871650755943     1.279225414932     1.309549076828     1.007825032230
         H           -0.871757244057     1.279206414932     1.309754076828     1.007825032230
         H           -1.253204244057    -0.367976585068    -1.457869923172     1.007825032230
         H           -1.185625244057    -1.923214585068    -0.656345923172     1.007825032230
         H            2.777048755943     0.625160014932     0.329085876828     1.007825032230
         H            3.414982755943    -0.986912585068    -0.303211923172     1.007825032230
         H            2.573995755943    -0.965585585068     1.252666076828     1.007825032230
         H            0.883296755943     1.900675414932    -1.137860923172     1.007825032230
         H           -0.000276244057     3.071887414932    -0.157780923172     1.007825032230
         H           -0.883988244057     1.900621414932    -1.137671923172     1.007825032230
         H           -3.415287244057    -0.987012585068    -0.303187923172     1.007825032230
         H           -2.760364244057     0.526796414932     0.321791076828     1.007825032230
         H           -2.574277244057    -0.965743585068     1.252678076828     1.007825032230

  Basis Set: AUG-CC-PVTZ
    Blend: AUG-CC-PVTZ
  Basis Set: (AUG-CC-PVTZ AUX)
    Blend: AUG-CC-PVTZ-JKFIT
	 Reference Energy          =    -274.4852841304505660 [Eh]
	 Singles Energy            =      -0.0000000000000000 [Eh]
	 Same-Spin Energy          =      -0.2968816737142537 [Eh]
	 Opposite-Spin Energy      =      -1.1079771502673119 [Eh]
	 Correlation Energy        =      -1.4048588239815656 [Eh]
	 Total Energy              =    -275.8901429544321218 [Eh]

	 ================> DF-SCS-MP2 Energies <==================
	-----------------------------------------------------------
	 SCS Same-Spin Scale       =       0.3333333333333333 [-]
	 SCS Opposite-Spin Scale   =       1.2000000000000000 [-]
	 SCS Same-Spin Energy      =      -0.0989605579047512 [Eh]
	 SCS Opposite-Spin Energy  =      -1.3295725803207743 [Eh]
	 SCS Correlation Energy    =      -1.4285331382255255 [Eh]
	 SCS Total Energy          =    -275.9138172686760981 [Eh]
	-----------------------------------------------------------

  Dipole Moment: [D]
     X:    -0.0280      Y:    -0.1341      Z:     0.0165     Total:     0.1380

*** Psi4 exiting successfully. Buy a developer a beer!
