                               Psi4 1.3.2 release

  ==> Input File <==

--------------------------------------------------------------------------
#psi4
#
memory 32 gb

molecule  {
0 1
  C        0.0000190    -0.4262070     0.3077490
  C        1.0910041    -0.7962648    -0.3660133
  C        0.0000460     1.0638580     0.6808560
  C       -1.2544680    -0.8517020    -0.4669850
  C        2.5736910    -0.5549740     0.2429080
  C       -0.0001100     2.0271580    -0.5052670
  C       -2.5736650    -0.5550660     0.2429470
  H        0.0000220    -0.9878970     1.2560840
  H        1.1855160    -1.9310980    -0.6540960
  H        1.2530210    -0.3759140    -1.4557310
  H        0.8718230     1.2713760     1.3117180
  H       -0.8715850     1.2713570     1.3119230
  H       -1.2530320    -0.3758260    -1.4557010
  H       -1.1854530    -1.9310640    -0.6541770
  H        2.7601620     0.5190550     0.3238500
  H        3.4151550    -0.9947620    -0.3010430
  H        2.5741680    -0.9734350     1.2548350
  H        0.8834690     1.8928260    -1.1356920
  H       -0.0001040     3.0640380    -0.1556120
  H       -0.8838160     1.8927720    -1.1355030
  H       -3.4151150    -0.9948620    -0.3010190
  H       -2.7601920     0.5189470     0.3239600
  H       -2.5741050    -0.9735930     1.2548470
units angstrom
no_reorient  #important for SAPT in psi4, default
symmetry c1  #important for SAPT in psi4, default
}

set PROPERTIES_ORIGIN ["COM"]
properties('MP2/aug-cc-pvtz', properties = ['dipole'])
--------------------------------------------------------------------------

    Molecular point group: c1
  Charge       = 0
  Multiplicity = 1
  Basis Set: AUG-CC-PVTZ
    Blend: AUG-CC-PVTZ
  Basis Set: (AUG-CC-PVTZ AUX)
    Blend: AUG-CC-PVTZ-JKFIT

    Orbital Energies [Eh]
    ---------------------

    Doubly Occupied:

       1A    -11.223012     2A    -11.214738     3A    -11.214456
       4A    -11.213767     5A    -11.209754     6A    -11.209389
       7A    -11.208111     8A     -1.129235     9A     -1.010601
      10A     -1.002628    11A     -0.926789    12A     -0.852914
      13A     -0.819731    14A     -0.733477    15A     -0.653706
      16A     -0.639608    17A     -0.594608    18A     -0.573643
      19A     -0.561353    20A     -0.552221    21A     -0.545923
      22A     -0.517519    23A     -0.502176    24A     -0.498560
      25A     -0.474438    26A     -0.469391    27A     -0.462055
      28A     -0.418856    29A     -0.410492

  @DF-RHF Final Energy:  -274.44315997674028

   => Energetics <=

    Nuclear Repulsion Energy =            336.2405382046437126
    One-Electron Energy =               -1035.6810922606671284
    Two-Electron Energy =                 424.9973940792831399
    Total Energy =                       -274.4431599767402759
  Basis Set: (AUG-CC-PVTZ AUX)
    Blend: AUG-CC-PVTZ-RI
    Molecular point group: c1

    Geometry (in Angstrom), charge = 0, multiplicity = 1:

       Center              X                  Y                   Z               Mass
    ------------   -----------------  -----------------  -----------------  -----------------
         C            0.019613081274    -0.424015001421     0.293553517571    12.000000000000
         C            1.110598181274    -0.794072801421    -0.380208782429    12.000000000000
         C            0.019640081274     1.066049998579     0.666660517571    12.000000000000
         C           -1.234873918726    -0.849510001421    -0.481180482429    12.000000000000
         C            2.593285081274    -0.552782001421     0.228712517571    12.000000000000
         C            0.019484081274     2.029349998579    -0.519462482429    12.000000000000
         C           -2.554070918726    -0.552874001421     0.228751517571    12.000000000000
         H            0.019616081274    -0.985705001421     1.241888517571     1.007825032230
         H            1.205110081274    -1.928906001421    -0.668291482429     1.007825032230
         H            1.272615081274    -0.373722001421    -1.469926482429     1.007825032230
         H            0.891417081274     1.273567998579     1.297522517571     1.007825032230
         H           -0.851990918726     1.273548998579     1.297727517571     1.007825032230
         H           -1.233437918726    -0.373634001421    -1.469896482429     1.007825032230
         H           -1.165858918726    -1.928872001421    -0.668372482429     1.007825032230
         H            2.779756081274     0.521246998579     0.309654517571     1.007825032230
         H            3.434749081274    -0.992570001421    -0.315238482429     1.007825032230
         H            2.593762081274    -0.971243001421     1.240639517571     1.007825032230
         H            0.903063081274     1.895017998579    -1.149887482429     1.007825032230
         H            0.019490081274     3.066229998579    -0.169807482429     1.007825032230
         H           -0.864221918726     1.894963998579    -1.149698482429     1.007825032230
         H           -3.395520918726    -0.992670001421    -0.315214482429     1.007825032230
         H           -2.740597918726     0.521138998579     0.309764517571     1.007825032230
         H           -2.554510918726    -0.971401001421     1.240651517571     1.007825032230

  Basis Set: AUG-CC-PVTZ
    Blend: AUG-CC-PVTZ
  Basis Set: (AUG-CC-PVTZ AUX)
    Blend: AUG-CC-PVTZ-JKFIT
	 Reference Energy          =    -274.4431599767402759 [Eh]
	 Singles Energy            =      -0.0000000000000000 [Eh]
	 Same-Spin Energy          =      -0.2997343777546144 [Eh]
	 Opposite-Spin Energy      =      -1.1115092673442817 [Eh]
	 Correlation Energy        =      -1.4112436450988961 [Eh]
	 Total Energy              =    -275.8544036218391966 [Eh]

	 ================> DF-SCS-MP2 Energies <==================
	-----------------------------------------------------------
	 SCS Same-Spin Scale       =       0.3333333333333333 [-]
	 SCS Opposite-Spin Scale   =       1.2000000000000000 [-]
	 SCS Same-Spin Energy      =      -0.0999114592515381 [Eh]
	 SCS Opposite-Spin Energy  =      -1.3338111208131380 [Eh]
	 SCS Correlation Energy    =      -1.4337225800646762 [Eh]
	 SCS Total Energy          =    -275.8768825568049579 [Eh]
	-----------------------------------------------------------

  Dipole Moment: [D]
     X:    -0.1044      Y:    -0.0170      Z:     0.0856     Total:     0.1361

*** Psi4 exiting successfully. Buy a developer a beer!
