                               Psi4 1.3.2 release

  ==> Input File <==

--------------------------------------------------------------------------
#psi4
#
memory 32 gb

molecule  {
0 1
  C        0.0000190    -0.4262070     0.3077490
  C        1.2403130    -0.8183635    -0.5064190
  C        0.0000460     1.0638580     0.6808560
  C       -1.2544680    -0.8517020    -0.4669850
  C        2.5736910    -0.5549740     0.2429080
  C       -0.0001100     2.0271580    -0.5052670
  C       -2.5736650    -0.5550660     0.2429470
  H        0.0000220    -0.9878970     1.2560840
  H        1.1855160    -1.9310980    -0.6540960
  H        1.2530210    -0.3759140    -1.4557310
  H        0.8718230     1.2713760     1.3117180
  H       -0.8715850     1.2713570     1.3119230
  H       -1.2530320    -0.3758260    -1.4557010
  H       -1.1854530    -1.9310640    -0.6541770
  H        2.7601620     0.5190550     0.3238500
  H        3.4151550    -0.9947620    -0.3010430
  H        2.5741680    -0.9734350     1.2548350
  H        0.8834690     1.8928260    -1.1356920
  H       -0.0001040     3.0640380    -0.1556120
  H       -0.8838160     1.8927720    -1.1355030
  H       -3.4151150    -0.9948620    -0.3010190
  H       -2.7601920     0.5189470     0.3239600
  H       -2.5741050    -0.9735930     1.2548470
units angstrom
no_reorient  #important for SAPT in psi4, default
symmetry c1  #important for SAPT in psi4, default
}

set PROPERTIES_ORIGIN ["COM"]
properties('MP2/aug-cc-pvtz', properties = ['dipole'])
--------------------------------------------------------------------------

    Molecular point group: c1
  Charge       = 0
  Multiplicity = 1
  Basis Set: AUG-CC-PVTZ
    Blend: AUG-CC-PVTZ
  Basis Set: (AUG-CC-PVTZ AUX)
    Blend: AUG-CC-PVTZ-JKFIT

    Orbital Energies [Eh]
    ---------------------

    Doubly Occupied:

       1A    -11.217451     2A    -11.212131     3A    -11.211901
       4A    -11.211443     5A    -11.209593     6A    -11.209016
       7A    -11.208652     8A     -1.101561     9A     -1.010680
      10A     -1.002906    11A     -0.917660    12A     -0.851330
      13A     -0.818089    14A     -0.736942    15A     -0.646701
      16A     -0.631968    17A     -0.596923    18A     -0.561097
      19A     -0.557202    20A     -0.556118    21A     -0.543452
      22A     -0.515628    23A     -0.505439    24A     -0.496756
      25A     -0.478719    26A     -0.472389    27A     -0.447293
      28A     -0.431754    29A     -0.430543

  @DF-RHF Final Energy:  -274.48871494730054

   => Energetics <=

    Nuclear Repulsion Energy =            333.6849231797189645
    One-Electron Energy =               -1030.7646035922514329
    Two-Electron Energy =                 422.5909654652319887
    Total Energy =                       -274.4887149473005366
  Basis Set: (AUG-CC-PVTZ AUX)
    Blend: AUG-CC-PVTZ-RI
    Molecular point group: c1

    Geometry (in Angstrom), charge = 0, multiplicity = 1:

       Center              X                  Y                   Z               Mass
    ------------   -----------------  -----------------  -----------------  -----------------
         C            0.001718417485    -0.421366473392     0.310381133309    12.000000000000
         C            1.242012417485    -0.813522973392    -0.503786866691    12.000000000000
         C            0.001745417485     1.068698526608     0.683488133309    12.000000000000
         C           -1.252768582515    -0.846861473392    -0.464352866691    12.000000000000
         C            2.575390417485    -0.550133473392     0.245540133309    12.000000000000
         C            0.001589417485     2.031998526608    -0.502634866691    12.000000000000
         C           -2.571965582515    -0.550225473392     0.245579133309    12.000000000000
         H            0.001721417485    -0.983056473392     1.258716133309     1.007825032230
         H            1.187215417485    -1.926257473392    -0.651463866691     1.007825032230
         H            1.254720417485    -0.371073473392    -1.453098866691     1.007825032230
         H            0.873522417485     1.276216526608     1.314350133309     1.007825032230
         H           -0.869885582515     1.276197526608     1.314555133309     1.007825032230
         H           -1.251332582515    -0.370985473392    -1.453068866691     1.007825032230
         H           -1.183753582515    -1.926223473392    -0.651544866691     1.007825032230
         H            2.761861417485     0.523895526608     0.326482133309     1.007825032230
         H            3.416854417485    -0.989921473392    -0.298410866691     1.007825032230
         H            2.575867417485    -0.968594473392     1.257467133309     1.007825032230
         H            0.885168417485     1.897666526608    -1.133059866691     1.007825032230
         H            0.001595417485     3.068878526608    -0.152979866691     1.007825032230
         H           -0.882116582515     1.897612526608    -1.132870866691     1.007825032230
         H           -3.413415582515    -0.990021473392    -0.298386866691     1.007825032230
         H           -2.758492582515     0.523787526608     0.326592133309     1.007825032230
         H           -2.572405582515    -0.968752473392     1.257479133309     1.007825032230

  Basis Set: AUG-CC-PVTZ
    Blend: AUG-CC-PVTZ
  Basis Set: (AUG-CC-PVTZ AUX)
    Blend: AUG-CC-PVTZ-JKFIT
	 Reference Energy          =    -274.4887149473005366 [Eh]
	 Singles Energy            =      -0.0000000000000000 [Eh]
	 Same-Spin Energy          =      -0.2967850916384160 [Eh]
	 Opposite-Spin Energy      =      -1.1073420581359030 [Eh]
	 Correlation Energy        =      -1.4041271497743191 [Eh]
	 Total Energy              =    -275.8928420970748334 [Eh]

	 ================> DF-SCS-MP2 Energies <==================
	-----------------------------------------------------------
	 SCS Same-Spin Scale       =       0.3333333333333333 [-]
	 SCS Opposite-Spin Scale   =       1.2000000000000000 [-]
	 SCS Same-Spin Energy      =      -0.0989283638794720 [Eh]
	 SCS Opposite-Spin Energy  =      -1.3288104697630836 [Eh]
	 SCS Correlation Energy    =      -1.4277388336425556 [Eh]
	 SCS Total Energy          =    -275.9164537809430726 [Eh]
	-----------------------------------------------------------

  Dipole Moment: [D]
     X:    -0.0069      Y:    -0.0472      Z:     0.0113     Total:     0.0490

*** Psi4 exiting successfully. Buy a developer a beer!
