                               Psi4 1.3.2 release

  ==> Input File <==

--------------------------------------------------------------------------
#psi4
#
memory 32 gb

molecule  {
0 1
  C        0.0000190    -0.4262070     0.3077490
  C        1.2050328    -0.7973343    -0.3897939
  C        0.0000460     1.0638580     0.6808560
  C       -1.2544680    -0.8517020    -0.4669850
  C        2.5736910    -0.5549740     0.2429080
  C       -0.0001100     2.0271580    -0.5052670
  C       -2.5736650    -0.5550660     0.2429470
  H        0.0000220    -0.9878970     1.2560840
  H        1.1855160    -1.9310980    -0.6540960
  H        1.2530210    -0.3759140    -1.4557310
  H        0.8718230     1.2713760     1.3117180
  H       -0.8715850     1.2713570     1.3119230
  H       -1.2530320    -0.3758260    -1.4557010
  H       -1.1854530    -1.9310640    -0.6541770
  H        2.7601620     0.5190550     0.3238500
  H        3.4151550    -0.9947620    -0.3010430
  H        2.5741680    -0.9734350     1.2548350
  H        0.8834690     1.8928260    -1.1356920
  H       -0.0001040     3.0640380    -0.1556120
  H       -0.8838160     1.8927720    -1.1355030
  H       -3.4151150    -0.9948620    -0.3010190
  H       -2.7601920     0.5189470     0.3239600
  H       -2.5741050    -0.9735930     1.2548470
units angstrom
no_reorient  #important for SAPT in psi4, default
symmetry c1  #important for SAPT in psi4, default
}

set PROPERTIES_ORIGIN ["COM"]
properties('MP2/aug-cc-pvtz', properties = ['dipole'])
--------------------------------------------------------------------------

    Molecular point group: c1
  Charge       = 0
  Multiplicity = 1
  Basis Set: AUG-CC-PVTZ
    Blend: AUG-CC-PVTZ
  Basis Set: (AUG-CC-PVTZ AUX)
    Blend: AUG-CC-PVTZ-JKFIT

    Orbital Energies [Eh]
    ---------------------

    Doubly Occupied:

       1A    -11.219051     2A    -11.214435     3A    -11.213820
       4A    -11.212193     5A    -11.210724     6A    -11.209943
       7A    -11.208739     8A     -1.113061     9A     -1.014441
      10A     -1.004207    11A     -0.925408    12A     -0.849923
      13A     -0.816570    14A     -0.733074    15A     -0.647873
      16A     -0.636682    17A     -0.595587    18A     -0.565030
      19A     -0.561000    20A     -0.557380    21A     -0.549171
      22A     -0.515928    23A     -0.500081    24A     -0.494813
      25A     -0.478826    26A     -0.466268    27A     -0.452706
      28A     -0.432755    29A     -0.424049

  @DF-RHF Final Energy:  -274.47851323235705

   => Energetics <=

    Nuclear Repulsion Energy =            335.0643759456745556
    One-Electron Energy =               -1033.4383053065303102
    Two-Electron Energy =                 423.8954161284987094
    Total Energy =                       -274.4785132323570451
  Basis Set: (AUG-CC-PVTZ AUX)
    Blend: AUG-CC-PVTZ-RI
    Molecular point group: c1

    Geometry (in Angstrom), charge = 0, multiplicity = 1:

       Center              X                  Y                   Z               Mass
    ------------   -----------------  -----------------  -----------------  -----------------
         C            0.005946747594    -0.423886821902     0.296403621226    12.000000000000
         C            1.210960547594    -0.795014121902    -0.401139278774    12.000000000000
         C            0.005973747594     1.066178178098     0.669510621226    12.000000000000
         C           -1.248540252406    -0.849381821902    -0.478330378774    12.000000000000
         C            2.579618747594    -0.552653821902     0.231562621226    12.000000000000
         C            0.005817747594     2.029478178098    -0.516612378774    12.000000000000
         C           -2.567737252406    -0.552745821902     0.231601621226    12.000000000000
         H            0.005949747594    -0.985576821902     1.244738621226     1.007825032230
         H            1.191443747594    -1.928777821902    -0.665441378774     1.007825032230
         H            1.258948747594    -0.373593821902    -1.467076378774     1.007825032230
         H            0.877750747594     1.273696178098     1.300372621226     1.007825032230
         H           -0.865657252406     1.273677178098     1.300577621226     1.007825032230
         H           -1.247104252406    -0.373505821902    -1.467046378774     1.007825032230
         H           -1.179525252406    -1.928743821902    -0.665522378774     1.007825032230
         H            2.766089747594     0.521375178098     0.312504621226     1.007825032230
         H            3.421082747594    -0.992441821902    -0.312388378774     1.007825032230
         H            2.580095747594    -0.971114821902     1.243489621226     1.007825032230
         H            0.889396747594     1.895146178098    -1.147037378774     1.007825032230
         H            0.005823747594     3.066358178098    -0.166957378774     1.007825032230
         H           -0.877888252406     1.895092178098    -1.146848378774     1.007825032230
         H           -3.409187252406    -0.992541821902    -0.312364378774     1.007825032230
         H           -2.754264252406     0.521267178098     0.312614621226     1.007825032230
         H           -2.568177252406    -0.971272821902     1.243501621226     1.007825032230

  Basis Set: AUG-CC-PVTZ
    Blend: AUG-CC-PVTZ
  Basis Set: (AUG-CC-PVTZ AUX)
    Blend: AUG-CC-PVTZ-JKFIT
	 Reference Energy          =    -274.4785132323570451 [Eh]
	 Singles Energy            =      -0.0000000000000000 [Eh]
	 Same-Spin Energy          =      -0.2979899054892987 [Eh]
	 Opposite-Spin Energy      =      -1.1088032763194806 [Eh]
	 Correlation Energy        =      -1.4067931818087793 [Eh]
	 Total Energy              =    -275.8853064141658251 [Eh]

	 ================> DF-SCS-MP2 Energies <==================
	-----------------------------------------------------------
	 SCS Same-Spin Scale       =       0.3333333333333333 [-]
	 SCS Opposite-Spin Scale   =       1.2000000000000000 [-]
	 SCS Same-Spin Energy      =      -0.0993299684964329 [Eh]
	 SCS Opposite-Spin Energy  =      -1.3305639315833766 [Eh]
	 SCS Correlation Energy    =      -1.4298939000798094 [Eh]
	 SCS Total Energy          =    -275.9084071324368779 [Eh]
	-----------------------------------------------------------

  Dipole Moment: [D]
     X:    -0.0250      Y:    -0.0392      Z:     0.0619     Total:     0.0774

*** Psi4 exiting successfully. Buy a developer a beer!
