                               Psi4 1.3.2 release

  ==> Input File <==

--------------------------------------------------------------------------
#psi4
#
memory 32 gb

molecule  {
0 1
  C        0.0184607    -0.3759184     0.3081383
  C        1.2544970    -0.8517210    -0.4669820
  C        0.0000460     1.0638580     0.6808560
  C       -1.2544680    -0.8517020    -0.4669850
  C        2.5736910    -0.5549740     0.2429080
  C       -0.0001100     2.0271580    -0.5052670
  C       -2.5736650    -0.5550660     0.2429470
  H        0.0000220    -0.9878970     1.2560840
  H        1.1855160    -1.9310980    -0.6540960
  H        1.2530210    -0.3759140    -1.4557310
  H        0.8718230     1.2713760     1.3117180
  H       -0.8715850     1.2713570     1.3119230
  H       -1.2530320    -0.3758260    -1.4557010
  H       -1.1854530    -1.9310640    -0.6541770
  H        2.7601620     0.5190550     0.3238500
  H        3.4151550    -0.9947620    -0.3010430
  H        2.5741680    -0.9734350     1.2548350
  H        0.8834690     1.8928260    -1.1356920
  H       -0.0001040     3.0640380    -0.1556120
  H       -0.8838160     1.8927720    -1.1355030
  H       -3.4151150    -0.9948620    -0.3010190
  H       -2.7601920     0.5189470     0.3239600
  H       -2.5741050    -0.9735930     1.2548470
units angstrom
no_reorient  #important for SAPT in psi4, default
symmetry c1  #important for SAPT in psi4, default
}

set PROPERTIES_ORIGIN ["COM"]
properties('MP2/aug-cc-pvtz', properties = ['dipole'])
--------------------------------------------------------------------------

    Molecular point group: c1
  Charge       = 0
  Multiplicity = 1
  Basis Set: AUG-CC-PVTZ
    Blend: AUG-CC-PVTZ
  Basis Set: (AUG-CC-PVTZ AUX)
    Blend: AUG-CC-PVTZ-JKFIT

    Orbital Energies [Eh]
    ---------------------

    Doubly Occupied:

       1A    -11.218695     2A    -11.213496     3A    -11.213010
       4A    -11.210909     5A    -11.209103     6A    -11.208499
       7A    -11.208459     8A     -1.104011     9A     -1.012150
      10A     -1.005924    11A     -0.918004    12A     -0.854009
      13A     -0.814993    14A     -0.731187    15A     -0.648831
      16A     -0.636294    17A     -0.592605    18A     -0.564607
      19A     -0.558053    20A     -0.555240    21A     -0.545080
      22A     -0.517892    23A     -0.500214    24A     -0.496517
      25A     -0.483906    26A     -0.470857    27A     -0.449476
      28A     -0.432823    29A     -0.424521

  @DF-RHF Final Energy:  -274.48845574737959

   => Energetics <=

    Nuclear Repulsion Energy =            333.9307587382103861
    One-Electron Energy =               -1031.2396969520207222
    Two-Electron Energy =                 422.8204824664306898
    Total Energy =                       -274.4884557473795894
  Basis Set: (AUG-CC-PVTZ AUX)
    Blend: AUG-CC-PVTZ-RI
    Molecular point group: c1

    Geometry (in Angstrom), charge = 0, multiplicity = 1:

       Center              X                  Y                   Z               Mass
    ------------   -----------------  -----------------  -----------------  -----------------
         C            0.016249929061    -0.373107064834     0.305997253355    12.000000000000
         C            1.252286229061    -0.848909664834    -0.469123046645    12.000000000000
         C           -0.002164770939     1.066669335166     0.678714953355    12.000000000000
         C           -1.256678770939    -0.848890664834    -0.469126046645    12.000000000000
         C            2.571480229061    -0.552162664834     0.240766953355    12.000000000000
         C           -0.002320770939     2.029969335166    -0.507408046645    12.000000000000
         C           -2.575875770939    -0.552254664834     0.240805953355    12.000000000000
         H           -0.002188770939    -0.985085664834     1.253942953355     1.007825032230
         H            1.183305229061    -1.928286664834    -0.656237046645     1.007825032230
         H            1.250810229061    -0.373102664834    -1.457872046645     1.007825032230
         H            0.869612229061     1.274187335166     1.309576953355     1.007825032230
         H           -0.873795770939     1.274168335166     1.309781953355     1.007825032230
         H           -1.255242770939    -0.373014664834    -1.457842046645     1.007825032230
         H           -1.187663770939    -1.928252664834    -0.656318046645     1.007825032230
         H            2.757951229061     0.521866335166     0.321708953355     1.007825032230
         H            3.412944229061    -0.991950664834    -0.303184046645     1.007825032230
         H            2.571957229061    -0.970623664834     1.252693953355     1.007825032230
         H            0.881258229061     1.895637335166    -1.137833046645     1.007825032230
         H           -0.002314770939     3.066849335166    -0.157753046645     1.007825032230
         H           -0.886026770939     1.895583335166    -1.137644046645     1.007825032230
         H           -3.417325770939    -0.992050664834    -0.303160046645     1.007825032230
         H           -2.762402770939     0.521758335166     0.321818953355     1.007825032230
         H           -2.576315770939    -0.970781664834     1.252705953355     1.007825032230

  Basis Set: AUG-CC-PVTZ
    Blend: AUG-CC-PVTZ
  Basis Set: (AUG-CC-PVTZ AUX)
    Blend: AUG-CC-PVTZ-JKFIT
	 Reference Energy          =    -274.4884557473795894 [Eh]
	 Singles Energy            =      -0.0000000000000000 [Eh]
	 Same-Spin Energy          =      -0.2971239302356247 [Eh]
	 Opposite-Spin Energy      =      -1.1076868627901244 [Eh]
	 Correlation Energy        =      -1.4048107930257490 [Eh]
	 Total Energy              =    -275.8932665404053637 [Eh]

	 ================> DF-SCS-MP2 Energies <==================
	-----------------------------------------------------------
	 SCS Same-Spin Scale       =       0.3333333333333333 [-]
	 SCS Opposite-Spin Scale   =       1.2000000000000000 [-]
	 SCS Same-Spin Energy      =      -0.0990413100785416 [Eh]
	 SCS Opposite-Spin Energy  =      -1.3292242353481492 [Eh]
	 SCS Correlation Energy    =      -1.4282655454266906 [Eh]
	 SCS Total Energy          =    -275.9167212928063009 [Eh]
	-----------------------------------------------------------

  Dipole Moment: [D]
     X:     0.0074      Y:    -0.0375      Z:     0.0158     Total:     0.0414

*** Psi4 exiting successfully. Buy a developer a beer!
