                               Psi4 1.4a3.dev225

  ==> Input File <==

--------------------------------------------------------------------------
#psi4
#
memory 32 gb

molecule  {
0 1
  C        0.0000000    -0.4260750     0.3076100
  C        1.2544720    -0.8514380    -0.4671590
  C        0.0000000     1.0639900     0.6808960
  C       -1.2544720    -0.8514380    -0.4671590
  C        2.5736720    -0.5554960     0.2430540
  C        0.0000000     2.0274100    -0.5051140
  C       -2.5736720    -0.5554960     0.2430540
  H        0.0000000    -0.9878700     1.2558670
  H        1.1852130    -1.9306880    -0.6549460
  H        1.2532300    -0.3750670    -1.4556400
  H        0.8717050     1.2713650     1.3118990
  H       -0.8717030     1.2713660     1.3119000
  H       -1.2532300    -0.3750660    -1.4556400
  H       -1.1852130    -1.9306880    -0.6549460
  H        2.7571779     0.4987699     0.3229529
  H        3.4150690    -0.9954020    -0.3009240
  H        2.5738760    -0.9743250     1.2548280
  H        0.8836400     1.8931300    -1.1354610
  H        0.0000000     3.0642610    -0.1553580
  H       -0.8836410     1.8931290    -1.1354600
  H       -3.4150690    -0.9954020    -0.3009240
  H       -2.7605980     0.5184190     0.3244430
  H       -2.5738760    -0.9743270     1.2548280
units angstrom
no_reorient  #important for SAPT in psi4, default
symmetry c1  #important for SAPT in psi4, default
}

set PROPERTIES_ORIGIN ["COM"]
properties('MP2/aug-cc-pvtz', properties = ['dipole'])
--------------------------------------------------------------------------

    Molecular point group: c1
  Charge       = 0
  Multiplicity = 1
  Basis Set: AUG-CC-PVTZ
    Blend: AUG-CC-PVTZ
  Basis Set: (AUG-CC-PVTZ AUX)
    Blend: AUG-CC-PVTZ-JKFIT

    Orbital Energies [Eh]
    ---------------------

    Doubly Occupied:

       1A    -11.217173     2A    -11.212525     3A    -11.212309
       4A    -11.211908     5A    -11.208907     6A    -11.208756
       7A    -11.206417     8A     -1.101690     9A     -1.013375
      10A     -1.004144    11A     -0.919397    12A     -0.850564
      13A     -0.817353    14A     -0.734855    15A     -0.647271
      16A     -0.633569    17A     -0.594955    18A     -0.562264
      19A     -0.558316    20A     -0.557303    21A     -0.545783
      22A     -0.517003    23A     -0.500845    24A     -0.495913
      25A     -0.483668    26A     -0.470558    27A     -0.442166
      28A     -0.434233    29A     -0.433966

  @DF-RHF Final Energy:  -274.49180236866675

   => Energetics <=

    Nuclear Repulsion Energy =            333.7276110186122082
    One-Electron Energy =               -1030.8444598855462573
    Two-Electron Energy =                 422.6250464982673520
    Total Energy =                       -274.4918023686667539
  Basis Set: (AUG-CC-PVTZ AUX)
    Blend: AUG-CC-PVTZ-RI
    Molecular point group: c1

    Geometry (in Angstrom), charge = 0, multiplicity = 1:

       Center              X                  Y                   Z               Mass
    ------------   -----------------  -----------------  -----------------  -----------------
         C            0.000034415457    -0.417045397473     0.305533205697    12.000000000000
         C            1.254506415457    -0.842408397473    -0.469235794303    12.000000000000
         C            0.000034415457     1.073019602527     0.678819205697    12.000000000000
         C           -1.254437584543    -0.842408397473    -0.469235794303    12.000000000000
         C            2.573706415457    -0.546466397473     0.240977205697    12.000000000000
         C            0.000034415457     2.036439602527    -0.507190794303    12.000000000000
         C           -2.573637584543    -0.546466397473     0.240977205697    12.000000000000
         H            0.000034415457    -0.978840397473     1.253790205697     1.007825032230
         H            1.185247415457    -1.921658397473    -0.657022794303     1.007825032230
         H            1.253264415457    -0.366037397473    -1.457716794303     1.007825032230
         H            0.871739415457     1.280394602527     1.309822205697     1.007825032230
         H           -0.871668584543     1.280395602527     1.309823205697     1.007825032230
         H           -1.253195584543    -0.366036397473    -1.457716794303     1.007825032230
         H           -1.185178584543    -1.921658397473    -0.657022794303     1.007825032230
         H            2.757212315457     0.507799502527     0.320876105697     1.007825032230
         H            3.415103415457    -0.986372397473    -0.303000794303     1.007825032230
         H            2.573910415457    -0.965295397473     1.252751205697     1.007825032230
         H            0.883674415457     1.902159602527    -1.137537794303     1.007825032230
         H            0.000034415457     3.073290602527    -0.157434794303     1.007825032230
         H           -0.883606584543     1.902158602527    -1.137536794303     1.007825032230
         H           -3.415034584543    -0.986372397473    -0.303000794303     1.007825032230
         H           -2.760563584543     0.527448602527     0.322366205697     1.007825032230
         H           -2.573841584543    -0.965297397473     1.252751205697     1.007825032230

  Basis Set: AUG-CC-PVTZ
    Blend: AUG-CC-PVTZ
  Basis Set: (AUG-CC-PVTZ AUX)
    Blend: AUG-CC-PVTZ-JKFIT
	 Reference Energy          =    -274.4918023686667539 [Eh]
	 Singles Energy            =      -0.0000000000000000 [Eh]
	 Same-Spin Energy          =      -0.2968377341418301 [Eh]
	 Opposite-Spin Energy      =      -1.1071186947433405 [Eh]
	 Correlation Energy        =      -1.4039564288851705 [Eh]
	 Total Energy              =    -275.8957587975519345 [Eh]

	 ================> DF-SCS-MP2 Energies <==================
	-----------------------------------------------------------
	 SCS Same-Spin Scale       =       0.3333333333333333 [-]
	 SCS Opposite-Spin Scale   =       1.2000000000000000 [-]
	 SCS Same-Spin Energy      =      -0.0989459113806100 [Eh]
	 SCS Opposite-Spin Energy  =      -1.3285424336920084 [Eh]
	 SCS Correlation Energy    =      -1.4274883450726183 [Eh]
	 SCS Total Energy          =    -275.9192907137393718 [Eh]
	-----------------------------------------------------------

  Dipole Moment: [D]
     X:     0.0049      Y:    -0.0543      Z:     0.0296     Total:     0.0620

*** Psi4 exiting successfully. Buy a developer a beer!
