                               Psi4 1.3.2 release

  ==> Input File <==

--------------------------------------------------------------------------
#psi4
#
memory 32 gb

molecule  {
0 1
  C       -0.0584757    -0.4637768     0.2262620
  C        1.2544970    -0.8517210    -0.4669820
  C        0.0000460     1.0638580     0.6808560
  C       -1.2544680    -0.8517020    -0.4669850
  C        2.5736910    -0.5549740     0.2429080
  C       -0.0001100     2.0271580    -0.5052670
  C       -2.5736650    -0.5550660     0.2429470
  H        0.0000220    -0.9878970     1.2560840
  H        1.1855160    -1.9310980    -0.6540960
  H        1.2530210    -0.3759140    -1.4557310
  H        0.8718230     1.2713760     1.3117180
  H       -0.8715850     1.2713570     1.3119230
  H       -1.2530320    -0.3758260    -1.4557010
  H       -1.1854530    -1.9310640    -0.6541770
  H        2.7601620     0.5190550     0.3238500
  H        3.4151550    -0.9947620    -0.3010430
  H        2.5741680    -0.9734350     1.2548350
  H        0.8834690     1.8928260    -1.1356920
  H       -0.0001040     3.0640380    -0.1556120
  H       -0.8838160     1.8927720    -1.1355030
  H       -3.4151150    -0.9948620    -0.3010190
  H       -2.7601920     0.5189470     0.3239600
  H       -2.5741050    -0.9735930     1.2548470
units angstrom
no_reorient  #important for SAPT in psi4, default
symmetry c1  #important for SAPT in psi4, default
}

set PROPERTIES_ORIGIN ["COM"]
properties('MP2/aug-cc-pvtz', properties = ['dipole'])
--------------------------------------------------------------------------

    Molecular point group: c1
  Charge       = 0
  Multiplicity = 1
  Basis Set: AUG-CC-PVTZ
    Blend: AUG-CC-PVTZ
  Basis Set: (AUG-CC-PVTZ AUX)
    Blend: AUG-CC-PVTZ-JKFIT

    Orbital Energies [Eh]
    ---------------------

    Doubly Occupied:

       1A    -11.220768     2A    -11.213682     3A    -11.213599
       4A    -11.211339     5A    -11.211229     6A    -11.210055
       7A    -11.207142     8A     -1.107536     9A     -1.017438
      10A     -1.002992    11A     -0.921969    12A     -0.846144
      13A     -0.824334    14A     -0.729166    15A     -0.648795
      16A     -0.632981    17A     -0.597917    18A     -0.564484
      19A     -0.560000    20A     -0.558392    21A     -0.544797
      22A     -0.516395    23A     -0.500525    24A     -0.495863
      25A     -0.484436    26A     -0.473355    27A     -0.459430
      28A     -0.426514    29A     -0.414576

  @DF-RHF Final Energy:  -274.47885636896740

   => Energetics <=

    Nuclear Repulsion Energy =            333.9746625927692207
    One-Electron Energy =               -1031.2753340228382513
    Two-Electron Energy =                 422.8218150611016881
    Total Energy =                       -274.4788563689673992
  Basis Set: (AUG-CC-PVTZ AUX)
    Blend: AUG-CC-PVTZ-RI
    Molecular point group: c1

    Geometry (in Angstrom), charge = 0, multiplicity = 1:

       Center              X                  Y                   Z               Mass
    ------------   -----------------  -----------------  -----------------  -----------------
         C           -0.051465647457    -0.450435640228     0.233933823591    12.000000000000
         C            1.261507052543    -0.838379840228    -0.459310176409    12.000000000000
         C            0.007056052543     1.077199159772     0.688527823591    12.000000000000
         C           -1.247457947457    -0.838360840228    -0.459313176409    12.000000000000
         C            2.580701052543    -0.541632840228     0.250579823591    12.000000000000
         C            0.006900052543     2.040499159772    -0.497595176409    12.000000000000
         C           -2.566654947457    -0.541724840228     0.250618823591    12.000000000000
         H            0.007032052543    -0.974555840228     1.263755823591     1.007825032230
         H            1.192526052543    -1.917756840228    -0.646424176409     1.007825032230
         H            1.260031052543    -0.362572840228    -1.448059176409     1.007825032230
         H            0.878833052543     1.284717159772     1.319389823591     1.007825032230
         H           -0.864574947457     1.284698159772     1.319594823591     1.007825032230
         H           -1.246021947457    -0.362484840228    -1.448029176409     1.007825032230
         H           -1.178442947457    -1.917722840228    -0.646505176409     1.007825032230
         H            2.767172052543     0.532396159772     0.331521823591     1.007825032230
         H            3.422165052543    -0.981420840228    -0.293371176409     1.007825032230
         H            2.581178052543    -0.960093840228     1.262506823591     1.007825032230
         H            0.890479052543     1.906167159772    -1.128020176409     1.007825032230
         H            0.006906052543     3.077379159772    -0.147940176409     1.007825032230
         H           -0.876805947457     1.906113159772    -1.127831176409     1.007825032230
         H           -3.408104947457    -0.981520840228    -0.293347176409     1.007825032230
         H           -2.753181947457     0.532288159772     0.331631823591     1.007825032230
         H           -2.567094947457    -0.960251840228     1.262518823591     1.007825032230

  Basis Set: AUG-CC-PVTZ
    Blend: AUG-CC-PVTZ
  Basis Set: (AUG-CC-PVTZ AUX)
    Blend: AUG-CC-PVTZ-JKFIT
	 Reference Energy          =    -274.4788563689673992 [Eh]
	 Singles Energy            =      -0.0000000000000000 [Eh]
	 Same-Spin Energy          =      -0.2976506409428550 [Eh]
	 Opposite-Spin Energy      =      -1.1085054414011573 [Eh]
	 Correlation Energy        =      -1.4061560823440122 [Eh]
	 Total Energy              =    -275.8850124513114110 [Eh]

	 ================> DF-SCS-MP2 Energies <==================
	-----------------------------------------------------------
	 SCS Same-Spin Scale       =       0.3333333333333333 [-]
	 SCS Opposite-Spin Scale   =       1.2000000000000000 [-]
	 SCS Same-Spin Energy      =      -0.0992168803142850 [Eh]
	 SCS Opposite-Spin Energy  =      -1.3302065296813887 [Eh]
	 SCS Correlation Energy    =      -1.4294234099956737 [Eh]
	 SCS Total Energy          =    -275.9082797789630490 [Eh]
	-----------------------------------------------------------

  Dipole Moment: [D]
     X:    -0.0226      Y:    -0.0785      Z:     0.0078     Total:     0.0821

*** Psi4 exiting successfully. Buy a developer a beer!
