                               Psi4 1.4a3.dev225

  ==> Input File <==

--------------------------------------------------------------------------
#psi4
#
memory 32 gb

molecule  {
0 1
  C        0.0000000    -0.4260750     0.3076100
  C        1.2544720    -0.8514380    -0.4671590
  C        0.0000000     1.0639900     0.6808960
  C       -1.2544720    -0.8514380    -0.4671590
  C        2.5736720    -0.5554960     0.2430540
  C        0.0000000     2.0274100    -0.5051140
  C       -2.5736720    -0.5554960     0.2430540
  H        0.0000000    -0.9878700     1.2558670
  H        1.1820581    -1.9798497    -0.6635000
  H        1.2532300    -0.3750670    -1.4556400
  H        0.8717050     1.2713650     1.3118990
  H       -0.8717030     1.2713660     1.3119000
  H       -1.2532300    -0.3750660    -1.4556400
  H       -1.1852130    -1.9306880    -0.6549460
  H        2.7605980     0.5184190     0.3244420
  H        3.4150690    -0.9954020    -0.3009240
  H        2.5738760    -0.9743250     1.2548280
  H        0.8836400     1.8931300    -1.1354610
  H        0.0000000     3.0642610    -0.1553580
  H       -0.8836410     1.8931290    -1.1354600
  H       -3.4150690    -0.9954020    -0.3009240
  H       -2.7605980     0.5184190     0.3244430
  H       -2.5738760    -0.9743270     1.2548280
units angstrom
no_reorient  #important for SAPT in psi4, default
symmetry c1  #important for SAPT in psi4, default
}

set PROPERTIES_ORIGIN ["COM"]
properties('MP2/aug-cc-pvtz', properties = ['dipole'])
--------------------------------------------------------------------------

    Molecular point group: c1
  Charge       = 0
  Multiplicity = 1
  Basis Set: AUG-CC-PVTZ
    Blend: AUG-CC-PVTZ
  Basis Set: (AUG-CC-PVTZ AUX)
    Blend: AUG-CC-PVTZ-JKFIT

    Orbital Energies [Eh]
    ---------------------

    Doubly Occupied:

       1A    -11.218926     2A    -11.217663     3A    -11.212522
       4A    -11.212345     5A    -11.209537     6A    -11.209054
       7A    -11.208939     8A     -1.101378     9A     -1.012241
      10A     -1.003762    11A     -0.919033    12A     -0.849735
      13A     -0.814743    14A     -0.734105    15A     -0.645423
      16A     -0.632469    17A     -0.594688    18A     -0.561369
      19A     -0.557695    20A     -0.557187    21A     -0.546204
      22A     -0.516401    23A     -0.500522    24A     -0.495929
      25A     -0.481789    26A     -0.468560    27A     -0.442048
      28A     -0.434787    29A     -0.433022

  @DF-RHF Final Energy:  -274.48969329750594

   => Energetics <=

    Nuclear Repulsion Energy =            333.4207263041799365
    One-Electron Energy =               -1030.2366902215471782
    Two-Electron Energy =                 422.3262706198613614
    Total Energy =                       -274.4896932975059372
  Basis Set: (AUG-CC-PVTZ AUX)
    Blend: AUG-CC-PVTZ-RI
    Molecular point group: c1

    Geometry (in Angstrom), charge = 0, multiplicity = 1:

       Center              X                  Y                   Z               Mass
    ------------   -----------------  -----------------  -----------------  -----------------
         C            0.000031746047    -0.416748334028     0.305604318494    12.000000000000
         C            1.254503746047    -0.842111334028    -0.469164681506    12.000000000000
         C            0.000031746047     1.073316665972     0.678890318494    12.000000000000
         C           -1.254440253953    -0.842111334028    -0.469164681506    12.000000000000
         C            2.573703746047    -0.546169334028     0.241048318494    12.000000000000
         C            0.000031746047     2.036736665972    -0.507119681506    12.000000000000
         C           -2.573640253953    -0.546169334028     0.241048318494    12.000000000000
         H            0.000031746047    -0.978543334028     1.253861318494     1.007825032230
         H            1.182089846047    -1.970523034028    -0.665505681506     1.007825032230
         H            1.253261746047    -0.365740334028    -1.457645681506     1.007825032230
         H            0.871736746047     1.280691665972     1.309893318494     1.007825032230
         H           -0.871671253953     1.280692665972     1.309894318494     1.007825032230
         H           -1.253198253953    -0.365739334028    -1.457645681506     1.007825032230
         H           -1.185181253953    -1.921361334028    -0.656951681506     1.007825032230
         H            2.760629746047     0.527745665972     0.322436318494     1.007825032230
         H            3.415100746047    -0.986075334028    -0.302929681506     1.007825032230
         H            2.573907746047    -0.964998334028     1.252822318494     1.007825032230
         H            0.883671746047     1.902456665972    -1.137466681506     1.007825032230
         H            0.000031746047     3.073587665972    -0.157363681506     1.007825032230
         H           -0.883609253953     1.902455665972    -1.137465681506     1.007825032230
         H           -3.415037253953    -0.986075334028    -0.302929681506     1.007825032230
         H           -2.760566253953     0.527745665972     0.322437318494     1.007825032230
         H           -2.573844253953    -0.965000334028     1.252822318494     1.007825032230

  Basis Set: AUG-CC-PVTZ
    Blend: AUG-CC-PVTZ
  Basis Set: (AUG-CC-PVTZ AUX)
    Blend: AUG-CC-PVTZ-JKFIT
	 Reference Energy          =    -274.4896932975059372 [Eh]
	 Singles Energy            =      -0.0000000000000000 [Eh]
	 Same-Spin Energy          =      -0.2968624830382225 [Eh]
	 Opposite-Spin Energy      =      -1.1076126324086202 [Eh]
	 Correlation Energy        =      -1.4044751154468427 [Eh]
	 Total Energy              =    -275.8941684129527516 [Eh]

	 ================> DF-SCS-MP2 Energies <==================
	-----------------------------------------------------------
	 SCS Same-Spin Scale       =       0.3333333333333333 [-]
	 SCS Opposite-Spin Scale   =       1.2000000000000000 [-]
	 SCS Same-Spin Energy      =      -0.0989541610127408 [Eh]
	 SCS Opposite-Spin Energy  =      -1.3291351588903442 [Eh]
	 SCS Correlation Energy    =      -1.4280893199030851 [Eh]
	 SCS Total Energy          =    -275.9177826174090455 [Eh]
	-----------------------------------------------------------

  Dipole Moment: [D]
     X:     0.0022      Y:    -0.0232      Z:     0.0422     Total:     0.0482

*** Psi4 exiting successfully. Buy a developer a beer!
