                               Psi4 1.3.2 release

  ==> Input File <==

--------------------------------------------------------------------------
#psi4
#
memory 32 gb

molecule  {
0 1
  C        0.0000190    -0.4262070     0.3077490
  C        1.2544970    -0.8517210    -0.4669820
  C        0.0000460     1.0638580     0.6808560
  C       -1.2544680    -0.8517020    -0.4669850
  C        2.5736910    -0.5549740     0.2429080
  C       -0.0001100     2.0271580    -0.5052670
  C       -2.5736650    -0.5550660     0.2429470
  H        0.0000220    -0.9878970     1.2560840
  H        1.1862940    -1.9370280    -0.6162526
  H        1.2530210    -0.3759140    -1.4557310
  H        0.8718230     1.2713760     1.3117180
  H       -0.8715850     1.2713570     1.3119230
  H       -1.2530320    -0.3758260    -1.4557010
  H       -1.1854530    -1.9310640    -0.6541770
  H        2.7601620     0.5190550     0.3238500
  H        3.4151550    -0.9947620    -0.3010430
  H        2.5741680    -0.9734350     1.2548350
  H        0.8834690     1.8928260    -1.1356920
  H       -0.0001040     3.0640380    -0.1556120
  H       -0.8838160     1.8927720    -1.1355030
  H       -3.4151150    -0.9948620    -0.3010190
  H       -2.7601920     0.5189470     0.3239600
  H       -2.5741050    -0.9735930     1.2548470
units angstrom
no_reorient  #important for SAPT in psi4, default
symmetry c1  #important for SAPT in psi4, default
}

set PROPERTIES_ORIGIN ["COM"]
properties('MP2/aug-cc-pvtz', properties = ['dipole'])
--------------------------------------------------------------------------

    Molecular point group: c1
  Charge       = 0
  Multiplicity = 1
  Basis Set: AUG-CC-PVTZ
    Blend: AUG-CC-PVTZ
  Basis Set: (AUG-CC-PVTZ AUX)
    Blend: AUG-CC-PVTZ-JKFIT

    Orbital Energies [Eh]
    ---------------------

    Doubly Occupied:

       1A    -11.217068     2A    -11.212678     3A    -11.212564
       4A    -11.211670     5A    -11.208945     6A    -11.208766
       7A    -11.208741     8A     -1.101746     9A     -1.013049
      10A     -1.004053    11A     -0.918753    12A     -0.850158
      13A     -0.816401    14A     -0.734247    15A     -0.647899
      16A     -0.633199    17A     -0.595340    18A     -0.561463
      19A     -0.557764    20A     -0.557317    21A     -0.545898
      22A     -0.516370    23A     -0.500890    24A     -0.495516
      25A     -0.482865    26A     -0.471043    27A     -0.442676
      28A     -0.434292    29A     -0.432832

  @DF-RHF Final Energy:  -274.49162982606708

   => Energetics <=

    Nuclear Repulsion Energy =            333.6767046911689931
    One-Electron Energy =               -1030.7482619374882233
    Two-Electron Energy =                 422.5799274202521474
    Total Energy =                       -274.4916298260670828
  Basis Set: (AUG-CC-PVTZ AUX)
    Blend: AUG-CC-PVTZ-RI
    Molecular point group: c1

    Geometry (in Angstrom), charge = 0, multiplicity = 1:

       Center              X                  Y                   Z               Mass
    ------------   -----------------  -----------------  -----------------  -----------------
         C            0.000010634759    -0.417308889483     0.305273692593    12.000000000000
         C            1.254488634759    -0.842822889483    -0.469457307407    12.000000000000
         C            0.000037634759     1.072756110517     0.678380692593    12.000000000000
         C           -1.254476365241    -0.842803889483    -0.469460307407    12.000000000000
         C            2.573682634759    -0.546075889483     0.240432692593    12.000000000000
         C           -0.000118365241     2.036056110517    -0.507742307407    12.000000000000
         C           -2.573673365241    -0.546167889483     0.240471692593    12.000000000000
         H            0.000013634759    -0.978998889483     1.253608692593     1.007825032230
         H            1.186285634759    -1.928129889483    -0.618727907407     1.007825032230
         H            1.253012634759    -0.367015889483    -1.458206307407     1.007825032230
         H            0.871814634759     1.280274110517     1.309242692593     1.007825032230
         H           -0.871593365241     1.280255110517     1.309447692593     1.007825032230
         H           -1.253040365241    -0.366927889483    -1.458176307407     1.007825032230
         H           -1.185461365241    -1.922165889483    -0.656652307407     1.007825032230
         H            2.760153634759     0.527953110517     0.321374692593     1.007825032230
         H            3.415146634759    -0.985863889483    -0.303518307407     1.007825032230
         H            2.574159634759    -0.964536889483     1.252359692593     1.007825032230
         H            0.883460634759     1.901724110517    -1.138167307407     1.007825032230
         H           -0.000112365241     3.072936110517    -0.158087307407     1.007825032230
         H           -0.883824365241     1.901670110517    -1.137978307407     1.007825032230
         H           -3.415123365241    -0.985963889483    -0.303494307407     1.007825032230
         H           -2.760200365241     0.527845110517     0.321484692593     1.007825032230
         H           -2.574113365241    -0.964694889483     1.252371692593     1.007825032230

  Basis Set: AUG-CC-PVTZ
    Blend: AUG-CC-PVTZ
  Basis Set: (AUG-CC-PVTZ AUX)
    Blend: AUG-CC-PVTZ-JKFIT
	 Reference Energy          =    -274.4916298260670828 [Eh]
	 Singles Energy            =      -0.0000000000000000 [Eh]
	 Same-Spin Energy          =      -0.2968504779572752 [Eh]
	 Opposite-Spin Energy      =      -1.1072779288219490 [Eh]
	 Correlation Energy        =      -1.4041284067792241 [Eh]
	 Total Energy              =    -275.8957582328463332 [Eh]

	 ================> DF-SCS-MP2 Energies <==================
	-----------------------------------------------------------
	 SCS Same-Spin Scale       =       0.3333333333333333 [-]
	 SCS Opposite-Spin Scale   =       1.2000000000000000 [-]
	 SCS Same-Spin Energy      =      -0.0989501593190917 [Eh]
	 SCS Opposite-Spin Energy  =      -1.3287335145863388 [Eh]
	 SCS Correlation Energy    =      -1.4276836739054306 [Eh]
	 SCS Total Energy          =    -275.9193134999725316 [Eh]
	-----------------------------------------------------------

  Dipole Moment: [D]
     X:    -0.0015      Y:    -0.0666      Z:     0.0360     Total:     0.0757

*** Psi4 exiting successfully. Buy a developer a beer!
