                               Psi4 1.3.2 release

  ==> Input File <==

--------------------------------------------------------------------------
#psi4
#
memory 32 gb

molecule  {
0 1
  C        0.0000190    -0.4262070     0.3077490
  C        1.2544970    -0.8517210    -0.4669820
  C        0.0000460     1.0638580     0.6808560
  C       -1.2544680    -0.8517020    -0.4669850
  C        2.5736910    -0.5549740     0.2429080
  C       -0.0001100     2.0271580    -0.5052670
  C       -2.5736650    -0.5550660     0.2429470
  H        0.0000220    -0.9878970     1.2560840
  H        1.1871551    -1.9416358    -0.5782273
  H        1.2530210    -0.3759140    -1.4557310
  H        0.8718230     1.2713760     1.3117180
  H       -0.8715850     1.2713570     1.3119230
  H       -1.2530320    -0.3758260    -1.4557010
  H       -1.1854530    -1.9310640    -0.6541770
  H        2.7601620     0.5190550     0.3238500
  H        3.4151550    -0.9947620    -0.3010430
  H        2.5741680    -0.9734350     1.2548350
  H        0.8834690     1.8928260    -1.1356920
  H       -0.0001040     3.0640380    -0.1556120
  H       -0.8838160     1.8927720    -1.1355030
  H       -3.4151150    -0.9948620    -0.3010190
  H       -2.7601920     0.5189470     0.3239600
  H       -2.5741050    -0.9735930     1.2548470
units angstrom
no_reorient  #important for SAPT in psi4, default
symmetry c1  #important for SAPT in psi4, default
}

set PROPERTIES_ORIGIN ["COM"]
properties('MP2/aug-cc-pvtz', properties = ['dipole'])
--------------------------------------------------------------------------

    Molecular point group: c1
  Charge       = 0
  Multiplicity = 1
  Basis Set: AUG-CC-PVTZ
    Blend: AUG-CC-PVTZ
  Basis Set: (AUG-CC-PVTZ AUX)
    Blend: AUG-CC-PVTZ-JKFIT

    Orbital Energies [Eh]
    ---------------------

    Doubly Occupied:

       1A    -11.216915     2A    -11.212778     3A    -11.212567
       4A    -11.211509     5A    -11.208962     6A    -11.208832
       7A    -11.208564     8A     -1.101855     9A     -1.013192
      10A     -1.004106    11A     -0.918769    12A     -0.849990
      13A     -0.816183    14A     -0.733708    15A     -0.648831
      16A     -0.632980    17A     -0.596005    18A     -0.561573
      19A     -0.557784    20A     -0.557303    21A     -0.545851
      22A     -0.516120    23A     -0.501365    24A     -0.495245
      25A     -0.482182    26A     -0.471885    27A     -0.443110
      28A     -0.434313    29A     -0.431677

  @DF-RHF Final Energy:  -274.49118222919702

   => Energetics <=

    Nuclear Repulsion Energy =            333.6984630969055274
    One-Electron Energy =               -1030.7909800519662440
    Two-Electron Energy =                 422.6013347258637509
    Total Energy =                       -274.4911822291970225
  Basis Set: (AUG-CC-PVTZ AUX)
    Blend: AUG-CC-PVTZ-RI
    Molecular point group: c1

    Geometry (in Angstrom), charge = 0, multiplicity = 1:

       Center              X                  Y                   Z               Mass
    ------------   -----------------  -----------------  -----------------  -----------------
         C            0.000001967230    -0.417262508990     0.304890943305    12.000000000000
         C            1.254479967230    -0.842776508990    -0.469840056695    12.000000000000
         C            0.000028967230     1.072802491010     0.677997943305    12.000000000000
         C           -1.254485032770    -0.842757508990    -0.469843056695    12.000000000000
         C            2.573673967230    -0.546029508990     0.240049943305    12.000000000000
         C           -0.000127032770     2.036102491010    -0.508125056695    12.000000000000
         C           -2.573682032770    -0.546121508990     0.240088943305    12.000000000000
         H            0.000004967230    -0.978952508990     1.253225943305     1.007825032230
         H            1.187138067230    -1.932691308990    -0.581085356695     1.007825032230
         H            1.253003967230    -0.366969508990    -1.458589056695     1.007825032230
         H            0.871805967230     1.280320491010     1.308859943305     1.007825032230
         H           -0.871602032770     1.280301491010     1.309064943305     1.007825032230
         H           -1.253049032770    -0.366881508990    -1.458559056695     1.007825032230
         H           -1.185470032770    -1.922119508990    -0.657035056695     1.007825032230
         H            2.760144967230     0.527999491010     0.320991943305     1.007825032230
         H            3.415137967230    -0.985817508990    -0.303901056695     1.007825032230
         H            2.574150967230    -0.964490508990     1.251976943305     1.007825032230
         H            0.883451967230     1.901770491010    -1.138550056695     1.007825032230
         H           -0.000121032770     3.072982491010    -0.158470056695     1.007825032230
         H           -0.883833032770     1.901716491010    -1.138361056695     1.007825032230
         H           -3.415132032770    -0.985917508990    -0.303877056695     1.007825032230
         H           -2.760209032770     0.527891491010     0.321101943305     1.007825032230
         H           -2.574122032770    -0.964648508990     1.251988943305     1.007825032230

  Basis Set: AUG-CC-PVTZ
    Blend: AUG-CC-PVTZ
  Basis Set: (AUG-CC-PVTZ AUX)
    Blend: AUG-CC-PVTZ-JKFIT
	 Reference Energy          =    -274.4911822291970225 [Eh]
	 Singles Energy            =      -0.0000000000000000 [Eh]
	 Same-Spin Energy          =      -0.2968710136797997 [Eh]
	 Opposite-Spin Energy      =      -1.1073381018621107 [Eh]
	 Correlation Energy        =      -1.4042091155419105 [Eh]
	 Total Energy              =    -275.8953913447389255 [Eh]

	 ================> DF-SCS-MP2 Energies <==================
	-----------------------------------------------------------
	 SCS Same-Spin Scale       =       0.3333333333333333 [-]
	 SCS Opposite-Spin Scale   =       1.2000000000000000 [-]
	 SCS Same-Spin Energy      =      -0.0989570045599332 [Eh]
	 SCS Opposite-Spin Energy  =      -1.3288057222345329 [Eh]
	 SCS Correlation Energy    =      -1.4277627267944661 [Eh]
	 SCS Total Energy          =    -275.9189449559914920 [Eh]
	-----------------------------------------------------------

  Dipole Moment: [D]
     X:    -0.0031      Y:    -0.0665      Z:     0.0439     Total:     0.0797

*** Psi4 exiting successfully. Buy a developer a beer!
