                               Psi4 1.3.2 release

  ==> Input File <==

--------------------------------------------------------------------------
#psi4
#
memory 32 gb

molecule  {
0 1
  C        0.0000190    -0.4262070     0.3077490
  C        1.3362435    -0.8794491    -0.5174664
  C        0.0000460     1.0638580     0.6808560
  C       -1.2544680    -0.8517020    -0.4669850
  C        2.5736910    -0.5549740     0.2429080
  C       -0.0001100     2.0271580    -0.5052670
  C       -2.5736650    -0.5550660     0.2429470
  H        0.0000220    -0.9878970     1.2560840
  H        1.1855160    -1.9310980    -0.6540960
  H        1.2530210    -0.3759140    -1.4557310
  H        0.8718230     1.2713760     1.3117180
  H       -0.8715850     1.2713570     1.3119230
  H       -1.2530320    -0.3758260    -1.4557010
  H       -1.1854530    -1.9310640    -0.6541770
  H        2.7601620     0.5190550     0.3238500
  H        3.4151550    -0.9947620    -0.3010430
  H        2.5741680    -0.9734350     1.2548350
  H        0.8834690     1.8928260    -1.1356920
  H       -0.0001040     3.0640380    -0.1556120
  H       -0.8838160     1.8927720    -1.1355030
  H       -3.4151150    -0.9948620    -0.3010190
  H       -2.7601920     0.5189470     0.3239600
  H       -2.5741050    -0.9735930     1.2548470
units angstrom
no_reorient  #important for SAPT in psi4, default
symmetry c1  #important for SAPT in psi4, default
}

set PROPERTIES_ORIGIN ["COM"]
properties('MP2/aug-cc-pvtz', properties = ['dipole'])
--------------------------------------------------------------------------

    Molecular point group: c1
  Charge       = 0
  Multiplicity = 1
  Basis Set: AUG-CC-PVTZ
    Blend: AUG-CC-PVTZ
  Basis Set: (AUG-CC-PVTZ AUX)
    Blend: AUG-CC-PVTZ-JKFIT

    Orbital Energies [Eh]
    ---------------------

    Doubly Occupied:

       1A    -11.219937     2A    -11.212103     3A    -11.211265
       4A    -11.210702     5A    -11.208663     6A    -11.208495
       7A    -11.207576     8A     -1.094183     9A     -1.017766
      10A     -1.004244    11A     -0.914893    12A     -0.849512
      13A     -0.817052    14A     -0.733788    15A     -0.646229
      16A     -0.631694    17A     -0.596702    18A     -0.563226
      19A     -0.558226    20A     -0.555942    21A     -0.545215
      22A     -0.519016    23A     -0.503469    24A     -0.498468
      25A     -0.488029    26A     -0.474095    27A     -0.444253
      28A     -0.437355    29A     -0.408563

  @DF-RHF Final Energy:  -274.48407610844424

   => Energetics <=

    Nuclear Repulsion Energy =            332.5064828684306235
    One-Electron Energy =               -1028.4197947788970851
    Two-Electron Energy =                 421.4292358020222764
    Total Energy =                       -274.4840761084442420
  Basis Set: (AUG-CC-PVTZ AUX)
    Blend: AUG-CC-PVTZ-RI
    Molecular point group: c1

    Geometry (in Angstrom), charge = 0, multiplicity = 1:

       Center              X                  Y                   Z               Mass
    ------------   -----------------  -----------------  -----------------  -----------------
         C           -0.009778847879    -0.414045367454     0.311705163616    12.000000000000
         C            1.326445652121    -0.867287467454    -0.513510236384    12.000000000000
         C           -0.009751847879     1.076019632546     0.684812163616    12.000000000000
         C           -1.264265847879    -0.839540367454    -0.463028836384    12.000000000000
         C            2.563893152121    -0.542812367454     0.246864163616    12.000000000000
         C           -0.009907847879     2.039319632546    -0.501310836384    12.000000000000
         C           -2.583462847879    -0.542904367454     0.246903163616    12.000000000000
         H           -0.009775847879    -0.975735367454     1.260040163616     1.007825032230
         H            1.175718152121    -1.918936367454    -0.650139836384     1.007825032230
         H            1.243223152121    -0.363752367454    -1.451774836384     1.007825032230
         H            0.862025152121     1.283537632546     1.315674163616     1.007825032230
         H           -0.881382847879     1.283518632546     1.315879163616     1.007825032230
         H           -1.262829847879    -0.363664367454    -1.451744836384     1.007825032230
         H           -1.195250847879    -1.918902367454    -0.650220836384     1.007825032230
         H            2.750364152121     0.531216632546     0.327806163616     1.007825032230
         H            3.405357152121    -0.982600367454    -0.297086836384     1.007825032230
         H            2.564370152121    -0.961273367454     1.258791163616     1.007825032230
         H            0.873671152121     1.904987632546    -1.131735836384     1.007825032230
         H           -0.009901847879     3.076199632546    -0.151655836384     1.007825032230
         H           -0.893613847879     1.904933632546    -1.131546836384     1.007825032230
         H           -3.424912847879    -0.982700367454    -0.297062836384     1.007825032230
         H           -2.769989847879     0.531108632546     0.327916163616     1.007825032230
         H           -2.583902847879    -0.961431367454     1.258803163616     1.007825032230

  Basis Set: AUG-CC-PVTZ
    Blend: AUG-CC-PVTZ
  Basis Set: (AUG-CC-PVTZ AUX)
    Blend: AUG-CC-PVTZ-JKFIT
	 Reference Energy          =    -274.4840761084442420 [Eh]
	 Singles Energy            =      -0.0000000000000000 [Eh]
	 Same-Spin Energy          =      -0.2968091832935741 [Eh]
	 Opposite-Spin Energy      =      -1.1075003682242806 [Eh]
	 Correlation Energy        =      -1.4043095515178545 [Eh]
	 Total Energy              =    -275.8883856599620685 [Eh]

	 ================> DF-SCS-MP2 Energies <==================
	-----------------------------------------------------------
	 SCS Same-Spin Scale       =       0.3333333333333333 [-]
	 SCS Opposite-Spin Scale   =       1.2000000000000000 [-]
	 SCS Same-Spin Energy      =      -0.0989363944311914 [Eh]
	 SCS Opposite-Spin Energy  =      -1.3290004418691366 [Eh]
	 SCS Correlation Energy    =      -1.4279368363003280 [Eh]
	 SCS Total Energy          =    -275.9120129447445606 [Eh]
	-----------------------------------------------------------

  Dipole Moment: [D]
     X:     0.0216      Y:    -0.0688      Z:     0.0274     Total:     0.0771

*** Psi4 exiting successfully. Buy a developer a beer!
