                               Psi4 1.3.2 release

  ==> Input File <==

--------------------------------------------------------------------------
#psi4
#
memory 32 gb

molecule  {
0 1
  C        0.0000190    -0.4262070     0.3077490
  C        1.2350999    -0.9016036    -0.4691413
  C        0.0000460     1.0638580     0.6808560
  C       -1.2544680    -0.8517020    -0.4669850
  C        2.5736910    -0.5549740     0.2429080
  C       -0.0001100     2.0271580    -0.5052670
  C       -2.5736650    -0.5550660     0.2429470
  H        0.0000220    -0.9878970     1.2560840
  H        1.1855160    -1.9310980    -0.6540960
  H        1.2530210    -0.3759140    -1.4557310
  H        0.8718230     1.2713760     1.3117180
  H       -0.8715850     1.2713570     1.3119230
  H       -1.2530320    -0.3758260    -1.4557010
  H       -1.1854530    -1.9310640    -0.6541770
  H        2.7601620     0.5190550     0.3238500
  H        3.4151550    -0.9947620    -0.3010430
  H        2.5741680    -0.9734350     1.2548350
  H        0.8834690     1.8928260    -1.1356920
  H       -0.0001040     3.0640380    -0.1556120
  H       -0.8838160     1.8927720    -1.1355030
  H       -3.4151150    -0.9948620    -0.3010190
  H       -2.7601920     0.5189470     0.3239600
  H       -2.5741050    -0.9735930     1.2548470
units angstrom
no_reorient  #important for SAPT in psi4, default
symmetry c1  #important for SAPT in psi4, default
}

set PROPERTIES_ORIGIN ["COM"]
properties('MP2/aug-cc-pvtz', properties = ['dipole'])
--------------------------------------------------------------------------

    Molecular point group: c1
  Charge       = 0
  Multiplicity = 1
  Basis Set: AUG-CC-PVTZ
    Blend: AUG-CC-PVTZ
  Basis Set: (AUG-CC-PVTZ AUX)
    Blend: AUG-CC-PVTZ-JKFIT

    Orbital Energies [Eh]
    ---------------------

    Doubly Occupied:

       1A    -11.217157     2A    -11.212805     3A    -11.212068
       4A    -11.211718     5A    -11.209564     6A    -11.208810
       7A    -11.208433     8A     -1.100938     9A     -1.010050
      10A     -1.003932    11A     -0.917590    12A     -0.851760
      13A     -0.817826    14A     -0.735460    15A     -0.649156
      16A     -0.633929    17A     -0.591965    18A     -0.561723
      19A     -0.558566    20A     -0.555474    21A     -0.543611
      22A     -0.518504    23A     -0.501189    24A     -0.493929
      25A     -0.487027    26A     -0.468583    27A     -0.442502
      28A     -0.436416    29A     -0.430326

  @DF-RHF Final Energy:  -274.48891446666329

   => Energetics <=

    Nuclear Repulsion Energy =            333.3714750886008460
    One-Electron Energy =               -1030.1387541988322027
    Two-Electron Energy =                 422.2783646435680680
    Total Energy =                       -274.4889144666632887
  Basis Set: (AUG-CC-PVTZ AUX)
    Blend: AUG-CC-PVTZ-RI
    Molecular point group: c1

    Geometry (in Angstrom), charge = 0, multiplicity = 1:

       Center              X                  Y                   Z               Mass
    ------------   -----------------  -----------------  -----------------  -----------------
         C            0.002343207245    -0.411390151798     0.305913402930    12.000000000000
         C            1.237424107245    -0.886786751798    -0.470976897070    12.000000000000
         C            0.002370207245     1.078674848202     0.679020402930    12.000000000000
         C           -1.252143792755    -0.836885151798    -0.468820597070    12.000000000000
         C            2.576015207245    -0.540157151798     0.241072402930    12.000000000000
         C            0.002214207245     2.041974848202    -0.507102597070    12.000000000000
         C           -2.571340792755    -0.540249151798     0.241111402930    12.000000000000
         H            0.002346207245    -0.973080151798     1.254248402930     1.007825032230
         H            1.187840207245    -1.916281151798    -0.655931597070     1.007825032230
         H            1.255345207245    -0.361097151798    -1.457566597070     1.007825032230
         H            0.874147207245     1.286192848202     1.309882402930     1.007825032230
         H           -0.869260792755     1.286173848202     1.310087402930     1.007825032230
         H           -1.250707792755    -0.361009151798    -1.457536597070     1.007825032230
         H           -1.183128792755    -1.916247151798    -0.656012597070     1.007825032230
         H            2.762486207245     0.533871848202     0.322014402930     1.007825032230
         H            3.417479207245    -0.979945151798    -0.302878597070     1.007825032230
         H            2.576492207245    -0.958618151798     1.252999402930     1.007825032230
         H            0.885793207245     1.907642848202    -1.137527597070     1.007825032230
         H            0.002220207245     3.078854848202    -0.157447597070     1.007825032230
         H           -0.881491792755     1.907588848202    -1.137338597070     1.007825032230
         H           -3.412790792755    -0.980045151798    -0.302854597070     1.007825032230
         H           -2.757867792755     0.533763848202     0.322124402930     1.007825032230
         H           -2.571780792755    -0.958776151798     1.253011402930     1.007825032230

  Basis Set: AUG-CC-PVTZ
    Blend: AUG-CC-PVTZ
  Basis Set: (AUG-CC-PVTZ AUX)
    Blend: AUG-CC-PVTZ-JKFIT
	 Reference Energy          =    -274.4889144666632887 [Eh]
	 Singles Energy            =      -0.0000000000000000 [Eh]
	 Same-Spin Energy          =      -0.2967025718171229 [Eh]
	 Opposite-Spin Energy      =      -1.1071873068431837 [Eh]
	 Correlation Energy        =      -1.4038898786603067 [Eh]
	 Total Energy              =    -275.8928043453236114 [Eh]

	 ================> DF-SCS-MP2 Energies <==================
	-----------------------------------------------------------
	 SCS Same-Spin Scale       =       0.3333333333333333 [-]
	 SCS Opposite-Spin Scale   =       1.2000000000000000 [-]
	 SCS Same-Spin Energy      =      -0.0989008572723743 [Eh]
	 SCS Opposite-Spin Energy  =      -1.3286247682118204 [Eh]
	 SCS Correlation Energy    =      -1.4275256254841948 [Eh]
	 SCS Total Energy          =    -275.9164400921474680 [Eh]
	-----------------------------------------------------------

  Dipole Moment: [D]
     X:    -0.0060      Y:    -0.0792      Z:     0.0323     Total:     0.0857

*** Psi4 exiting successfully. Buy a developer a beer!
