                               Psi4 1.3.2 release

  ==> Input File <==

--------------------------------------------------------------------------
#psi4
#
memory 32 gb

molecule  {
0 1
  C        0.0000190    -0.4262070     0.3077490
  C        1.2544970    -0.8517210    -0.4669820
  C        0.0000460     1.0638580     0.6808560
  C       -1.2544680    -0.8517020    -0.4669850
  C        2.5736910    -0.5549740     0.2429080
  C       -0.0001100     2.0271580    -0.5052670
  C       -2.5736650    -0.5550660     0.2429470
  H        0.0000217    -0.9369360     1.1700435
  H        1.1855160    -1.9310980    -0.6540960
  H        1.2530210    -0.3759140    -1.4557310
  H        0.8718230     1.2713760     1.3117180
  H       -0.8715850     1.2713570     1.3119230
  H       -1.2530320    -0.3758260    -1.4557010
  H       -1.1854530    -1.9310640    -0.6541770
  H        2.7601620     0.5190550     0.3238500
  H        3.4151550    -0.9947620    -0.3010430
  H        2.5741680    -0.9734350     1.2548350
  H        0.8834690     1.8928260    -1.1356920
  H       -0.0001040     3.0640380    -0.1556120
  H       -0.8838160     1.8927720    -1.1355030
  H       -3.4151150    -0.9948620    -0.3010190
  H       -2.7601920     0.5189470     0.3239600
  H       -2.5741050    -0.9735930     1.2548470
units angstrom
no_reorient  #important for SAPT in psi4, default
symmetry c1  #important for SAPT in psi4, default
}

set PROPERTIES_ORIGIN ["COM"]
properties('MP2/aug-cc-pvtz', properties = ['dipole'])
--------------------------------------------------------------------------

    Molecular point group: c1
  Charge       = 0
  Multiplicity = 1
  Basis Set: AUG-CC-PVTZ
    Blend: AUG-CC-PVTZ
  Basis Set: (AUG-CC-PVTZ AUX)
    Blend: AUG-CC-PVTZ-JKFIT

    Orbital Energies [Eh]
    ---------------------

    Doubly Occupied:

       1A    -11.211629     2A    -11.211615     3A    -11.210964
       4A    -11.208911     5A    -11.208910     6A    -11.207946
       7A    -11.203944     8A     -1.104496     9A     -1.012596
      10A     -1.003401    11A     -0.922578    12A     -0.850387
      13A     -0.816136    14A     -0.746134    15A     -0.649114
      16A     -0.632845    17A     -0.594540    18A     -0.562821
      19A     -0.559291    20A     -0.557235    21A     -0.546937
      22A     -0.516281    23A     -0.500607    24A     -0.495566
      25A     -0.483045    26A     -0.469652    27A     -0.449623
      28A     -0.433362    29A     -0.432991

  @DF-RHF Final Energy:  -274.48637524574912

   => Energetics <=

    Nuclear Repulsion Energy =            334.1949194400322085
    One-Electron Energy =               -1031.7554798340984235
    Two-Electron Energy =                 423.0741851483170990
    Total Energy =                       -274.4863752457491159
  Basis Set: (AUG-CC-PVTZ AUX)
    Blend: AUG-CC-PVTZ-RI
    Molecular point group: c1

    Geometry (in Angstrom), charge = 0, multiplicity = 1:

       Center              X                  Y                   Z               Mass
    ------------   -----------------  -----------------  -----------------  -----------------
         C            0.000018468853    -0.417881534268     0.306520664333    12.000000000000
         C            1.254496468853    -0.843395534268    -0.468210335667    12.000000000000
         C            0.000045468853     1.072183465732     0.679627664333    12.000000000000
         C           -1.254468531147    -0.843376534268    -0.468213335667    12.000000000000
         C            2.573690468853    -0.546648534268     0.241679664333    12.000000000000
         C           -0.000110531147     2.035483465732    -0.506495335667    12.000000000000
         C           -2.573665531147    -0.546740534268     0.241718664333    12.000000000000
         H            0.000021168853    -0.928610534268     1.168815164333     1.007825032230
         H            1.185515468853    -1.922772534268    -0.655324335667     1.007825032230
         H            1.253020468853    -0.367588534268    -1.456959335667     1.007825032230
         H            0.871822468853     1.279701465732     1.310489664333     1.007825032230
         H           -0.871585531147     1.279682465732     1.310694664333     1.007825032230
         H           -1.253032531147    -0.367500534268    -1.456929335667     1.007825032230
         H           -1.185453531147    -1.922738534268    -0.655405335667     1.007825032230
         H            2.760161468853     0.527380465732     0.322621664333     1.007825032230
         H            3.415154468853    -0.986436534268    -0.302271335667     1.007825032230
         H            2.574167468853    -0.965109534268     1.253606664333     1.007825032230
         H            0.883468468853     1.901151465732    -1.136920335667     1.007825032230
         H           -0.000104531147     3.072363465732    -0.156840335667     1.007825032230
         H           -0.883816531147     1.901097465732    -1.136731335667     1.007825032230
         H           -3.415115531147    -0.986536534268    -0.302247335667     1.007825032230
         H           -2.760192531147     0.527272465732     0.322731664333     1.007825032230
         H           -2.574105531147    -0.965267534268     1.253618664333     1.007825032230

  Basis Set: AUG-CC-PVTZ
    Blend: AUG-CC-PVTZ
  Basis Set: (AUG-CC-PVTZ AUX)
    Blend: AUG-CC-PVTZ-JKFIT
	 Reference Energy          =    -274.4863752457491159 [Eh]
	 Singles Energy            =      -0.0000000000000000 [Eh]
	 Same-Spin Energy          =      -0.2967678613659712 [Eh]
	 Opposite-Spin Energy      =      -1.1066477049572114 [Eh]
	 Correlation Energy        =      -1.4034155663231827 [Eh]
	 Total Energy              =    -275.8897908120723059 [Eh]

	 ================> DF-SCS-MP2 Energies <==================
	-----------------------------------------------------------
	 SCS Same-Spin Scale       =       0.3333333333333333 [-]
	 SCS Opposite-Spin Scale   =       1.2000000000000000 [-]
	 SCS Same-Spin Energy      =      -0.0989226204553237 [Eh]
	 SCS Opposite-Spin Energy  =      -1.3279772459486536 [Eh]
	 SCS Correlation Energy    =      -1.4268998664039774 [Eh]
	 SCS Total Energy          =    -275.9132751121530873 [Eh]
	-----------------------------------------------------------

  Dipole Moment: [D]
     X:     0.0000      Y:    -0.1085      Z:     0.0925     Total:     0.1426

*** Psi4 exiting successfully. Buy a developer a beer!
