                               Psi4 1.3.2 release

  ==> Input File <==

--------------------------------------------------------------------------
#psi4
#
memory 32 gb

molecule  {
0 1
  C        0.0000190    -0.4262070     0.3077490
  C        1.1827875    -0.7696814    -0.3500199
  C        0.0000460     1.0638580     0.6808560
  C       -1.2544680    -0.8517020    -0.4669850
  C        2.5736910    -0.5549740     0.2429080
  C       -0.0001100     2.0271580    -0.5052670
  C       -2.5736650    -0.5550660     0.2429470
  H        0.0000220    -0.9878970     1.2560840
  H        1.1855160    -1.9310980    -0.6540960
  H        1.2530210    -0.3759140    -1.4557310
  H        0.8718230     1.2713760     1.3117180
  H       -0.8715850     1.2713570     1.3119230
  H       -1.2530320    -0.3758260    -1.4557010
  H       -1.1854530    -1.9310640    -0.6541770
  H        2.7601620     0.5190550     0.3238500
  H        3.4151550    -0.9947620    -0.3010430
  H        2.5741680    -0.9734350     1.2548350
  H        0.8834690     1.8928260    -1.1356920
  H       -0.0001040     3.0640380    -0.1556120
  H       -0.8838160     1.8927720    -1.1355030
  H       -3.4151150    -0.9948620    -0.3010190
  H       -2.7601920     0.5189470     0.3239600
  H       -2.5741050    -0.9735930     1.2548470
units angstrom
no_reorient  #important for SAPT in psi4, default
symmetry c1  #important for SAPT in psi4, default
}

set PROPERTIES_ORIGIN ["COM"]
properties('MP2/aug-cc-pvtz', properties = ['dipole'])
--------------------------------------------------------------------------

    Molecular point group: c1
  Charge       = 0
  Multiplicity = 1
  Basis Set: AUG-CC-PVTZ
    Blend: AUG-CC-PVTZ
  Basis Set: (AUG-CC-PVTZ AUX)
    Blend: AUG-CC-PVTZ-JKFIT

    Orbital Energies [Eh]
    ---------------------

    Doubly Occupied:

       1A    -11.223220     2A    -11.215268     3A    -11.212871
       4A    -11.212245     5A    -11.212173     6A    -11.210519
       7A    -11.208834     8A     -1.120188     9A     -1.015588
      10A     -1.004470    11A     -0.929392    12A     -0.849951
      13A     -0.817686    14A     -0.731333    15A     -0.649061
      16A     -0.638571    17A     -0.596515    18A     -0.570487
      19A     -0.561318    20A     -0.557383    21A     -0.549978
      22A     -0.516046    23A     -0.500776    24A     -0.495608
      25A     -0.477526    26A     -0.467948    27A     -0.457323
      28A     -0.427436    29A     -0.413678

  @DF-RHF Final Energy:  -274.46229943259715

   => Energetics <=

    Nuclear Repulsion Energy =            335.7772026256253071
    One-Electron Energy =               -1034.7922192956630170
    Two-Electron Energy =                 424.5527172374406177
    Total Energy =                       -274.4622994325971490
  Basis Set: (AUG-CC-PVTZ AUX)
    Blend: AUG-CC-PVTZ-RI
    Molecular point group: c1

    Geometry (in Angstrom), charge = 0, multiplicity = 1:

       Center              X                  Y                   Z               Mass
    ------------   -----------------  -----------------  -----------------  -----------------
         C            0.008612845625    -0.427201020509     0.291636709424    12.000000000000
         C            1.191381345625    -0.770675420509    -0.366132190576    12.000000000000
         C            0.008639845625     1.062863979491     0.664743709424    12.000000000000
         C           -1.245874154375    -0.852696020509    -0.483097290576    12.000000000000
         C            2.582284845625    -0.555968020509     0.226795709424    12.000000000000
         C            0.008483845625     2.026163979491    -0.521379290576    12.000000000000
         C           -2.565071154375    -0.556060020509     0.226834709424    12.000000000000
         H            0.008615845625    -0.988891020509     1.239971709424     1.007825032230
         H            1.194109845625    -1.932092020509    -0.670208290576     1.007825032230
         H            1.261614845625    -0.376908020509    -1.471843290576     1.007825032230
         H            0.880416845625     1.270381979491     1.295605709424     1.007825032230
         H           -0.862991154375     1.270362979491     1.295810709424     1.007825032230
         H           -1.244438154375    -0.376820020509    -1.471813290576     1.007825032230
         H           -1.176859154375    -1.932058020509    -0.670289290576     1.007825032230
         H            2.768755845625     0.518060979491     0.307737709424     1.007825032230
         H            3.423748845625    -0.995756020509    -0.317155290576     1.007825032230
         H            2.582761845625    -0.974429020509     1.238722709424     1.007825032230
         H            0.892062845625     1.891831979491    -1.151804290576     1.007825032230
         H            0.008489845625     3.063043979491    -0.171724290576     1.007825032230
         H           -0.875222154375     1.891777979491    -1.151615290576     1.007825032230
         H           -3.406521154375    -0.995856020509    -0.317131290576     1.007825032230
         H           -2.751598154375     0.517952979491     0.307847709424     1.007825032230
         H           -2.565511154375    -0.974587020509     1.238734709424     1.007825032230

  Basis Set: AUG-CC-PVTZ
    Blend: AUG-CC-PVTZ
  Basis Set: (AUG-CC-PVTZ AUX)
    Blend: AUG-CC-PVTZ-JKFIT
	 Reference Energy          =    -274.4622994325971490 [Eh]
	 Singles Energy            =      -0.0000000000000000 [Eh]
	 Same-Spin Energy          =      -0.2988917108492692 [Eh]
	 Opposite-Spin Energy      =      -1.1102128863917176 [Eh]
	 Correlation Energy        =      -1.4091045972409868 [Eh]
	 Total Energy              =    -275.8714040298381178 [Eh]

	 ================> DF-SCS-MP2 Energies <==================
	-----------------------------------------------------------
	 SCS Same-Spin Scale       =       0.3333333333333333 [-]
	 SCS Opposite-Spin Scale   =       1.2000000000000000 [-]
	 SCS Same-Spin Energy      =      -0.0996305702830897 [Eh]
	 SCS Opposite-Spin Energy  =      -1.3322554636700610 [Eh]
	 SCS Correlation Energy    =      -1.4318860339531507 [Eh]
	 SCS Total Energy          =    -275.8941854665503115 [Eh]
	-----------------------------------------------------------

  Dipole Moment: [D]
     X:    -0.0431      Y:    -0.0138      Z:     0.0919     Total:     0.1024

*** Psi4 exiting successfully. Buy a developer a beer!
