                               Psi4 1.3.2 release

  ==> Input File <==

--------------------------------------------------------------------------
#psi4
#
memory 32 gb

molecule  {
0 1
  C        0.0000190    -0.4262070     0.3077490
  C        1.2544970    -0.8517210    -0.4669820
  C        0.0000460     1.0638580     0.6808560
  C       -1.2544680    -0.8517020    -0.4669850
  C        2.5736910    -0.5549740     0.2429080
  C       -0.0001100     2.0271580    -0.5052670
  C       -2.5736650    -0.5550660     0.2429470
  H        0.0000220    -0.9878970     1.2560840
  H        1.1855160    -1.9310980    -0.6540960
  H        1.2530210    -0.3759140    -1.4557310
  H        0.8718230     1.2713760     1.3117180
  H       -0.8715850     1.2713570     1.3119230
  H       -1.2530320    -0.3758260    -1.4557010
  H       -1.1854530    -1.9310640    -0.6541770
  H        2.7431030     0.4207994     0.3164452
  H        3.4151550    -0.9947620    -0.3010430
  H        2.5741680    -0.9734350     1.2548350
  H        0.8834690     1.8928260    -1.1356920
  H       -0.0001040     3.0640380    -0.1556120
  H       -0.8838160     1.8927720    -1.1355030
  H       -3.4151150    -0.9948620    -0.3010190
  H       -2.7601920     0.5189470     0.3239600
  H       -2.5741050    -0.9735930     1.2548470
units angstrom
no_reorient  #important for SAPT in psi4, default
symmetry c1  #important for SAPT in psi4, default
}

set PROPERTIES_ORIGIN ["COM"]
properties('MP2/aug-cc-pvtz', properties = ['dipole'])
--------------------------------------------------------------------------

    Molecular point group: c1
  Charge       = 0
  Multiplicity = 1
  Basis Set: AUG-CC-PVTZ
    Blend: AUG-CC-PVTZ
  Basis Set: (AUG-CC-PVTZ AUX)
    Blend: AUG-CC-PVTZ-JKFIT

    Orbital Energies [Eh]
    ---------------------

    Doubly Occupied:

       1A    -11.216980     2A    -11.212361     3A    -11.212209
       4A    -11.211420     5A    -11.208963     6A    -11.208818
       7A    -11.196176     8A     -1.101962     9A     -1.015953
      10A     -1.004682    11A     -0.922578    12A     -0.851686
      13A     -0.820485    14A     -0.735086    15A     -0.648698
      16A     -0.634291    17A     -0.596476    18A     -0.567801
      19A     -0.559118    20A     -0.557004    21A     -0.545245
      22A     -0.518510    23A     -0.502480    24A     -0.495859
      25A     -0.484429    26A     -0.471795    27A     -0.442109
      28A     -0.434498    29A     -0.433759

  @DF-RHF Final Energy:  -274.48568864068687

   => Energetics <=

    Nuclear Repulsion Energy =            334.0564196964246548
    One-Electron Energy =               -1031.4613576756059956
    Two-Electron Energy =                 422.9192493384944669
    Total Energy =                       -274.4856886406868739
  Basis Set: (AUG-CC-PVTZ AUX)
    Blend: AUG-CC-PVTZ-RI
    Molecular point group: c1

    Geometry (in Angstrom), charge = 0, multiplicity = 1:

       Center              X                  Y                   Z               Mass
    ------------   -----------------  -----------------  -----------------  -----------------
         C            0.000190175724    -0.416379572485     0.305729145050    12.000000000000
         C            1.254668175724    -0.841893572485    -0.469001854950    12.000000000000
         C            0.000217175724     1.073685427515     0.678836145050    12.000000000000
         C           -1.254296824276    -0.841874572485    -0.469004854950    12.000000000000
         C            2.573862175724    -0.545146572485     0.240888145050    12.000000000000
         C            0.000061175724     2.036985427515    -0.507286854950    12.000000000000
         C           -2.573493824276    -0.545238572485     0.240927145050    12.000000000000
         H            0.000193175724    -0.978069572485     1.254064145050     1.007825032230
         H            1.185687175724    -1.921270572485    -0.656115854950     1.007825032230
         H            1.253192175724    -0.366086572485    -1.457750854950     1.007825032230
         H            0.871994175724     1.281203427515     1.309698145050     1.007825032230
         H           -0.871413824276     1.281184427515     1.309903145050     1.007825032230
         H           -1.252860824276    -0.365998572485    -1.457720854950     1.007825032230
         H           -1.185281824276    -1.921236572485    -0.656196854950     1.007825032230
         H            2.743274175724     0.430626827515     0.314425345050     1.007825032230
         H            3.415326175724    -0.984934572485    -0.303062854950     1.007825032230
         H            2.574339175724    -0.963607572485     1.252815145050     1.007825032230
         H            0.883640175724     1.902653427515    -1.137711854950     1.007825032230
         H            0.000067175724     3.073865427515    -0.157631854950     1.007825032230
         H           -0.883644824276     1.902599427515    -1.137522854950     1.007825032230
         H           -3.414943824276    -0.985034572485    -0.303038854950     1.007825032230
         H           -2.760020824276     0.528774427515     0.321940145050     1.007825032230
         H           -2.573933824276    -0.963765572485     1.252827145050     1.007825032230

  Basis Set: AUG-CC-PVTZ
    Blend: AUG-CC-PVTZ
  Basis Set: (AUG-CC-PVTZ AUX)
    Blend: AUG-CC-PVTZ-JKFIT
	 Reference Energy          =    -274.4856886406868739 [Eh]
	 Singles Energy            =      -0.0000000000000000 [Eh]
	 Same-Spin Energy          =      -0.2968323194239928 [Eh]
	 Opposite-Spin Energy      =      -1.1067470348239841 [Eh]
	 Correlation Energy        =      -1.4035793542479769 [Eh]
	 Total Energy              =    -275.8892679949348690 [Eh]

	 ================> DF-SCS-MP2 Energies <==================
	-----------------------------------------------------------
	 SCS Same-Spin Scale       =       0.3333333333333333 [-]
	 SCS Opposite-Spin Scale   =       1.2000000000000000 [-]
	 SCS Same-Spin Energy      =      -0.0989441064746643 [Eh]
	 SCS Opposite-Spin Energy  =      -1.3280964417887808 [Eh]
	 SCS Correlation Energy    =      -1.4270405482634452 [Eh]
	 SCS Total Energy          =    -275.9127291889503226 [Eh]
	-----------------------------------------------------------

  Dipole Moment: [D]
     X:     0.0222      Y:    -0.0133      Z:     0.0368     Total:     0.0450

*** Psi4 exiting successfully. Buy a developer a beer!
