                               Psi4 1.3.2 release

  ==> Input File <==

--------------------------------------------------------------------------
#psi4
#
memory 32 gb

molecule  {
0 1
  C        0.0000190    -0.4262070     0.3077490
  C        1.2544970    -0.8517210    -0.4669820
  C        0.0000460     1.0638580     0.6808560
  C       -1.2544680    -0.8517020    -0.4669850
  C        2.6600721    -0.5355429     0.2893917
  C       -0.0001100     2.0271580    -0.5052670
  C       -2.5736650    -0.5550660     0.2429470
  H        0.0000220    -0.9878970     1.2560840
  H        1.1855160    -1.9310980    -0.6540960
  H        1.2530210    -0.3759140    -1.4557310
  H        0.8718230     1.2713760     1.3117180
  H       -0.8715850     1.2713570     1.3119230
  H       -1.2530320    -0.3758260    -1.4557010
  H       -1.1854530    -1.9310640    -0.6541770
  H        2.7601620     0.5190550     0.3238500
  H        3.4151550    -0.9947620    -0.3010430
  H        2.5741680    -0.9734350     1.2548350
  H        0.8834690     1.8928260    -1.1356920
  H       -0.0001040     3.0640380    -0.1556120
  H       -0.8838160     1.8927720    -1.1355030
  H       -3.4151150    -0.9948620    -0.3010190
  H       -2.7601920     0.5189470     0.3239600
  H       -2.5741050    -0.9735930     1.2548470
units angstrom
no_reorient  #important for SAPT in psi4, default
symmetry c1  #important for SAPT in psi4, default
}

set PROPERTIES_ORIGIN ["COM"]
properties('MP2/aug-cc-pvtz', properties = ['dipole'])
--------------------------------------------------------------------------

    Molecular point group: c1
  Charge       = 0
  Multiplicity = 1
  Basis Set: AUG-CC-PVTZ
    Blend: AUG-CC-PVTZ
  Basis Set: (AUG-CC-PVTZ AUX)
    Blend: AUG-CC-PVTZ-JKFIT

    Orbital Energies [Eh]
    ---------------------

    Doubly Occupied:

       1A    -11.217258     2A    -11.216304     3A    -11.212515
       4A    -11.211894     5A    -11.208900     6A    -11.208716
       7A    -11.205508     8A     -1.098367     9A     -1.007893
      10A     -0.998830    11A     -0.920488    12A     -0.851174
      13A     -0.819798    14A     -0.733642    15A     -0.645713
      16A     -0.632964    17A     -0.595670    18A     -0.566284
      19A     -0.559270    20A     -0.556165    21A     -0.545137
      22A     -0.516454    23A     -0.504767    24A     -0.498328
      25A     -0.479620    26A     -0.468607    27A     -0.442401
      28A     -0.436175    29A     -0.424897

  @DF-RHF Final Energy:  -274.48453645369136

   => Energetics <=

    Nuclear Repulsion Energy =            332.2966497972634556
    One-Electron Energy =               -1027.9948898408704281
    Two-Electron Energy =                 421.2137035899156672
    Total Energy =                       -274.4845364536913621
  Basis Set: (AUG-CC-PVTZ AUX)
    Blend: AUG-CC-PVTZ-RI
    Molecular point group: c1

    Geometry (in Angstrom), charge = 0, multiplicity = 1:

       Center              X                  Y                   Z               Mass
    ------------   -----------------  -----------------  -----------------  -----------------
         C           -0.010334304445    -0.419697395086     0.300083541946    12.000000000000
         C            1.244143695555    -0.845211395086    -0.474647458054    12.000000000000
         C           -0.010307304445     1.070367604914     0.673190541946    12.000000000000
         C           -1.264821304445    -0.845192395086    -0.474650458054    12.000000000000
         C            2.649718795555    -0.529033295086     0.281726241946    12.000000000000
         C           -0.010463304445     2.033667604914    -0.512932458054    12.000000000000
         C           -2.584018304445    -0.548556395086     0.235281541946    12.000000000000
         H           -0.010331304445    -0.981387395086     1.248418541946     1.007825032230
         H            1.175162695555    -1.924588395086    -0.661761458054     1.007825032230
         H            1.242667695555    -0.369404395086    -1.463396458054     1.007825032230
         H            0.861469695555     1.277885604914     1.304052541946     1.007825032230
         H           -0.881938304445     1.277866604914     1.304257541946     1.007825032230
         H           -1.263385304445    -0.369316395086    -1.463366458054     1.007825032230
         H           -1.195806304445    -1.924554395086    -0.661842458054     1.007825032230
         H            2.749808695555     0.525564604914     0.316184541946     1.007825032230
         H            3.404801695555    -0.988252395086    -0.308708458054     1.007825032230
         H            2.563814695555    -0.966925395086     1.247169541946     1.007825032230
         H            0.873115695555     1.899335604914    -1.143357458054     1.007825032230
         H           -0.010457304445     3.070547604914    -0.163277458054     1.007825032230
         H           -0.894169304445     1.899281604914    -1.143168458054     1.007825032230
         H           -3.425468304445    -0.988352395086    -0.308684458054     1.007825032230
         H           -2.770545304445     0.525456604914     0.316294541946     1.007825032230
         H           -2.584458304445    -0.967083395086     1.247181541946     1.007825032230

  Basis Set: AUG-CC-PVTZ
    Blend: AUG-CC-PVTZ
  Basis Set: (AUG-CC-PVTZ AUX)
    Blend: AUG-CC-PVTZ-JKFIT
	 Reference Energy          =    -274.4845364536913621 [Eh]
	 Singles Energy            =      -0.0000000000000000 [Eh]
	 Same-Spin Energy          =      -0.2965480291430174 [Eh]
	 Opposite-Spin Energy      =      -1.1073673002298259 [Eh]
	 Correlation Energy        =      -1.4039153293728432 [Eh]
	 Total Energy              =    -275.8884517830642267 [Eh]

	 ================> DF-SCS-MP2 Energies <==================
	-----------------------------------------------------------
	 SCS Same-Spin Scale       =       0.3333333333333333 [-]
	 SCS Opposite-Spin Scale   =       1.2000000000000000 [-]
	 SCS Same-Spin Energy      =      -0.0988493430476725 [Eh]
	 SCS Opposite-Spin Energy  =      -1.3288407602757910 [Eh]
	 SCS Correlation Energy    =      -1.4276901033234635 [Eh]
	 SCS Total Energy          =    -275.9122265570148329 [Eh]
	-----------------------------------------------------------

  Dipole Moment: [D]
     X:    -0.0303      Y:    -0.0702      Z:     0.0243     Total:     0.0803

*** Psi4 exiting successfully. Buy a developer a beer!
