                               Psi4 1.4a3.dev225

  ==> Input File <==

--------------------------------------------------------------------------
#psi4
#
memory 32 gb

molecule  {
0 1
  C        0.0000000    -0.4260750     0.3076100
  C        1.2544720    -0.8514380    -0.4671590
  C        0.0000000     1.0639900     0.6808960
  C       -1.2544720    -0.8514380    -0.4671590
  C        2.5736720    -0.5554960     0.2430540
  C        0.0000000     2.0274100    -0.5051140
  C       -2.5736720    -0.5554960     0.2430540
  H        0.0000000    -0.9878700     1.2558670
  H        1.1839511    -1.9503527    -0.6583676
  H        1.2532300    -0.3750670    -1.4556400
  H        0.8717050     1.2713650     1.3118990
  H       -0.8717030     1.2713660     1.3119000
  H       -1.2532300    -0.3750660    -1.4556400
  H       -1.1852130    -1.9306880    -0.6549460
  H        2.7605980     0.5184190     0.3244420
  H        3.4150690    -0.9954020    -0.3009240
  H        2.5738760    -0.9743250     1.2548280
  H        0.8836400     1.8931300    -1.1354610
  H        0.0000000     3.0642610    -0.1553580
  H       -0.8836410     1.8931290    -1.1354600
  H       -3.4150690    -0.9954020    -0.3009240
  H       -2.7605980     0.5184190     0.3244430
  H       -2.5738760    -0.9743270     1.2548280
units angstrom
no_reorient  #important for SAPT in psi4, default
symmetry c1  #important for SAPT in psi4, default
}

set PROPERTIES_ORIGIN ["COM"]
properties('MP2/aug-cc-pvtz', properties = ['dipole'])
--------------------------------------------------------------------------

    Molecular point group: c1
  Charge       = 0
  Multiplicity = 1
  Basis Set: AUG-CC-PVTZ
    Blend: AUG-CC-PVTZ
  Basis Set: (AUG-CC-PVTZ AUX)
    Blend: AUG-CC-PVTZ-JKFIT

    Orbital Energies [Eh]
    ---------------------

    Doubly Occupied:

       1A    -11.217453     2A    -11.215071     3A    -11.212549
       4A    -11.212027     5A    -11.209169     6A    -11.208934
       7A    -11.208834     8A     -1.101520     9A     -1.012613
      10A     -1.003902    11A     -0.918853    12A     -0.850061
      13A     -0.815845    14A     -0.734508    15A     -0.646312
      16A     -0.633047    17A     -0.594693    18A     -0.561343
      19A     -0.557558    20A     -0.557441    21A     -0.546041
      22A     -0.516524    23A     -0.500456    24A     -0.495886
      25A     -0.482724    26A     -0.469572    27A     -0.442122
      28A     -0.434481    29A     -0.433585

  @DF-RHF Final Energy:  -274.49125673864569

   => Energetics <=

    Nuclear Repulsion Energy =            333.5580042747386642
    One-Electron Energy =               -1030.5122717369818020
    Two-Electron Energy =                 422.4630107235974492
    Total Energy =                       -274.4912567386456885
  Basis Set: (AUG-CC-PVTZ AUX)
    Blend: AUG-CC-PVTZ-RI
    Molecular point group: c1

    Geometry (in Angstrom), charge = 0, multiplicity = 1:

       Center              X                  Y                   Z               Mass
    ------------   -----------------  -----------------  -----------------  -----------------
         C            0.000012691776    -0.417045240449     0.305552657562    12.000000000000
         C            1.254484691776    -0.842408240449    -0.469216342438    12.000000000000
         C            0.000012691776     1.073019759551     0.678838657562    12.000000000000
         C           -1.254459308224    -0.842408240449    -0.469216342438    12.000000000000
         C            2.573684691776    -0.546466240449     0.240996657562    12.000000000000
         C            0.000012691776     2.036439759551    -0.507171342438    12.000000000000
         C           -2.573659308224    -0.546466240449     0.240996657562    12.000000000000
         H            0.000012691776    -0.978840240449     1.253809657562     1.007825032230
         H            1.183963791776    -1.941322940449    -0.660424942438     1.007825032230
         H            1.253242691776    -0.366037240449    -1.457697342438     1.007825032230
         H            0.871717691776     1.280394759551     1.309841657562     1.007825032230
         H           -0.871690308224     1.280395759551     1.309842657562     1.007825032230
         H           -1.253217308224    -0.366036240449    -1.457697342438     1.007825032230
         H           -1.185200308224    -1.921658240449    -0.657003342438     1.007825032230
         H            2.760610691776     0.527448759551     0.322384657562     1.007825032230
         H            3.415081691776    -0.986372240449    -0.302981342438     1.007825032230
         H            2.573888691776    -0.965295240449     1.252770657562     1.007825032230
         H            0.883652691776     1.902159759551    -1.137518342438     1.007825032230
         H            0.000012691776     3.073290759551    -0.157415342438     1.007825032230
         H           -0.883628308224     1.902158759551    -1.137517342438     1.007825032230
         H           -3.415056308224    -0.986372240449    -0.302981342438     1.007825032230
         H           -2.760585308224     0.527448759551     0.322385657562     1.007825032230
         H           -2.573863308224    -0.965297240449     1.252770657562     1.007825032230

  Basis Set: AUG-CC-PVTZ
    Blend: AUG-CC-PVTZ
  Basis Set: (AUG-CC-PVTZ AUX)
    Blend: AUG-CC-PVTZ-JKFIT
	 Reference Energy          =    -274.4912567386456885 [Eh]
	 Singles Energy            =      -0.0000000000000000 [Eh]
	 Same-Spin Energy          =      -0.2968507914682512 [Eh]
	 Opposite-Spin Energy      =      -1.1073837525322530 [Eh]
	 Correlation Energy        =      -1.4042345440005042 [Eh]
	 Total Energy              =    -275.8954912826462191 [Eh]

	 ================> DF-SCS-MP2 Energies <==================
	-----------------------------------------------------------
	 SCS Same-Spin Scale       =       0.3333333333333333 [-]
	 SCS Opposite-Spin Scale   =       1.2000000000000000 [-]
	 SCS Same-Spin Energy      =      -0.0989502638227504 [Eh]
	 SCS Opposite-Spin Energy  =      -1.3288605030387035 [Eh]
	 SCS Correlation Energy    =      -1.4278107668614539 [Eh]
	 SCS Total Energy          =    -275.9190675055071438 [Eh]
	-----------------------------------------------------------

  Dipole Moment: [D]
     X:     0.0009      Y:    -0.0496      Z:     0.0332     Total:     0.0597

*** Psi4 exiting successfully. Buy a developer a beer!
