                               Psi4 1.3.2 release

  ==> Input File <==

--------------------------------------------------------------------------
#psi4
#
memory 32 gb

molecule  {
0 1
  C        0.0000190    -0.4262070     0.3077490
  C        1.2544970    -0.8517210    -0.4669820
  C        0.0000460     1.0638580     0.6808560
  C       -1.2544680    -0.8517020    -0.4669850
  C        2.5736910    -0.5549740     0.2429080
  C       -0.0001100     2.0271580    -0.5052670
  C       -2.5736650    -0.5550660     0.2429470
  H        0.0000220    -0.9878970     1.2560840
  H        1.1918005    -1.8327623    -0.6370491
  H        1.2530210    -0.3759140    -1.4557310
  H        0.8718230     1.2713760     1.3117180
  H       -0.8715850     1.2713570     1.3119230
  H       -1.2530320    -0.3758260    -1.4557010
  H       -1.1854530    -1.9310640    -0.6541770
  H        2.7601620     0.5190550     0.3238500
  H        3.4151550    -0.9947620    -0.3010430
  H        2.5741680    -0.9734350     1.2548350
  H        0.8834690     1.8928260    -1.1356920
  H       -0.0001040     3.0640380    -0.1556120
  H       -0.8838160     1.8927720    -1.1355030
  H       -3.4151150    -0.9948620    -0.3010190
  H       -2.7601920     0.5189470     0.3239600
  H       -2.5741050    -0.9735930     1.2548470
units angstrom
no_reorient  #important for SAPT in psi4, default
symmetry c1  #important for SAPT in psi4, default
}

set PROPERTIES_ORIGIN ["COM"]
properties('MP2/aug-cc-pvtz', properties = ['dipole'])
--------------------------------------------------------------------------

    Molecular point group: c1
  Charge       = 0
  Multiplicity = 1
  Basis Set: AUG-CC-PVTZ
    Blend: AUG-CC-PVTZ
  Basis Set: (AUG-CC-PVTZ AUX)
    Blend: AUG-CC-PVTZ-JKFIT

    Orbital Energies [Eh]
    ---------------------

    Doubly Occupied:

       1A    -11.216366     2A    -11.212695     3A    -11.210975
       4A    -11.208950     5A    -11.208107     6A    -11.208010
       7A    -11.199615     8A     -1.102832     9A     -1.015419
      10A     -1.004571    11A     -0.918303    12A     -0.852573
      13A     -0.821366    14A     -0.736769    15A     -0.651571
      16A     -0.634783    17A     -0.594923    18A     -0.561755
      19A     -0.558667    20A     -0.556819    21A     -0.545528
      22A     -0.517445    23A     -0.500834    24A     -0.496069
      25A     -0.487263    26A     -0.471659    27A     -0.442560
      28A     -0.434730    29A     -0.433459

  @DF-RHF Final Energy:  -274.48605940022992

   => Energetics <=

    Nuclear Repulsion Energy =            334.1608238011612571
    One-Electron Energy =               -1031.6845284702667414
    Two-Electron Energy =                 423.0376452688755080
    Total Energy =                       -274.4860594002299194
  Basis Set: (AUG-CC-PVTZ AUX)
    Blend: AUG-CC-PVTZ-RI
    Molecular point group: c1

    Geometry (in Angstrom), charge = 0, multiplicity = 1:

       Center              X                  Y                   Z               Mass
    ------------   -----------------  -----------------  -----------------  -----------------
         C           -0.000044791732    -0.418358391326     0.305483022843    12.000000000000
         C            1.254433208268    -0.843872391326    -0.469247977157    12.000000000000
         C           -0.000017791732     1.071706608674     0.678590022843    12.000000000000
         C           -1.254531791732    -0.843853391326    -0.469250977157    12.000000000000
         C            2.573627208268    -0.547125391326     0.240642022843    12.000000000000
         C           -0.000173791732     2.035006608674    -0.507532977157    12.000000000000
         C           -2.573728791732    -0.547217391326     0.240681022843    12.000000000000
         H           -0.000041791732    -0.980048391326     1.253818022843     1.007825032230
         H            1.191736708268    -1.824913691326    -0.639315077157     1.007825032230
         H            1.252957208268    -0.368065391326    -1.457996977157     1.007825032230
         H            0.871759208268     1.279224608674     1.309452022843     1.007825032230
         H           -0.871648791732     1.279205608674     1.309657022843     1.007825032230
         H           -1.253095791732    -0.367977391326    -1.457966977157     1.007825032230
         H           -1.185516791732    -1.923215391326    -0.656442977157     1.007825032230
         H            2.760098208268     0.526903608674     0.321584022843     1.007825032230
         H            3.415091208268    -0.986913391326    -0.303308977157     1.007825032230
         H            2.574104208268    -0.965586391326     1.252569022843     1.007825032230
         H            0.883405208268     1.900674608674    -1.137957977157     1.007825032230
         H           -0.000167791732     3.071886608674    -0.157877977157     1.007825032230
         H           -0.883879791732     1.900620608674    -1.137768977157     1.007825032230
         H           -3.415178791732    -0.987013391326    -0.303284977157     1.007825032230
         H           -2.760255791732     0.526795608674     0.321694022843     1.007825032230
         H           -2.574168791732    -0.965744391326     1.252581022843     1.007825032230

  Basis Set: AUG-CC-PVTZ
    Blend: AUG-CC-PVTZ
  Basis Set: (AUG-CC-PVTZ AUX)
    Blend: AUG-CC-PVTZ-JKFIT
	 Reference Energy          =    -274.4860594002299194 [Eh]
	 Singles Energy            =      -0.0000000000000000 [Eh]
	 Same-Spin Energy          =      -0.2968228028528181 [Eh]
	 Opposite-Spin Energy      =      -1.1066797372581525 [Eh]
	 Correlation Energy        =      -1.4035025401109706 [Eh]
	 Total Energy              =    -275.8895619403409114 [Eh]

	 ================> DF-SCS-MP2 Energies <==================
	-----------------------------------------------------------
	 SCS Same-Spin Scale       =       0.3333333333333333 [-]
	 SCS Opposite-Spin Scale   =       1.2000000000000000 [-]
	 SCS Same-Spin Energy      =      -0.0989409342842727 [Eh]
	 SCS Opposite-Spin Energy  =      -1.3280156847097830 [Eh]
	 SCS Correlation Energy    =      -1.4269566189940557 [Eh]
	 SCS Total Energy          =    -275.9130160192239600 [Eh]
	-----------------------------------------------------------

  Dipole Moment: [D]
     X:    -0.0044      Y:    -0.1357      Z:     0.0031     Total:     0.1358

*** Psi4 exiting successfully. Buy a developer a beer!
