                               Psi4 1.4a3.dev225

  ==> Input File <==

--------------------------------------------------------------------------
#psi4
#
memory 32 gb

molecule  {
0 1
  C        0.0000000    -0.4260750     0.3076100
  C        1.2544720    -0.8514380    -0.4671590
  C        0.0000000     1.0639900     0.6808960
  C       -1.2544720    -0.8514380    -0.4671590
  C        2.5736720    -0.5554960     0.2430540
  C        0.0000000     2.0274100    -0.5051140
  C       -2.5736720    -0.5554960     0.2430540
  H        0.0000000    -0.9878700     1.2558670
  H        1.1883679    -1.8815263    -0.6463920
  H        1.2532300    -0.3750670    -1.4556400
  H        0.8717050     1.2713650     1.3118990
  H       -0.8717030     1.2713660     1.3119000
  H       -1.2532300    -0.3750660    -1.4556400
  H       -1.1852130    -1.9306880    -0.6549460
  H        2.7605980     0.5184190     0.3244420
  H        3.4150690    -0.9954020    -0.3009240
  H        2.5738760    -0.9743250     1.2548280
  H        0.8836400     1.8931300    -1.1354610
  H        0.0000000     3.0642610    -0.1553580
  H       -0.8836410     1.8931290    -1.1354600
  H       -3.4150690    -0.9954020    -0.3009240
  H       -2.7605980     0.5184190     0.3244430
  H       -2.5738760    -0.9743270     1.2548280
units angstrom
no_reorient  #important for SAPT in psi4, default
symmetry c1  #important for SAPT in psi4, default
}

set PROPERTIES_ORIGIN ["COM"]
properties('MP2/aug-cc-pvtz', properties = ['dipole'])
--------------------------------------------------------------------------

    Molecular point group: c1
  Charge       = 0
  Multiplicity = 1
  Basis Set: AUG-CC-PVTZ
    Blend: AUG-CC-PVTZ
  Basis Set: (AUG-CC-PVTZ AUX)
    Blend: AUG-CC-PVTZ-JKFIT

    Orbital Energies [Eh]
    ---------------------

    Doubly Occupied:

       1A    -11.216761     2A    -11.212629     3A    -11.211371
       4A    -11.208939     5A    -11.208484     6A    -11.208381
       7A    -11.206094     8A     -1.102127     9A     -1.013958
      10A     -1.004290    11A     -0.918500    12A     -0.851243
      13A     -0.818877    14A     -0.735709    15A     -0.649070
      16A     -0.634174    17A     -0.594787    18A     -0.561463
      19A     -0.558261    20A     -0.557061    21A     -0.545713
      22A     -0.516972    23A     -0.500530    24A     -0.495925
      25A     -0.485383    26A     -0.471096    27A     -0.442364
      28A     -0.434406    29A     -0.433843

  @DF-RHF Final Energy:  -274.49089708378546

   => Energetics <=

    Nuclear Repulsion Energy =            333.8966560097937304
    One-Electron Energy =               -1031.1782902349923461
    Two-Electron Energy =                 422.7907371414131035
    Total Energy =                       -274.4908970837854554
  Basis Set: (AUG-CC-PVTZ AUX)
    Blend: AUG-CC-PVTZ-RI
    Molecular point group: c1

    Geometry (in Angstrom), charge = 0, multiplicity = 1:

       Center              X                  Y                   Z               Mass
    ------------   -----------------  -----------------  -----------------  -----------------
         C           -0.000031766179    -0.417738022770     0.305432115387    12.000000000000
         C            1.254440233821    -0.843101022770    -0.469336884613    12.000000000000
         C           -0.000031766179     1.072326977230     0.678718115387    12.000000000000
         C           -1.254503766179    -0.843101022770    -0.469336884613    12.000000000000
         C            2.573640233821    -0.547159022770     0.240876115387    12.000000000000
         C           -0.000031766179     2.035746977230    -0.507291884613    12.000000000000
         C           -2.573703766179    -0.547159022770     0.240876115387    12.000000000000
         H           -0.000031766179    -0.979533022770     1.253689115387     1.007825032230
         H            1.188336133821    -1.873189322770    -0.648569884613     1.007825032230
         H            1.253198233821    -0.366730022770    -1.457817884613     1.007825032230
         H            0.871673233821     1.279701977230     1.309721115387     1.007825032230
         H           -0.871734766179     1.279702977230     1.309722115387     1.007825032230
         H           -1.253261766179    -0.366729022770    -1.457817884613     1.007825032230
         H           -1.185244766179    -1.922351022770    -0.657123884613     1.007825032230
         H            2.760566233821     0.526755977230     0.322264115387     1.007825032230
         H            3.415037233821    -0.987065022770    -0.303101884613     1.007825032230
         H            2.573844233821    -0.965988022770     1.252650115387     1.007825032230
         H            0.883608233821     1.901466977230    -1.137638884613     1.007825032230
         H           -0.000031766179     3.072597977230    -0.157535884613     1.007825032230
         H           -0.883672766179     1.901465977230    -1.137637884613     1.007825032230
         H           -3.415100766179    -0.987065022770    -0.303101884613     1.007825032230
         H           -2.760629766179     0.526755977230     0.322265115387     1.007825032230
         H           -2.573907766179    -0.965990022770     1.252650115387     1.007825032230

  Basis Set: AUG-CC-PVTZ
    Blend: AUG-CC-PVTZ
  Basis Set: (AUG-CC-PVTZ AUX)
    Blend: AUG-CC-PVTZ-JKFIT
	 Reference Energy          =    -274.4908970837854554 [Eh]
	 Singles Energy            =      -0.0000000000000000 [Eh]
	 Same-Spin Energy          =      -0.2968281414334480 [Eh]
	 Opposite-Spin Energy      =      -1.1069226044636054 [Eh]
	 Correlation Energy        =      -1.4037507458970533 [Eh]
	 Total Energy              =    -275.8946478296825262 [Eh]

	 ================> DF-SCS-MP2 Energies <==================
	-----------------------------------------------------------
	 SCS Same-Spin Scale       =       0.3333333333333333 [-]
	 SCS Opposite-Spin Scale   =       1.2000000000000000 [-]
	 SCS Same-Spin Energy      =      -0.0989427138111493 [Eh]
	 SCS Opposite-Spin Energy  =      -1.3283071253563263 [Eh]
	 SCS Correlation Energy    =      -1.4272498391674757 [Eh]
	 SCS Total Energy          =    -275.9181469229529284 [Eh]
	-----------------------------------------------------------

  Dipole Moment: [D]
     X:    -0.0022      Y:    -0.1036      Z:     0.0145     Total:     0.1046

*** Psi4 exiting successfully. Buy a developer a beer!
