                               Psi4 1.3.2 release

  ==> Input File <==

--------------------------------------------------------------------------
#psi4
#
memory 32 gb

molecule  {
0 1
  C        0.0000190    -0.4262070     0.3077490
  C        1.2544970    -0.8517210    -0.4669820
  C        0.0000460     1.0638580     0.6808560
  C       -1.2544680    -0.8517020    -0.4669850
  C        2.5736910    -0.5549740     0.2429080
  C       -0.0001100     2.0271580    -0.5052670
  C       -2.5736650    -0.5550660     0.2429470
  H        0.0000220    -0.9878970     1.2560840
  H        1.1980849    -1.7344266    -0.6200023
  H        1.2530210    -0.3759140    -1.4557310
  H        0.8718230     1.2713760     1.3117180
  H       -0.8715850     1.2713570     1.3119230
  H       -1.2530320    -0.3758260    -1.4557010
  H       -1.1854530    -1.9310640    -0.6541770
  H        2.7601620     0.5190550     0.3238500
  H        3.4151550    -0.9947620    -0.3010430
  H        2.5741680    -0.9734350     1.2548350
  H        0.8834690     1.8928260    -1.1356920
  H       -0.0001040     3.0640380    -0.1556120
  H       -0.8838160     1.8927720    -1.1355030
  H       -3.4151150    -0.9948620    -0.3010190
  H       -2.7601920     0.5189470     0.3239600
  H       -2.5741050    -0.9735930     1.2548470
units angstrom
no_reorient  #important for SAPT in psi4, default
symmetry c1  #important for SAPT in psi4, default
}

set PROPERTIES_ORIGIN ["COM"]
properties('MP2/aug-cc-pvtz', properties = ['dipole'])
--------------------------------------------------------------------------

    Molecular point group: c1
  Charge       = 0
  Multiplicity = 1
  Basis Set: AUG-CC-PVTZ
    Blend: AUG-CC-PVTZ
  Basis Set: (AUG-CC-PVTZ AUX)
    Blend: AUG-CC-PVTZ-JKFIT

    Orbital Energies [Eh]
    ---------------------

    Doubly Occupied:

       1A    -11.215767     2A    -11.212830     3A    -11.210368
       4A    -11.209000     5A    -11.207678     6A    -11.207332
       7A    -11.186756     8A     -1.105128     9A     -1.019848
      10A     -1.005052    11A     -0.918042    12A     -0.857057
      13A     -0.826644    14A     -0.739330    15A     -0.657369
      16A     -0.635578    17A     -0.595298    18A     -0.562883
      19A     -0.559124    20A     -0.556508    21A     -0.545233
      22A     -0.518770    23A     -0.502169    24A     -0.496546
      25A     -0.489897    26A     -0.472188    27A     -0.442956
      28A     -0.435075    29A     -0.432909

  @DF-RHF Final Energy:  -274.45904386237493

   => Energetics <=

    Nuclear Repulsion Energy =            334.7344269662268630
    One-Electron Energy =               -1032.7402717574643702
    Two-Electron Energy =                 423.5468009288625240
    Total Energy =                       -274.4590438623749264
  Basis Set: (AUG-CC-PVTZ AUX)
    Blend: AUG-CC-PVTZ-RI
    Molecular point group: c1

    Geometry (in Angstrom), charge = 0, multiplicity = 1:

       Center              X                  Y                   Z               Mass
    ------------   -----------------  -----------------  -----------------  -----------------
         C           -0.000108048291    -0.419348203876     0.305311435753    12.000000000000
         C            1.254369951709    -0.844862203876    -0.469419564247    12.000000000000
         C           -0.000081048291     1.070716796124     0.678418435753    12.000000000000
         C           -1.254595048291    -0.844843203876    -0.469422564247    12.000000000000
         C            2.573563951709    -0.548115203876     0.240470435753    12.000000000000
         C           -0.000237048291     2.034016796124    -0.507704564247    12.000000000000
         C           -2.573792048291    -0.548207203876     0.240509435753    12.000000000000
         H           -0.000105048291    -0.981038203876     1.253646435753     1.007825032230
         H            1.197957851709    -1.727567803876    -0.622439864247     1.007825032230
         H            1.252893951709    -0.369055203876    -1.458168564247     1.007825032230
         H            0.871695951709     1.278234796124     1.309280435753     1.007825032230
         H           -0.871712048291     1.278215796124     1.309485435753     1.007825032230
         H           -1.253159048291    -0.368967203876    -1.458138564247     1.007825032230
         H           -1.185580048291    -1.924205203876    -0.656614564247     1.007825032230
         H            2.760034951709     0.525913796124     0.321412435753     1.007825032230
         H            3.415027951709    -0.987903203876    -0.303480564247     1.007825032230
         H            2.574040951709    -0.966576203876     1.252397435753     1.007825032230
         H            0.883341951709     1.899684796124    -1.138129564247     1.007825032230
         H           -0.000231048291     3.070896796124    -0.158049564247     1.007825032230
         H           -0.883943048291     1.899630796124    -1.137940564247     1.007825032230
         H           -3.415242048291    -0.988003203876    -0.303456564247     1.007825032230
         H           -2.760319048291     0.525805796124     0.321522435753     1.007825032230
         H           -2.574232048291    -0.966734203876     1.252409435753     1.007825032230

  Basis Set: AUG-CC-PVTZ
    Blend: AUG-CC-PVTZ
  Basis Set: (AUG-CC-PVTZ AUX)
    Blend: AUG-CC-PVTZ-JKFIT
	 Reference Energy          =    -274.4590438623749264 [Eh]
	 Singles Energy            =      -0.0000000000000000 [Eh]
	 Same-Spin Energy          =      -0.2968538529973481 [Eh]
	 Opposite-Spin Energy      =      -1.1064736368408967 [Eh]
	 Correlation Energy        =      -1.4033274898382448 [Eh]
	 Total Energy              =    -275.8623713522131879 [Eh]

	 ================> DF-SCS-MP2 Energies <==================
	-----------------------------------------------------------
	 SCS Same-Spin Scale       =       0.3333333333333333 [-]
	 SCS Opposite-Spin Scale   =       1.2000000000000000 [-]
	 SCS Same-Spin Energy      =      -0.0989512843324493 [Eh]
	 SCS Opposite-Spin Energy  =      -1.3277683642090761 [Eh]
	 SCS Correlation Energy    =      -1.4267196485415254 [Eh]
	 SCS Total Energy          =    -275.8857635109164335 [Eh]
	-----------------------------------------------------------

  Dipole Moment: [D]
     X:    -0.0085      Y:    -0.1838      Z:    -0.0155     Total:     0.1847

*** Psi4 exiting successfully. Buy a developer a beer!
