                               Psi4 1.4a3.dev225

  ==> Input File <==

--------------------------------------------------------------------------
#psi4
#
memory 32 gb

molecule  {
0 1
  C        0.0000000    -0.4260750     0.3076100
  C        1.2544720    -0.8514380    -0.4671590
  C        0.0000000     1.0639900     0.6808960
  C       -1.2544720    -0.8514380    -0.4671590
  C        2.5736720    -0.5554960     0.2430540
  C        0.0000000     2.0274100    -0.5051140
  C       -2.5736720    -0.5554960     0.2430540
  H        0.0000000    -0.9776758     1.2386601
  H        1.1852130    -1.9306880    -0.6549460
  H        1.2532300    -0.3750670    -1.4556400
  H        0.8717050     1.2713650     1.3118990
  H       -0.8717030     1.2713660     1.3119000
  H       -1.2532300    -0.3750660    -1.4556400
  H       -1.1852130    -1.9306880    -0.6549460
  H        2.7605980     0.5184190     0.3244420
  H        3.4150690    -0.9954020    -0.3009240
  H        2.5738760    -0.9743250     1.2548280
  H        0.8836400     1.8931300    -1.1354610
  H        0.0000000     3.0642610    -0.1553580
  H       -0.8836410     1.8931290    -1.1354600
  H       -3.4150690    -0.9954020    -0.3009240
  H       -2.7605980     0.5184190     0.3244430
  H       -2.5738760    -0.9743270     1.2548280
units angstrom
no_reorient  #important for SAPT in psi4, default
symmetry c1  #important for SAPT in psi4, default
}

set PROPERTIES_ORIGIN ["COM"]
properties('MP2/aug-cc-pvtz', properties = ['dipole'])
--------------------------------------------------------------------------

    Molecular point group: c1
  Charge       = 0
  Multiplicity = 1
  Basis Set: AUG-CC-PVTZ
    Blend: AUG-CC-PVTZ
  Basis Set: (AUG-CC-PVTZ AUX)
    Blend: AUG-CC-PVTZ-JKFIT

    Orbital Energies [Eh]
    ---------------------

    Doubly Occupied:

       1A    -11.214682     2A    -11.212376     3A    -11.212292
       4A    -11.211612     5A    -11.208926     6A    -11.208925
       7A    -11.208526     8A     -1.102103     9A     -1.012848
      10A     -1.003869    11A     -0.919377    12A     -0.850314
      13A     -0.816534    14A     -0.736850    15A     -0.647436
      16A     -0.633273    17A     -0.594665    18A     -0.561389
      19A     -0.557877    20A     -0.557635    21A     -0.546199
      22A     -0.516552    23A     -0.500467    24A     -0.495805
      25A     -0.483346    26A     -0.470015    27A     -0.443778
      28A     -0.434080    29A     -0.433692

  @DF-RHF Final Energy:  -274.49185644820972

   => Energetics <=

    Nuclear Repulsion Energy =            333.7551353663727696
    One-Electron Energy =               -1030.9030969727818956
    Two-Electron Energy =                 422.6561051581994093
    Total Energy =                       -274.4918564482097167
  Basis Set: (AUG-CC-PVTZ AUX)
    Blend: AUG-CC-PVTZ-RI
    Molecular point group: c1

    Geometry (in Angstrom), charge = 0, multiplicity = 1:

       Center              X                  Y                   Z               Mass
    ------------   -----------------  -----------------  -----------------  -----------------
         C           -0.000000010066    -0.417345789629     0.305691415540    12.000000000000
         C            1.254471989934    -0.842708789629    -0.469077584460    12.000000000000
         C           -0.000000010066     1.072719210371     0.678977415540    12.000000000000
         C           -1.254472010066    -0.842708789629    -0.469077584460    12.000000000000
         C            2.573671989934    -0.546766789629     0.241135415540    12.000000000000
         C           -0.000000010066     2.036139210371    -0.507032584460    12.000000000000
         C           -2.573672010066    -0.546766789629     0.241135415540    12.000000000000
         H           -0.000000010066    -0.968946589629     1.236741515540     1.007825032230
         H            1.185212989934    -1.921958789629    -0.656864584460     1.007825032230
         H            1.253229989934    -0.366337789629    -1.457558584460     1.007825032230
         H            0.871704989934     1.280094210371     1.309980415540     1.007825032230
         H           -0.871703010066     1.280095210371     1.309981415540     1.007825032230
         H           -1.253230010066    -0.366336789629    -1.457558584460     1.007825032230
         H           -1.185213010066    -1.921958789629    -0.656864584460     1.007825032230
         H            2.760597989934     0.527148210371     0.322523415540     1.007825032230
         H            3.415068989934    -0.986672789629    -0.302842584460     1.007825032230
         H            2.573875989934    -0.965595789629     1.252909415540     1.007825032230
         H            0.883639989934     1.901859210371    -1.137379584460     1.007825032230
         H           -0.000000010066     3.072990210371    -0.157276584460     1.007825032230
         H           -0.883641010066     1.901858210371    -1.137378584460     1.007825032230
         H           -3.415069010066    -0.986672789629    -0.302842584460     1.007825032230
         H           -2.760598010066     0.527148210371     0.322524415540     1.007825032230
         H           -2.573876010066    -0.965597789629     1.252909415540     1.007825032230

  Basis Set: AUG-CC-PVTZ
    Blend: AUG-CC-PVTZ
  Basis Set: (AUG-CC-PVTZ AUX)
    Blend: AUG-CC-PVTZ-JKFIT
	 Reference Energy          =    -274.4918564482097167 [Eh]
	 Singles Energy            =      -0.0000000000000000 [Eh]
	 Same-Spin Energy          =      -0.2968259054832845 [Eh]
	 Opposite-Spin Energy      =      -1.1070997996572642 [Eh]
	 Correlation Energy        =      -1.4039257051405487 [Eh]
	 Total Energy              =    -275.8957821533502397 [Eh]

	 ================> DF-SCS-MP2 Energies <==================
	-----------------------------------------------------------
	 SCS Same-Spin Scale       =       0.3333333333333333 [-]
	 SCS Opposite-Spin Scale   =       1.2000000000000000 [-]
	 SCS Same-Spin Energy      =      -0.0989419684944282 [Eh]
	 SCS Opposite-Spin Energy  =      -1.3285197595887170 [Eh]
	 SCS Correlation Energy    =      -1.4274617280831452 [Eh]
	 SCS Total Energy          =    -275.9193181762928475 [Eh]
	-----------------------------------------------------------

  Dipole Moment: [D]
     X:     0.0000      Y:    -0.0756      Z:     0.0422     Total:     0.0866

*** Psi4 exiting successfully. Buy a developer a beer!
