                               Psi4 1.3.2 release

  ==> Input File <==

--------------------------------------------------------------------------
#psi4
#
memory 32 gb

molecule  {
0 1
  C        0.0000190    -0.4262070     0.3077490
  C        1.2544970    -0.8517210    -0.4669820
  C        0.0000460     1.0638580     0.6808560
  C       -1.2544680    -0.8517020    -0.4669850
  C        2.5736910    -0.5549740     0.2429080
  C       -0.0001100     2.0271580    -0.5052670
  C       -2.5736650    -0.5550660     0.2429470
  H        0.0000220    -0.9878970     1.2560840
  H        1.1842130    -1.9153016    -0.7290531
  H        1.2530210    -0.3759140    -1.4557310
  H        0.8718230     1.2713760     1.3117180
  H       -0.8715850     1.2713570     1.3119230
  H       -1.2530320    -0.3758260    -1.4557010
  H       -1.1854530    -1.9310640    -0.6541770
  H        2.7601620     0.5190550     0.3238500
  H        3.4151550    -0.9947620    -0.3010430
  H        2.5741680    -0.9734350     1.2548350
  H        0.8834690     1.8928260    -1.1356920
  H       -0.0001040     3.0640380    -0.1556120
  H       -0.8838160     1.8927720    -1.1355030
  H       -3.4151150    -0.9948620    -0.3010190
  H       -2.7601920     0.5189470     0.3239600
  H       -2.5741050    -0.9735930     1.2548470
units angstrom
no_reorient  #important for SAPT in psi4, default
symmetry c1  #important for SAPT in psi4, default
}

set PROPERTIES_ORIGIN ["COM"]
properties('MP2/aug-cc-pvtz', properties = ['dipole'])
--------------------------------------------------------------------------

    Molecular point group: c1
  Charge       = 0
  Multiplicity = 1
  Basis Set: AUG-CC-PVTZ
    Blend: AUG-CC-PVTZ
  Basis Set: (AUG-CC-PVTZ AUX)
    Blend: AUG-CC-PVTZ-JKFIT

    Orbital Energies [Eh]
    ---------------------

    Doubly Occupied:

       1A    -11.217603     2A    -11.212589     3A    -11.212376
       4A    -11.212108     5A    -11.209336     6A    -11.208905
       7A    -11.208548     8A     -1.101501     9A     -1.012735
      10A     -1.003911    11A     -0.918730    12A     -0.850712
      13A     -0.817197    14A     -0.735991    15A     -0.645350
      16A     -0.633840    17A     -0.593602    18A     -0.561098
      19A     -0.557637    20A     -0.557351    21A     -0.546070
      22A     -0.517215    23A     -0.499661    24A     -0.496802
      25A     -0.484270    26A     -0.468053    27A     -0.440965
      28A     -0.435812    29A     -0.434159

  @DF-RHF Final Energy:  -274.49119088412300

   => Energetics <=

    Nuclear Repulsion Energy =            333.6207431693226226
    One-Electron Energy =               -1030.6356099594981970
    Two-Electron Energy =                 422.5236759060525742
    Total Energy =                       -274.4911908841230002
  Basis Set: (AUG-CC-PVTZ AUX)
    Blend: AUG-CC-PVTZ-RI
    Molecular point group: c1

    Geometry (in Angstrom), charge = 0, multiplicity = 1:

       Center              X                  Y                   Z               Mass
    ------------   -----------------  -----------------  -----------------  -----------------
         C            0.000031581373    -0.417527579780     0.306409102729    12.000000000000
         C            1.254509581373    -0.843041579780    -0.468321897271    12.000000000000
         C            0.000058581373     1.072537420220     0.679516102729    12.000000000000
         C           -1.254455418627    -0.843022579780    -0.468324897271    12.000000000000
         C            2.573703581373    -0.546294579780     0.241568102729    12.000000000000
         C           -0.000097418627     2.035837420220    -0.506606897271    12.000000000000
         C           -2.573652418627    -0.546386579780     0.241607102729    12.000000000000
         H            0.000034581373    -0.979217579780     1.254744102729     1.007825032230
         H            1.184225581373    -1.906622179780    -0.730392997271     1.007825032230
         H            1.253033581373    -0.367234579780    -1.457070897271     1.007825032230
         H            0.871835581373     1.280055420220     1.310378102729     1.007825032230
         H           -0.871572418627     1.280036420220     1.310583102729     1.007825032230
         H           -1.253019418627    -0.367146579780    -1.457040897271     1.007825032230
         H           -1.185440418627    -1.922384579780    -0.655516897271     1.007825032230
         H            2.760174581373     0.527734420220     0.322510102729     1.007825032230
         H            3.415167581373    -0.986082579780    -0.302382897271     1.007825032230
         H            2.574180581373    -0.964755579780     1.253495102729     1.007825032230
         H            0.883481581373     1.901505420220    -1.137031897271     1.007825032230
         H           -0.000091418627     3.072717420220    -0.156951897271     1.007825032230
         H           -0.883803418627     1.901451420220    -1.136842897271     1.007825032230
         H           -3.415102418627    -0.986182579780    -0.302358897271     1.007825032230
         H           -2.760179418627     0.527626420220     0.322620102729     1.007825032230
         H           -2.574092418627    -0.964913579780     1.253507102729     1.007825032230

  Basis Set: AUG-CC-PVTZ
    Blend: AUG-CC-PVTZ
  Basis Set: (AUG-CC-PVTZ AUX)
    Blend: AUG-CC-PVTZ-JKFIT
	 Reference Energy          =    -274.4911908841230002 [Eh]
	 Singles Energy            =      -0.0000000000000000 [Eh]
	 Same-Spin Energy          =      -0.2968759995150622 [Eh]
	 Opposite-Spin Energy      =      -1.1072501628955767 [Eh]
	 Correlation Energy        =      -1.4041261624106389 [Eh]
	 Total Energy              =    -275.8953170465336484 [Eh]

	 ================> DF-SCS-MP2 Energies <==================
	-----------------------------------------------------------
	 SCS Same-Spin Scale       =       0.3333333333333333 [-]
	 SCS Opposite-Spin Scale   =       1.2000000000000000 [-]
	 SCS Same-Spin Energy      =      -0.0989586665050207 [Eh]
	 SCS Opposite-Spin Energy  =      -1.3287001954746920 [Eh]
	 SCS Correlation Energy    =      -1.4276588619797126 [Eh]
	 SCS Total Energy          =    -275.9188497461026941 [Eh]
	-----------------------------------------------------------

  Dipole Moment: [D]
     X:     0.0030      Y:    -0.0639      Z:     0.0095     Total:     0.0647

*** Psi4 exiting successfully. Buy a developer a beer!
