                               Psi4 1.3.2 release

  ==> Input File <==

--------------------------------------------------------------------------
#psi4
#
memory 32 gb

molecule  {
0 1
  C        0.0315772    -0.4081884     0.3471012
  C        1.2544970    -0.8517210    -0.4669820
  C        0.0000460     1.0638580     0.6808560
  C       -1.2544680    -0.8517020    -0.4669850
  C        2.5736910    -0.5549740     0.2429080
  C       -0.0001100     2.0271580    -0.5052670
  C       -2.5736650    -0.5550660     0.2429470
  H        0.0000220    -0.9878970     1.2560840
  H        1.1855160    -1.9310980    -0.6540960
  H        1.2530210    -0.3759140    -1.4557310
  H        0.8718230     1.2713760     1.3117180
  H       -0.8715850     1.2713570     1.3119230
  H       -1.2530320    -0.3758260    -1.4557010
  H       -1.1854530    -1.9310640    -0.6541770
  H        2.7601620     0.5190550     0.3238500
  H        3.4151550    -0.9947620    -0.3010430
  H        2.5741680    -0.9734350     1.2548350
  H        0.8834690     1.8928260    -1.1356920
  H       -0.0001040     3.0640380    -0.1556120
  H       -0.8838160     1.8927720    -1.1355030
  H       -3.4151150    -0.9948620    -0.3010190
  H       -2.7601920     0.5189470     0.3239600
  H       -2.5741050    -0.9735930     1.2548470
units angstrom
no_reorient  #important for SAPT in psi4, default
symmetry c1  #important for SAPT in psi4, default
}

set PROPERTIES_ORIGIN ["COM"]
properties('MP2/aug-cc-pvtz', properties = ['dipole'])
--------------------------------------------------------------------------

    Molecular point group: c1
  Charge       = 0
  Multiplicity = 1
  Basis Set: AUG-CC-PVTZ
    Blend: AUG-CC-PVTZ
  Basis Set: (AUG-CC-PVTZ AUX)
    Blend: AUG-CC-PVTZ-JKFIT

    Orbital Energies [Eh]
    ---------------------

    Doubly Occupied:

       1A    -11.216458     2A    -11.213299     3A    -11.212616
       4A    -11.211172     5A    -11.209563     6A    -11.207970
       7A    -11.207932     8A     -1.100559     9A     -1.011312
      10A     -1.004116    11A     -0.918192    12A     -0.851938
      13A     -0.813284    14A     -0.737737    15A     -0.647260
      16A     -0.633517    17A     -0.593514    18A     -0.562536
      19A     -0.557938    20A     -0.555333    21A     -0.544820
      22A     -0.517038    23A     -0.501106    24A     -0.495979
      25A     -0.483183    26A     -0.469374    27A     -0.451809
      28A     -0.438307    29A     -0.419453

  @DF-RHF Final Energy:  -274.48926649139179

   => Energetics <=

    Nuclear Repulsion Energy =            333.5063825479620618
    One-Electron Energy =               -1030.4166682672416755
    Two-Electron Energy =                 422.4210192278878253
    Total Energy =                       -274.4892664913917883
  Basis Set: (AUG-CC-PVTZ AUX)
    Blend: AUG-CC-PVTZ-RI
    Molecular point group: c1

    Geometry (in Angstrom), charge = 0, multiplicity = 1:

       Center              X                  Y                   Z               Mass
    ------------   -----------------  -----------------  -----------------  -----------------
         C            0.027794417228    -0.401509507036     0.340290451845    12.000000000000
         C            1.250714217228    -0.845042107036    -0.473792748155    12.000000000000
         C           -0.003736782772     1.070536892964     0.674045251845    12.000000000000
         C           -1.258250782772    -0.845023107036    -0.473795748155    12.000000000000
         C            2.569908217228    -0.548295107036     0.236097251845    12.000000000000
         C           -0.003892782772     2.033836892964    -0.512077748155    12.000000000000
         C           -2.577447782772    -0.548387107036     0.236136251845    12.000000000000
         H           -0.003760782772    -0.981218107036     1.249273251845     1.007825032230
         H            1.181733217228    -1.924419107036    -0.660906748155     1.007825032230
         H            1.249238217228    -0.369235107036    -1.462541748155     1.007825032230
         H            0.868040217228     1.278054892964     1.304907251845     1.007825032230
         H           -0.875367782772     1.278035892964     1.305112251845     1.007825032230
         H           -1.256814782772    -0.369147107036    -1.462511748155     1.007825032230
         H           -1.189235782772    -1.924385107036    -0.660987748155     1.007825032230
         H            2.756379217228     0.525733892964     0.317039251845     1.007825032230
         H            3.411372217228    -0.988083107036    -0.307853748155     1.007825032230
         H            2.570385217228    -0.966756107036     1.248024251845     1.007825032230
         H            0.879686217228     1.899504892964    -1.142502748155     1.007825032230
         H           -0.003886782772     3.070716892964    -0.162422748155     1.007825032230
         H           -0.887598782772     1.899450892964    -1.142313748155     1.007825032230
         H           -3.418897782772    -0.988183107036    -0.307829748155     1.007825032230
         H           -2.763974782772     0.525625892964     0.317149251845     1.007825032230
         H           -2.577887782772    -0.966914107036     1.248036251845     1.007825032230

  Basis Set: AUG-CC-PVTZ
    Blend: AUG-CC-PVTZ
  Basis Set: (AUG-CC-PVTZ AUX)
    Blend: AUG-CC-PVTZ-JKFIT
	 Reference Energy          =    -274.4892664913917883 [Eh]
	 Singles Energy            =      -0.0000000000000000 [Eh]
	 Same-Spin Energy          =      -0.2968090195321325 [Eh]
	 Opposite-Spin Energy      =      -1.1073108464170349 [Eh]
	 Correlation Energy        =      -1.4041198659491674 [Eh]
	 Total Energy              =    -275.8933863573409440 [Eh]

	 ================> DF-SCS-MP2 Energies <==================
	-----------------------------------------------------------
	 SCS Same-Spin Scale       =       0.3333333333333333 [-]
	 SCS Opposite-Spin Scale   =       1.2000000000000000 [-]
	 SCS Same-Spin Energy      =      -0.0989363398440442 [Eh]
	 SCS Opposite-Spin Energy  =      -1.3287730157004418 [Eh]
	 SCS Correlation Energy    =      -1.4277093555444860 [Eh]
	 SCS Total Energy          =    -275.9169758469362819 [Eh]
	-----------------------------------------------------------

  Dipole Moment: [D]
     X:     0.0131      Y:    -0.0561      Z:     0.0326     Total:     0.0662

*** Psi4 exiting successfully. Buy a developer a beer!
