                               Psi4 1.4a3.dev225

  ==> Input File <==

--------------------------------------------------------------------------
#psi4
#
memory 32 gb

molecule  {
0 1
  C        0.0000000    -0.4260750     0.3076100
  C        1.2544720    -0.8514380    -0.4671590
  C        0.0000000     1.0639900     0.6808960
  C       -1.2544720    -0.8514380    -0.4671590
  C        2.5736720    -0.5554960     0.2430540
  C        0.0000000     2.0274100    -0.5051140
  C       -2.5736720    -0.5554960     0.2430540
  H        0.0000000    -0.9878700     1.2558670
  H        1.1864749    -1.9110233    -0.6515244
  H        1.2532300    -0.3750670    -1.4556400
  H        0.8717050     1.2713650     1.3118990
  H       -0.8717030     1.2713660     1.3119000
  H       -1.2532300    -0.3750660    -1.4556400
  H       -1.1852130    -1.9306880    -0.6549460
  H        2.7605980     0.5184190     0.3244420
  H        3.4150690    -0.9954020    -0.3009240
  H        2.5738760    -0.9743250     1.2548280
  H        0.8836400     1.8931300    -1.1354610
  H        0.0000000     3.0642610    -0.1553580
  H       -0.8836410     1.8931290    -1.1354600
  H       -3.4150690    -0.9954020    -0.3009240
  H       -2.7605980     0.5184190     0.3244430
  H       -2.5738760    -0.9743270     1.2548280
units angstrom
no_reorient  #important for SAPT in psi4, default
symmetry c1  #important for SAPT in psi4, default
}

set PROPERTIES_ORIGIN ["COM"]
properties('MP2/aug-cc-pvtz', properties = ['dipole'])
--------------------------------------------------------------------------

    Molecular point group: c1
  Charge       = 0
  Multiplicity = 1
  Basis Set: AUG-CC-PVTZ
    Blend: AUG-CC-PVTZ
  Basis Set: (AUG-CC-PVTZ AUX)
    Blend: AUG-CC-PVTZ-JKFIT

    Orbital Energies [Eh]
    ---------------------

    Doubly Occupied:

       1A    -11.217033     2A    -11.212593     3A    -11.211638
       4A    -11.210067     5A    -11.208934     6A    -11.208674
       7A    -11.208566     8A     -1.101817     9A     -1.013291
      10A     -1.004117    11A     -0.918640    12A     -0.850654
      13A     -0.817503    14A     -0.735151    15A     -0.647773
      16A     -0.633732    17A     -0.594734    18A     -0.561375
      19A     -0.557959    20A     -0.557224    21A     -0.545845
      22A     -0.516752    23A     -0.500455    24A     -0.495883
      25A     -0.484201    26A     -0.470572    27A     -0.442252
      28A     -0.434144    29A     -0.434079

  @DF-RHF Final Energy:  -274.49183369039503

   => Energetics <=

    Nuclear Repulsion Energy =            333.7481970723575841
    One-Electron Energy =               -1030.8887479206487114
    Two-Electron Energy =                 422.6487171578961011
    Total Energy =                       -274.4918336903950262
  Basis Set: (AUG-CC-PVTZ AUX)
    Blend: AUG-CC-PVTZ-RI
    Molecular point group: c1

    Geometry (in Angstrom), charge = 0, multiplicity = 1:

       Center              X                  Y                   Z               Mass
    ------------   -----------------  -----------------  -----------------  -----------------
         C           -0.000012711907    -0.417441116349     0.305483776319    12.000000000000
         C            1.254459288093    -0.842804116349    -0.469285223681    12.000000000000
         C           -0.000012711907     1.072623883651     0.678769776319    12.000000000000
         C           -1.254484711907    -0.842804116349    -0.469285223681    12.000000000000
         C            2.573659288093    -0.546862116349     0.240927776319    12.000000000000
         C           -0.000012711907     2.036043883651    -0.507240223681    12.000000000000
         C           -2.573684711907    -0.546862116349     0.240927776319    12.000000000000
         H           -0.000012711907    -0.979236116349     1.253740776319     1.007825032230
         H            1.186462188093    -1.902389416349    -0.653650623681     1.007825032230
         H            1.253217288093    -0.366433116349    -1.457766223681     1.007825032230
         H            0.871692288093     1.279998883651     1.309772776319     1.007825032230
         H           -0.871715711907     1.279999883651     1.309773776319     1.007825032230
         H           -1.253242711907    -0.366432116349    -1.457766223681     1.007825032230
         H           -1.185225711907    -1.922054116349    -0.657072223681     1.007825032230
         H            2.760585288093     0.527052883651     0.322315776319     1.007825032230
         H            3.415056288093    -0.986768116349    -0.303050223681     1.007825032230
         H            2.573863288093    -0.965691116349     1.252701776319     1.007825032230
         H            0.883627288093     1.901763883651    -1.137587223681     1.007825032230
         H           -0.000012711907     3.072894883651    -0.157484223681     1.007825032230
         H           -0.883653711907     1.901762883651    -1.137586223681     1.007825032230
         H           -3.415081711907    -0.986768116349    -0.303050223681     1.007825032230
         H           -2.760610711907     0.527052883651     0.322316776319     1.007825032230
         H           -2.573888711907    -0.965693116349     1.252701776319     1.007825032230

  Basis Set: AUG-CC-PVTZ
    Blend: AUG-CC-PVTZ
  Basis Set: (AUG-CC-PVTZ AUX)
    Blend: AUG-CC-PVTZ-JKFIT
	 Reference Energy          =    -274.4918336903950262 [Eh]
	 Singles Energy            =      -0.0000000000000000 [Eh]
	 Same-Spin Energy          =      -0.2968365387827254 [Eh]
	 Opposite-Spin Energy      =      -1.1071058089158488 [Eh]
	 Correlation Energy        =      -1.4039423476985742 [Eh]
	 Total Energy              =    -275.8957760380935724 [Eh]

	 ================> DF-SCS-MP2 Energies <==================
	-----------------------------------------------------------
	 SCS Same-Spin Scale       =       0.3333333333333333 [-]
	 SCS Opposite-Spin Scale   =       1.2000000000000000 [-]
	 SCS Same-Spin Energy      =      -0.0989455129275751 [Eh]
	 SCS Opposite-Spin Energy  =      -1.3285269706990184 [Eh]
	 SCS Correlation Energy    =      -1.4274724836265935 [Eh]
	 SCS Total Energy          =    -275.9193061740216422 [Eh]
	-----------------------------------------------------------

  Dipole Moment: [D]
     X:    -0.0009      Y:    -0.0817      Z:     0.0222     Total:     0.0847

*** Psi4 exiting successfully. Buy a developer a beer!
