                               Psi4 1.3.2 release

  ==> Input File <==

--------------------------------------------------------------------------
#psi4
#
memory 32 gb

molecule  {
0 1
  C        0.0598376    -0.2771410     0.3060846
  C        1.2544970    -0.8517210    -0.4669820
  C        0.0000460     1.0638580     0.6808560
  C       -1.2544680    -0.8517020    -0.4669850
  C        2.5736910    -0.5549740     0.2429080
  C       -0.0001100     2.0271580    -0.5052670
  C       -2.5736650    -0.5550660     0.2429470
  H        0.0000220    -0.9878970     1.2560840
  H        1.1855160    -1.9310980    -0.6540960
  H        1.2530210    -0.3759140    -1.4557310
  H        0.8718230     1.2713760     1.3117180
  H       -0.8715850     1.2713570     1.3119230
  H       -1.2530320    -0.3758260    -1.4557010
  H       -1.1854530    -1.9310640    -0.6541770
  H        2.7601620     0.5190550     0.3238500
  H        3.4151550    -0.9947620    -0.3010430
  H        2.5741680    -0.9734350     1.2548350
  H        0.8834690     1.8928260    -1.1356920
  H       -0.0001040     3.0640380    -0.1556120
  H       -0.8838160     1.8927720    -1.1355030
  H       -3.4151150    -0.9948620    -0.3010190
  H       -2.7601920     0.5189470     0.3239600
  H       -2.5741050    -0.9735930     1.2548470
units angstrom
no_reorient  #important for SAPT in psi4, default
symmetry c1  #important for SAPT in psi4, default
}

set PROPERTIES_ORIGIN ["COM"]
properties('MP2/aug-cc-pvtz', properties = ['dipole'])
--------------------------------------------------------------------------

    Molecular point group: c1
  Charge       = 0
  Multiplicity = 1
  Basis Set: AUG-CC-PVTZ
    Blend: AUG-CC-PVTZ
  Basis Set: (AUG-CC-PVTZ AUX)
    Blend: AUG-CC-PVTZ-JKFIT

    Orbital Energies [Eh]
    ---------------------

    Doubly Occupied:

       1A    -11.223360     2A    -11.215528     3A    -11.215092
       4A    -11.210253     5A    -11.208218     6A    -11.207767
       7A    -11.207756     8A     -1.112889     9A     -1.013332
      10A     -1.007547    11A     -0.917910    12A     -0.860778
      13A     -0.812108    14A     -0.724987    15A     -0.652569
      16A     -0.642380    17A     -0.589369    18A     -0.573495
      19A     -0.558731    20A     -0.553620    21A     -0.543359
      22A     -0.520695    23A     -0.499415    24A     -0.498597
      25A     -0.485319    26A     -0.472393    27A     -0.470231
      28A     -0.419643    29A     -0.399310

  @DF-RHF Final Energy:  -274.46273009188059

   => Energetics <=

    Nuclear Repulsion Energy =            334.5134802827360545
    One-Electron Energy =               -1032.3191241059603271
    Two-Electron Energy =                 423.3429137313436854
    Total Energy =                       -274.4627300918805872
  Basis Set: (AUG-CC-PVTZ AUX)
    Blend: AUG-CC-PVTZ-RI
    Molecular point group: c1

    Geometry (in Angstrom), charge = 0, multiplicity = 1:

       Center              X                  Y                   Z               Mass
    ------------   -----------------  -----------------  -----------------  -----------------
         C            0.052667809779    -0.286168131013     0.304189689191    12.000000000000
         C            1.247327209779    -0.860748131013    -0.468876910809    12.000000000000
         C           -0.007123790221     1.054830868987     0.678961089191    12.000000000000
         C           -1.261637790221    -0.860729131013    -0.468879910809    12.000000000000
         C            2.566521209779    -0.564001131013     0.241013089191    12.000000000000
         C           -0.007279790221     2.018130868987    -0.507161910809    12.000000000000
         C           -2.580834790221    -0.564093131013     0.241052089191    12.000000000000
         H           -0.007147790221    -0.996924131013     1.254189089191     1.007825032230
         H            1.178346209779    -1.940125131013    -0.655990910809     1.007825032230
         H            1.245851209779    -0.384941131013    -1.457625910809     1.007825032230
         H            0.864653209779     1.262348868987     1.309823089191     1.007825032230
         H           -0.878754790221     1.262329868987     1.310028089191     1.007825032230
         H           -1.260201790221    -0.384853131013    -1.457595910809     1.007825032230
         H           -1.192622790221    -1.940091131013    -0.656071910809     1.007825032230
         H            2.752992209779     0.510027868987     0.321955089191     1.007825032230
         H            3.407985209779    -1.003789131013    -0.302937910809     1.007825032230
         H            2.566998209779    -0.982462131013     1.252940089191     1.007825032230
         H            0.876299209779     1.883798868987    -1.137586910809     1.007825032230
         H           -0.007273790221     3.055010868987    -0.157506910809     1.007825032230
         H           -0.890985790221     1.883744868987    -1.137397910809     1.007825032230
         H           -3.422284790221    -1.003889131013    -0.302913910809     1.007825032230
         H           -2.767361790221     0.509919868987     0.322065089191     1.007825032230
         H           -2.581274790221    -0.982620131013     1.252952089191     1.007825032230

  Basis Set: AUG-CC-PVTZ
    Blend: AUG-CC-PVTZ
  Basis Set: (AUG-CC-PVTZ AUX)
    Blend: AUG-CC-PVTZ-JKFIT
	 Reference Energy          =    -274.4627300918805872 [Eh]
	 Singles Energy            =      -0.0000000000000000 [Eh]
	 Same-Spin Energy          =      -0.2984582243386368 [Eh]
	 Opposite-Spin Energy      =      -1.1099749622424491 [Eh]
	 Correlation Energy        =      -1.4084331865810857 [Eh]
	 Total Energy              =    -275.8711632784616654 [Eh]

	 ================> DF-SCS-MP2 Energies <==================
	-----------------------------------------------------------
	 SCS Same-Spin Scale       =       0.3333333333333333 [-]
	 SCS Opposite-Spin Scale   =       1.2000000000000000 [-]
	 SCS Same-Spin Energy      =      -0.0994860747795456 [Eh]
	 SCS Opposite-Spin Energy  =      -1.3319699546909389 [Eh]
	 SCS Correlation Energy    =      -1.4314560294704846 [Eh]
	 SCS Total Energy          =    -275.8941861213510833 [Eh]
	-----------------------------------------------------------

  Dipole Moment: [D]
     X:     0.0271      Y:     0.0298      Z:    -0.0191     Total:     0.0446

*** Psi4 exiting successfully. Buy a developer a beer!
