                               Psi4 1.3.2 release

  ==> Input File <==

--------------------------------------------------------------------------
#psi4
#
memory 32 gb

molecule  {
0 1
  C        0.0000190    -0.4262070     0.3077490
  C        1.2544970    -0.8517210    -0.4669820
  C        0.0000460     1.0638580     0.6808560
  C       -1.2544680    -0.8517020    -0.4669850
  C        2.4009288    -0.5938361     0.1499405
  C       -0.0001100     2.0271580    -0.5052670
  C       -2.5736650    -0.5550660     0.2429470
  H        0.0000220    -0.9878970     1.2560840
  H        1.1855160    -1.9310980    -0.6540960
  H        1.2530210    -0.3759140    -1.4557310
  H        0.8718230     1.2713760     1.3117180
  H       -0.8715850     1.2713570     1.3119230
  H       -1.2530320    -0.3758260    -1.4557010
  H       -1.1854530    -1.9310640    -0.6541770
  H        2.7601620     0.5190550     0.3238500
  H        3.4151550    -0.9947620    -0.3010430
  H        2.5741680    -0.9734350     1.2548350
  H        0.8834690     1.8928260    -1.1356920
  H       -0.0001040     3.0640380    -0.1556120
  H       -0.8838160     1.8927720    -1.1355030
  H       -3.4151150    -0.9948620    -0.3010190
  H       -2.7601920     0.5189470     0.3239600
  H       -2.5741050    -0.9735930     1.2548470
units angstrom
no_reorient  #important for SAPT in psi4, default
symmetry c1  #important for SAPT in psi4, default
}

set PROPERTIES_ORIGIN ["COM"]
properties('MP2/aug-cc-pvtz', properties = ['dipole'])
--------------------------------------------------------------------------

    Molecular point group: c1
  Charge       = 0
  Multiplicity = 1
  Basis Set: AUG-CC-PVTZ
    Blend: AUG-CC-PVTZ
  Basis Set: (AUG-CC-PVTZ AUX)
    Blend: AUG-CC-PVTZ-JKFIT

    Orbital Energies [Eh]
    ---------------------

    Doubly Occupied:

       1A    -11.223889     2A    -11.219055     3A    -11.213498
       4A    -11.212132     5A    -11.209565     6A    -11.209005
       7A    -11.203087     8A     -1.118687     9A     -1.040465
      10A     -1.006273    11A     -0.918196    12A     -0.848941
      13A     -0.804363    14A     -0.738660    15A     -0.653596
      16A     -0.636593    17A     -0.601629    18A     -0.591629
      19A     -0.560193    20A     -0.558275    21A     -0.547468
      22A     -0.515783    23A     -0.497768    24A     -0.493250
      25A     -0.480467    26A     -0.451510    27A     -0.443170
      28A     -0.428943    29A     -0.418221

  @DF-RHF Final Energy:  -274.44208370530663

   => Energetics <=

    Nuclear Repulsion Energy =            336.6907530993933051
    One-Electron Energy =               -1036.5770480841181325
    Two-Electron Energy =                 425.4442112794181980
    Total Energy =                       -274.4420837053066293
  Basis Set: (AUG-CC-PVTZ AUX)
    Blend: AUG-CC-PVTZ-RI
    Molecular point group: c1

    Geometry (in Angstrom), charge = 0, multiplicity = 1:

       Center              X                  Y                   Z               Mass
    ------------   -----------------  -----------------  -----------------  -----------------
         C            0.020724006390    -0.412710958141     0.316796760910    12.000000000000
         C            1.275202006390    -0.838224958141    -0.457934239090    12.000000000000
         C            0.020751006390     1.077354041859     0.689903760910    12.000000000000
         C           -1.233762993610    -0.838205958141    -0.457937239090    12.000000000000
         C            2.421633806390    -0.580340058141     0.158988260910    12.000000000000
         C            0.020595006390     2.040654041859    -0.496219239090    12.000000000000
         C           -2.552959993610    -0.541569958141     0.251994760910    12.000000000000
         H            0.020727006390    -0.974400958141     1.265131760910     1.007825032230
         H            1.206221006390    -1.917601958141    -0.645048239090     1.007825032230
         H            1.273726006390    -0.362417958141    -1.446683239090     1.007825032230
         H            0.892528006390     1.284872041859     1.320765760910     1.007825032230
         H           -0.850879993610     1.284853041859     1.320970760910     1.007825032230
         H           -1.232326993610    -0.362329958141    -1.446653239090     1.007825032230
         H           -1.164747993610    -1.917567958141    -0.645129239090     1.007825032230
         H            2.780867006390     0.532551041859     0.332897760910     1.007825032230
         H            3.435860006390    -0.981265958141    -0.291995239090     1.007825032230
         H            2.594873006390    -0.959938958141     1.263882760910     1.007825032230
         H            0.904174006390     1.906322041859    -1.126644239090     1.007825032230
         H            0.020601006390     3.077534041859    -0.146564239090     1.007825032230
         H           -0.863110993610     1.906268041859    -1.126455239090     1.007825032230
         H           -3.394409993610    -0.981365958141    -0.291971239090     1.007825032230
         H           -2.739486993610     0.532443041859     0.333007760910     1.007825032230
         H           -2.553399993610    -0.960096958141     1.263894760910     1.007825032230

  Basis Set: AUG-CC-PVTZ
    Blend: AUG-CC-PVTZ
  Basis Set: (AUG-CC-PVTZ AUX)
    Blend: AUG-CC-PVTZ-JKFIT
	 Reference Energy          =    -274.4420837053066293 [Eh]
	 Singles Energy            =      -0.0000000000000000 [Eh]
	 Same-Spin Energy          =      -0.2997423085388524 [Eh]
	 Opposite-Spin Energy      =      -1.1110555149985297 [Eh]
	 Correlation Energy        =      -1.4107978235373821 [Eh]
	 Total Energy              =    -275.8528815288440228 [Eh]

	 ================> DF-SCS-MP2 Energies <==================
	-----------------------------------------------------------
	 SCS Same-Spin Scale       =       0.3333333333333333 [-]
	 SCS Opposite-Spin Scale   =       1.2000000000000000 [-]
	 SCS Same-Spin Energy      =      -0.0999141028462841 [Eh]
	 SCS Opposite-Spin Energy  =      -1.3332666179982355 [Eh]
	 SCS Correlation Energy    =      -1.4331807208445198 [Eh]
	 SCS Total Energy          =    -275.8752644261511477 [Eh]
	-----------------------------------------------------------

  Dipole Moment: [D]
     X:    -0.0700      Y:    -0.0717      Z:    -0.0201     Total:     0.1022

*** Psi4 exiting successfully. Buy a developer a beer!
