                               Psi4 1.3.2 release

  ==> Input File <==

--------------------------------------------------------------------------
#psi4
#
memory 32 gb

molecule  {
0 1
  C        0.0000190    -0.4262070     0.3077490
  C        1.2544970    -0.8517210    -0.4669820
  C        0.0000460     1.0638580     0.6808560
  C       -1.2544680    -0.8517020    -0.4669850
  C        2.5736910    -0.5549740     0.2429080
  C       -0.0001100     2.0271580    -0.5052670
  C       -2.5736650    -0.5550660     0.2429470
  H        0.0000223    -1.0388580     1.3421245
  H        1.1855160    -1.9310980    -0.6540960
  H        1.2530210    -0.3759140    -1.4557310
  H        0.8718230     1.2713760     1.3117180
  H       -0.8715850     1.2713570     1.3119230
  H       -1.2530320    -0.3758260    -1.4557010
  H       -1.1854530    -1.9310640    -0.6541770
  H        2.7601620     0.5190550     0.3238500
  H        3.4151550    -0.9947620    -0.3010430
  H        2.5741680    -0.9734350     1.2548350
  H        0.8834690     1.8928260    -1.1356920
  H       -0.0001040     3.0640380    -0.1556120
  H       -0.8838160     1.8927720    -1.1355030
  H       -3.4151150    -0.9948620    -0.3010190
  H       -2.7601920     0.5189470     0.3239600
  H       -2.5741050    -0.9735930     1.2548470
units angstrom
no_reorient  #important for SAPT in psi4, default
symmetry c1  #important for SAPT in psi4, default
}

set PROPERTIES_ORIGIN ["COM"]
properties('MP2/aug-cc-pvtz', properties = ['dipole'])
--------------------------------------------------------------------------

    Molecular point group: c1
  Charge       = 0
  Multiplicity = 1
  Basis Set: AUG-CC-PVTZ
    Blend: AUG-CC-PVTZ
  Basis Set: (AUG-CC-PVTZ AUX)
    Blend: AUG-CC-PVTZ-JKFIT

    Orbital Energies [Eh]
    ---------------------

    Doubly Occupied:

       1A    -11.229787     2A    -11.213855     3A    -11.213833
       4A    -11.212992     5A    -11.209709     6A    -11.209005
       7A    -11.209003     8A     -1.100157     9A     -1.013394
      10A     -1.004820    11A     -0.916392    12A     -0.850644
      13A     -0.817308    14A     -0.726403    15A     -0.644850
      16A     -0.634195    17A     -0.595011    18A     -0.561782
      19A     -0.558408    20A     -0.555082    21A     -0.544156
      22A     -0.517060    23A     -0.500389    24A     -0.496308
      25A     -0.484000    26A     -0.470734    27A     -0.436071
      28A     -0.435508    29A     -0.432168

  @DF-RHF Final Energy:  -274.48549201751007

   => Energetics <=

    Nuclear Repulsion Energy =            333.1703957759277159
    One-Electron Energy =               -1029.7257216317136681
    Two-Electron Energy =                 422.0698338382758266
    Total Energy =                       -274.4854920175100688
  Basis Set: (AUG-CC-PVTZ AUX)
    Blend: AUG-CC-PVTZ-RI
    Molecular point group: c1

    Geometry (in Angstrom), charge = 0, multiplicity = 1:

       Center              X                  Y                   Z               Mass
    ------------   -----------------  -----------------  -----------------  -----------------
         C            0.000018462814    -0.416855623285     0.304788557546    12.000000000000
         C            1.254496462814    -0.842369623285    -0.469942442454    12.000000000000
         C            0.000045462814     1.073209376715     0.677895557546    12.000000000000
         C           -1.254468537186    -0.842350623285    -0.469945442454    12.000000000000
         C            2.573690462814    -0.545622623285     0.239947557546    12.000000000000
         C           -0.000110537186     2.036509376715    -0.508227442454    12.000000000000
         C           -2.573665537186    -0.545714623285     0.239986557546    12.000000000000
         H            0.000021762814    -1.029506623285     1.339164057546     1.007825032230
         H            1.185515462814    -1.921746623285    -0.657056442454     1.007825032230
         H            1.253020462814    -0.366562623285    -1.458691442454     1.007825032230
         H            0.871822462814     1.280727376715     1.308757557546     1.007825032230
         H           -0.871585537186     1.280708376715     1.308962557546     1.007825032230
         H           -1.253032537186    -0.366474623285    -1.458661442454     1.007825032230
         H           -1.185453537186    -1.921712623285    -0.657137442454     1.007825032230
         H            2.760161462814     0.528406376715     0.320889557546     1.007825032230
         H            3.415154462814    -0.985410623285    -0.304003442454     1.007825032230
         H            2.574167462814    -0.964083623285     1.251874557546     1.007825032230
         H            0.883468462814     1.902177376715    -1.138652442454     1.007825032230
         H           -0.000104537186     3.073389376715    -0.158572442454     1.007825032230
         H           -0.883816537186     1.902123376715    -1.138463442454     1.007825032230
         H           -3.415115537186    -0.985510623285    -0.303979442454     1.007825032230
         H           -2.760192537186     0.528298376715     0.320999557546     1.007825032230
         H           -2.574105537186    -0.964241623285     1.251886557546     1.007825032230

  Basis Set: AUG-CC-PVTZ
    Blend: AUG-CC-PVTZ
  Basis Set: (AUG-CC-PVTZ AUX)
    Blend: AUG-CC-PVTZ-JKFIT
	 Reference Energy          =    -274.4854920175100688 [Eh]
	 Singles Energy            =      -0.0000000000000000 [Eh]
	 Same-Spin Energy          =      -0.2969337913590646 [Eh]
	 Opposite-Spin Energy      =      -1.1080495401238610 [Eh]
	 Correlation Energy        =      -1.4049833314829256 [Eh]
	 Total Energy              =    -275.8904753489929931 [Eh]

	 ================> DF-SCS-MP2 Energies <==================
	-----------------------------------------------------------
	 SCS Same-Spin Scale       =       0.3333333333333333 [-]
	 SCS Opposite-Spin Scale   =       1.2000000000000000 [-]
	 SCS Same-Spin Energy      =      -0.0989779304530215 [Eh]
	 SCS Opposite-Spin Energy  =      -1.3296594481486332 [Eh]
	 SCS Correlation Energy    =      -1.4286373786016549 [Eh]
	 SCS Total Energy          =    -275.9141293961117185 [Eh]
	-----------------------------------------------------------

  Dipole Moment: [D]
     X:     0.0000      Y:    -0.0107      Z:    -0.0573     Total:     0.0583

*** Psi4 exiting successfully. Buy a developer a beer!
