                               Psi4 1.4a3.dev225

  ==> Input File <==

--------------------------------------------------------------------------
#psi4
#
memory 32 gb

molecule  {
0 1
  C        0.0000000    -0.4260750     0.3076100
  C        1.2544720    -0.8514380    -0.4671590
  C        0.0000000     1.0639900     0.6808960
  C       -1.2544720    -0.8514380    -0.4671590
  C        2.5736720    -0.5554960     0.2430540
  C        0.0000000     2.0274100    -0.5051140
  C       -2.5736720    -0.5554960     0.2430540
  H        0.0000000    -1.0133556     1.2988843
  H        1.1852130    -1.9306880    -0.6549460
  H        1.2532300    -0.3750670    -1.4556400
  H        0.8717050     1.2713650     1.3118990
  H       -0.8717030     1.2713660     1.3119000
  H       -1.2532300    -0.3750660    -1.4556400
  H       -1.1852130    -1.9306880    -0.6549460
  H        2.7605980     0.5184190     0.3244420
  H        3.4150690    -0.9954020    -0.3009240
  H        2.5738760    -0.9743250     1.2548280
  H        0.8836400     1.8931300    -1.1354610
  H        0.0000000     3.0642610    -0.1553580
  H       -0.8836410     1.8931290    -1.1354600
  H       -3.4150690    -0.9954020    -0.3009240
  H       -2.7605980     0.5184190     0.3244430
  H       -2.5738760    -0.9743270     1.2548280
units angstrom
no_reorient  #important for SAPT in psi4, default
symmetry c1  #important for SAPT in psi4, default
}

set PROPERTIES_ORIGIN ["COM"]
properties('MP2/aug-cc-pvtz', properties = ['dipole'])
--------------------------------------------------------------------------

    Molecular point group: c1
  Charge       = 0
  Multiplicity = 1
  Basis Set: AUG-CC-PVTZ
    Blend: AUG-CC-PVTZ
  Basis Set: (AUG-CC-PVTZ AUX)
    Blend: AUG-CC-PVTZ-JKFIT

    Orbital Energies [Eh]
    ---------------------

    Doubly Occupied:

       1A    -11.223590     2A    -11.213189     3A    -11.213162
       4A    -11.212381     5A    -11.209170     6A    -11.208963
       7A    -11.208961     8A     -1.100757     9A     -1.013139
      10A     -1.004387    11A     -0.917408    12A     -0.850443
      13A     -0.816960    14A     -0.730247    15A     -0.645914
      16A     -0.633765    17A     -0.594839    18A     -0.561478
      19A     -0.558062    20A     -0.556073    21A     -0.545141
      22A     -0.516832    23A     -0.500399    24A     -0.496078
      25A     -0.483695    26A     -0.470407    27A     -0.438140
      28A     -0.434864    29A     -0.434172

  @DF-RHF Final Energy:  -274.48970664718325

   => Energetics <=

    Nuclear Repulsion Energy =            333.4031817370737940
    One-Electron Energy =               -1030.2005425816453226
    Two-Electron Energy =                 422.3076541973883309
    Total Energy =                       -274.4897066471832545
  Basis Set: (AUG-CC-PVTZ AUX)
    Blend: AUG-CC-PVTZ-RI
    Molecular point group: c1

    Geometry (in Angstrom), charge = 0, multiplicity = 1:

       Center              X                  Y                   Z               Mass
    ------------   -----------------  -----------------  -----------------  -----------------
         C           -0.000000010066    -0.416986649318     0.305085219937    12.000000000000
         C            1.254471989934    -0.842349649318    -0.469683780063    12.000000000000
         C           -0.000000010066     1.073078350682     0.678371219937    12.000000000000
         C           -1.254472010066    -0.842349649318    -0.469683780063    12.000000000000
         C            2.573671989934    -0.546407649318     0.240529219937    12.000000000000
         C           -0.000000010066     2.036498350682    -0.507638780063    12.000000000000
         C           -2.573672010066    -0.546407649318     0.240529219937    12.000000000000
         H           -0.000000010066    -1.004267249318     1.296359519937     1.007825032230
         H            1.185212989934    -1.921599649318    -0.657470780063     1.007825032230
         H            1.253229989934    -0.365978649318    -1.458164780063     1.007825032230
         H            0.871704989934     1.280453350682     1.309374219937     1.007825032230
         H           -0.871703010066     1.280454350682     1.309375219937     1.007825032230
         H           -1.253230010066    -0.365977649318    -1.458164780063     1.007825032230
         H           -1.185213010066    -1.921599649318    -0.657470780063     1.007825032230
         H            2.760597989934     0.527507350682     0.321917219937     1.007825032230
         H            3.415068989934    -0.986313649318    -0.303448780063     1.007825032230
         H            2.573875989934    -0.965236649318     1.252303219937     1.007825032230
         H            0.883639989934     1.902218350682    -1.137985780063     1.007825032230
         H           -0.000000010066     3.073349350682    -0.157882780063     1.007825032230
         H           -0.883641010066     1.902217350682    -1.137984780063     1.007825032230
         H           -3.415069010066    -0.986313649318    -0.303448780063     1.007825032230
         H           -2.760598010066     0.527507350682     0.321918219937     1.007825032230
         H           -2.573876010066    -0.965238649318     1.252303219937     1.007825032230

  Basis Set: AUG-CC-PVTZ
    Blend: AUG-CC-PVTZ
  Basis Set: (AUG-CC-PVTZ AUX)
    Blend: AUG-CC-PVTZ-JKFIT
	 Reference Energy          =    -274.4897066471832545 [Eh]
	 Singles Energy            =      -0.0000000000000000 [Eh]
	 Same-Spin Energy          =      -0.2968884496310197 [Eh]
	 Opposite-Spin Energy      =      -1.1076258221505790 [Eh]
	 Correlation Energy        =      -1.4045142717815988 [Eh]
	 Total Energy              =    -275.8942209189648338 [Eh]

	 ================> DF-SCS-MP2 Energies <==================
	-----------------------------------------------------------
	 SCS Same-Spin Scale       =       0.3333333333333333 [-]
	 SCS Opposite-Spin Scale   =       1.2000000000000000 [-]
	 SCS Same-Spin Energy      =      -0.0989628165436732 [Eh]
	 SCS Opposite-Spin Energy  =      -1.3291509865806947 [Eh]
	 SCS Correlation Energy    =      -1.4281138031243679 [Eh]
	 SCS Total Energy          =    -275.9178204503076017 [Eh]
	-----------------------------------------------------------

  Dipole Moment: [D]
     X:     0.0000      Y:    -0.0400      Z:    -0.0124     Total:     0.0418

*** Psi4 exiting successfully. Buy a developer a beer!
