                               Psi4 1.3.2 release

  ==> Input File <==

--------------------------------------------------------------------------
#psi4
#
memory 32 gb

molecule  {
0 1
  C        0.0000190    -0.4262070     0.3077490
  C        1.3034328    -0.6992088    -0.4548570
  C        0.0000460     1.0638580     0.6808560
  C       -1.2544680    -0.8517020    -0.4669850
  C        2.5736910    -0.5549740     0.2429080
  C       -0.0001100     2.0271580    -0.5052670
  C       -2.5736650    -0.5550660     0.2429470
  H        0.0000220    -0.9878970     1.2560840
  H        1.1855160    -1.9310980    -0.6540960
  H        1.2530210    -0.3759140    -1.4557310
  H        0.8718230     1.2713760     1.3117180
  H       -0.8715850     1.2713570     1.3119230
  H       -1.2530320    -0.3758260    -1.4557010
  H       -1.1854530    -1.9310640    -0.6541770
  H        2.7601620     0.5190550     0.3238500
  H        3.4151550    -0.9947620    -0.3010430
  H        2.5741680    -0.9734350     1.2548350
  H        0.8834690     1.8928260    -1.1356920
  H       -0.0001040     3.0640380    -0.1556120
  H       -0.8838160     1.8927720    -1.1355030
  H       -3.4151150    -0.9948620    -0.3010190
  H       -2.7601920     0.5189470     0.3239600
  H       -2.5741050    -0.9735930     1.2548470
units angstrom
no_reorient  #important for SAPT in psi4, default
symmetry c1  #important for SAPT in psi4, default
}

set PROPERTIES_ORIGIN ["COM"]
properties('MP2/aug-cc-pvtz', properties = ['dipole'])
--------------------------------------------------------------------------

    Molecular point group: c1
  Charge       = 0
  Multiplicity = 1
  Basis Set: AUG-CC-PVTZ
    Blend: AUG-CC-PVTZ
  Basis Set: (AUG-CC-PVTZ AUX)
    Blend: AUG-CC-PVTZ-JKFIT

    Orbital Energies [Eh]
    ---------------------

    Doubly Occupied:

       1A    -11.220428     2A    -11.219731     3A    -11.214448
       4A    -11.210599     5A    -11.210224     6A    -11.209057
       7A    -11.208974     8A     -1.105959     9A     -1.023595
      10A     -1.004874    11A     -0.922459    12A     -0.848385
      13A     -0.816001    14A     -0.736314    15A     -0.643547
      16A     -0.633656    17A     -0.601864    18A     -0.571088
      19A     -0.560474    20A     -0.556635    21A     -0.551308
      22A     -0.518274    23A     -0.508140    24A     -0.497739
      25A     -0.484687    26A     -0.458802    27A     -0.445829
      28A     -0.441706    29A     -0.403615

  @DF-RHF Final Energy:  -274.46649851572266

   => Energetics <=

    Nuclear Repulsion Energy =            334.5391714555793214
    One-Electron Energy =               -1032.3545151292139508
    Two-Electron Energy =                 423.3488451579119669
    Total Energy =                       -274.4664985157226624
  Basis Set: (AUG-CC-PVTZ AUX)
    Blend: AUG-CC-PVTZ-RI
    Molecular point group: c1

    Geometry (in Angstrom), charge = 0, multiplicity = 1:

       Center              X                  Y                   Z               Mass
    ------------   -----------------  -----------------  -----------------  -----------------
         C           -0.005846487215    -0.435647157901     0.304201430329    12.000000000000
         C            1.297567312785    -0.708648957901    -0.458404569671    12.000000000000
         C           -0.005819487215     1.054417842099     0.677308430329    12.000000000000
         C           -1.260333487215    -0.861142157901    -0.470532569671    12.000000000000
         C            2.567825512785    -0.564414157901     0.239360430329    12.000000000000
         C           -0.005975487215     2.017717842099    -0.508814569671    12.000000000000
         C           -2.579530487215    -0.564506157901     0.239399430329    12.000000000000
         H           -0.005843487215    -0.997337157901     1.252536430329     1.007825032230
         H            1.179650512785    -1.940538157901    -0.657643569671     1.007825032230
         H            1.247155512785    -0.385354157901    -1.459278569671     1.007825032230
         H            0.865957512785     1.261935842099     1.308170430329     1.007825032230
         H           -0.877450487215     1.261916842099     1.308375430329     1.007825032230
         H           -1.258897487215    -0.385266157901    -1.459248569671     1.007825032230
         H           -1.191318487215    -1.940504157901    -0.657724569671     1.007825032230
         H            2.754296512785     0.509614842099     0.320302430329     1.007825032230
         H            3.409289512785    -1.004202157901    -0.304590569671     1.007825032230
         H            2.568302512785    -0.982875157901     1.251287430329     1.007825032230
         H            0.877603512785     1.883385842099    -1.139239569671     1.007825032230
         H           -0.005969487215     3.054597842099    -0.159159569671     1.007825032230
         H           -0.889681487215     1.883331842099    -1.139050569671     1.007825032230
         H           -3.420980487215    -1.004302157901    -0.304566569671     1.007825032230
         H           -2.766057487215     0.509506842099     0.320412430329     1.007825032230
         H           -2.579970487215    -0.983033157901     1.251299430329     1.007825032230

  Basis Set: AUG-CC-PVTZ
    Blend: AUG-CC-PVTZ
  Basis Set: (AUG-CC-PVTZ AUX)
    Blend: AUG-CC-PVTZ-JKFIT
	 Reference Energy          =    -274.4664985157226624 [Eh]
	 Singles Energy            =      -0.0000000000000000 [Eh]
	 Same-Spin Energy          =      -0.2980312172679161 [Eh]
	 Opposite-Spin Energy      =      -1.1094371521673718 [Eh]
	 Correlation Energy        =      -1.4074683694352879 [Eh]
	 Total Energy              =    -275.8739668851579268 [Eh]

	 ================> DF-SCS-MP2 Energies <==================
	-----------------------------------------------------------
	 SCS Same-Spin Scale       =       0.3333333333333333 [-]
	 SCS Opposite-Spin Scale   =       1.2000000000000000 [-]
	 SCS Same-Spin Energy      =      -0.0993437390893054 [Eh]
	 SCS Opposite-Spin Energy  =      -1.3313245826008462 [Eh]
	 SCS Correlation Energy    =      -1.4306683216901517 [Eh]
	 SCS Total Energy          =    -275.8971668374128399 [Eh]
	-----------------------------------------------------------

  Dipole Moment: [D]
     X:     0.0039      Y:     0.0361      Z:     0.0508     Total:     0.0624

*** Psi4 exiting successfully. Buy a developer a beer!
