                               Psi4 1.4a3.dev225

  ==> Input File <==

--------------------------------------------------------------------------
#psi4
#
memory 32 gb

molecule  {
0 1
  C        0.0000000    -0.4260750     0.3076100
  C        1.2381225    -0.8458943    -0.4570615
  C        0.0000000     1.0639900     0.6808960
  C       -1.2544720    -0.8514380    -0.4671590
  C        2.5736720    -0.5554960     0.2430540
  C        0.0000000     2.0274100    -0.5051140
  C       -2.5736720    -0.5554960     0.2430540
  H        0.0000000    -0.9878700     1.2558670
  H        1.1852130    -1.9306880    -0.6549460
  H        1.2532300    -0.3750670    -1.4556400
  H        0.8717050     1.2713650     1.3118990
  H       -0.8717030     1.2713660     1.3119000
  H       -1.2532300    -0.3750660    -1.4556400
  H       -1.1852130    -1.9306880    -0.6549460
  H        2.7605980     0.5184190     0.3244420
  H        3.4150690    -0.9954020    -0.3009240
  H        2.5738760    -0.9743250     1.2548280
  H        0.8836400     1.8931300    -1.1354610
  H        0.0000000     3.0642610    -0.1553580
  H       -0.8836410     1.8931290    -1.1354600
  H       -3.4150690    -0.9954020    -0.3009240
  H       -2.7605980     0.5184190     0.3244430
  H       -2.5738760    -0.9743270     1.2548280
units angstrom
no_reorient  #important for SAPT in psi4, default
symmetry c1  #important for SAPT in psi4, default
}

set PROPERTIES_ORIGIN ["COM"]
properties('MP2/aug-cc-pvtz', properties = ['dipole'])
--------------------------------------------------------------------------

    Molecular point group: c1
  Charge       = 0
  Multiplicity = 1
  Basis Set: AUG-CC-PVTZ
    Blend: AUG-CC-PVTZ
  Basis Set: (AUG-CC-PVTZ AUX)
    Blend: AUG-CC-PVTZ-JKFIT

    Orbital Energies [Eh]
    ---------------------

    Doubly Occupied:

       1A    -11.216554     2A    -11.213253     3A    -11.212690
       4A    -11.211980     5A    -11.209316     6A    -11.208990
       7A    -11.208744     8A     -1.103541     9A     -1.012226
      10A     -1.003867    11A     -0.919584    12A     -0.850525
      13A     -0.816685    14A     -0.734939    15A     -0.647337
      16A     -0.633876    17A     -0.594436    18A     -0.561062
      19A     -0.558271    20A     -0.557418    21A     -0.546086
      22A     -0.516436    23A     -0.500361    24A     -0.495388
      25A     -0.482072    26A     -0.469321    27A     -0.441785
      28A     -0.438078    29A     -0.432849

  @DF-RHF Final Energy:  -274.49123385853915

   => Energetics <=

    Nuclear Repulsion Energy =            333.8903103939741186
    One-Electron Energy =               -1031.1677542251416071
    Two-Electron Energy =                 422.7862099726283418
    Total Energy =                       -274.4912338585391467
  Basis Set: (AUG-CC-PVTZ AUX)
    Blend: AUG-CC-PVTZ-RI
    Molecular point group: c1

    Geometry (in Angstrom), charge = 0, multiplicity = 1:

       Center              X                  Y                   Z               Mass
    ------------   -----------------  -----------------  -----------------  -----------------
         C            0.001959476647    -0.417907590551     0.304308032098    12.000000000000
         C            1.240081976647    -0.837726890551    -0.460363467902    12.000000000000
         C            0.001959476647     1.072157409449     0.677594032098    12.000000000000
         C           -1.252512523353    -0.843270590551    -0.470460967902    12.000000000000
         C            2.575631476647    -0.547328590551     0.239752032098    12.000000000000
         C            0.001959476647     2.035577409449    -0.508415967902    12.000000000000
         C           -2.571712523353    -0.547328590551     0.239752032098    12.000000000000
         H            0.001959476647    -0.979702590551     1.252565032098     1.007825032230
         H            1.187172476647    -1.922520590551    -0.658247967902     1.007825032230
         H            1.255189476647    -0.366899590551    -1.458941967902     1.007825032230
         H            0.873664476647     1.279532409449     1.308597032098     1.007825032230
         H           -0.869743523353     1.279533409449     1.308598032098     1.007825032230
         H           -1.251270523353    -0.366898590551    -1.458941967902     1.007825032230
         H           -1.183253523353    -1.922520590551    -0.658247967902     1.007825032230
         H            2.762557476647     0.526586409449     0.321140032098     1.007825032230
         H            3.417028476647    -0.987234590551    -0.304225967902     1.007825032230
         H            2.575835476647    -0.966157590551     1.251526032098     1.007825032230
         H            0.885599476647     1.901297409449    -1.138762967902     1.007825032230
         H            0.001959476647     3.072428409449    -0.158659967902     1.007825032230
         H           -0.881681523353     1.901296409449    -1.138761967902     1.007825032230
         H           -3.413109523353    -0.987234590551    -0.304225967902     1.007825032230
         H           -2.758638523353     0.526586409449     0.321141032098     1.007825032230
         H           -2.571916523353    -0.966159590551     1.251526032098     1.007825032230

  Basis Set: AUG-CC-PVTZ
    Blend: AUG-CC-PVTZ
  Basis Set: (AUG-CC-PVTZ AUX)
    Blend: AUG-CC-PVTZ-JKFIT
	 Reference Energy          =    -274.4912338585391467 [Eh]
	 Singles Energy            =      -0.0000000000000000 [Eh]
	 Same-Spin Energy          =      -0.2969534370323360 [Eh]
	 Opposite-Spin Energy      =      -1.1073666780113176 [Eh]
	 Correlation Energy        =      -1.4043201150436535 [Eh]
	 Total Energy              =    -275.8955539735828211 [Eh]

	 ================> DF-SCS-MP2 Energies <==================
	-----------------------------------------------------------
	 SCS Same-Spin Scale       =       0.3333333333333333 [-]
	 SCS Opposite-Spin Scale   =       1.2000000000000000 [-]
	 SCS Same-Spin Energy      =      -0.0989844790107787 [Eh]
	 SCS Opposite-Spin Energy  =      -1.3288400136135812 [Eh]
	 SCS Correlation Energy    =      -1.4278244926243597 [Eh]
	 SCS Total Energy          =    -275.9190583511635282 [Eh]
	-----------------------------------------------------------

  Dipole Moment: [D]
     X:    -0.0059      Y:    -0.0642      Z:     0.0296     Total:     0.0709

*** Psi4 exiting successfully. Buy a developer a beer!
