                               Psi4 1.3.2 release

  ==> Input File <==

--------------------------------------------------------------------------
#psi4
#
memory 32 gb

molecule  {
0 1
  C        0.0000190    -0.4262070     0.3077490
  C        1.2723657    -0.8013200    -0.4638788
  C        0.0000460     1.0638580     0.6808560
  C       -1.2544680    -0.8517020    -0.4669850
  C        2.5736910    -0.5549740     0.2429080
  C       -0.0001100     2.0271580    -0.5052670
  C       -2.5736650    -0.5550660     0.2429470
  H        0.0000220    -0.9878970     1.2560840
  H        1.1855160    -1.9310980    -0.6540960
  H        1.2530210    -0.3759140    -1.4557310
  H        0.8718230     1.2713760     1.3117180
  H       -0.8715850     1.2713570     1.3119230
  H       -1.2530320    -0.3758260    -1.4557010
  H       -1.1854530    -1.9310640    -0.6541770
  H        2.7601620     0.5190550     0.3238500
  H        3.4151550    -0.9947620    -0.3010430
  H        2.5741680    -0.9734350     1.2548350
  H        0.8834690     1.8928260    -1.1356920
  H       -0.0001040     3.0640380    -0.1556120
  H       -0.8838160     1.8927720    -1.1355030
  H       -3.4151150    -0.9948620    -0.3010190
  H       -2.7601920     0.5189470     0.3239600
  H       -2.5741050    -0.9735930     1.2548470
units angstrom
no_reorient  #important for SAPT in psi4, default
symmetry c1  #important for SAPT in psi4, default
}

set PROPERTIES_ORIGIN ["COM"]
properties('MP2/aug-cc-pvtz', properties = ['dipole'])
--------------------------------------------------------------------------

    Molecular point group: c1
  Charge       = 0
  Multiplicity = 1
  Basis Set: AUG-CC-PVTZ
    Blend: AUG-CC-PVTZ
  Basis Set: (AUG-CC-PVTZ AUX)
    Blend: AUG-CC-PVTZ-JKFIT

    Orbital Energies [Eh]
    ---------------------

    Doubly Occupied:

       1A    -11.217741     2A    -11.214257     3A    -11.213142
       4A    -11.211058     5A    -11.209460     6A    -11.208696
       7A    -11.208593     8A     -1.102722     9A     -1.016239
      10A     -1.004158    11A     -0.919933    12A     -0.849345
      13A     -0.815994    14A     -0.734883    15A     -0.645296
      16A     -0.633140    17A     -0.597354    18A     -0.562419
      19A     -0.559123    20A     -0.556976    21A     -0.548248
      22A     -0.516058    23A     -0.502425    24A     -0.496887
      25A     -0.482569    26A     -0.466955    27A     -0.443671
      28A     -0.437442    29A     -0.426781

  @DF-RHF Final Energy:  -274.48837468519275

   => Energetics <=

    Nuclear Repulsion Energy =            333.9491695894575969
    One-Electron Energy =               -1031.2719555502108051
    Two-Electron Energy =                 422.8344112755604556
    Total Energy =                       -274.4883746851927526
  Basis Set: (AUG-CC-PVTZ AUX)
    Blend: AUG-CC-PVTZ-RI
    Molecular point group: c1

    Geometry (in Angstrom), charge = 0, multiplicity = 1:

       Center              X                  Y                   Z               Mass
    ------------   -----------------  -----------------  -----------------  -----------------
         C           -0.002123096919    -0.423409135968     0.305282692583    12.000000000000
         C            1.270223603081    -0.798522135968    -0.466345107417    12.000000000000
         C           -0.002096096919     1.066655864032     0.678389692583    12.000000000000
         C           -1.256610096919    -0.848904135968    -0.469451307417    12.000000000000
         C            2.571548903081    -0.552176135968     0.240441692583    12.000000000000
         C           -0.002252096919     2.029955864032    -0.507733307417    12.000000000000
         C           -2.575807096919    -0.552268135968     0.240480692583    12.000000000000
         H           -0.002120096919    -0.985099135968     1.253617692583     1.007825032230
         H            1.183373903081    -1.928300135968    -0.656562307417     1.007825032230
         H            1.250878903081    -0.373116135968    -1.458197307417     1.007825032230
         H            0.869680903081     1.274173864032     1.309251692583     1.007825032230
         H           -0.873727096919     1.274154864032     1.309456692583     1.007825032230
         H           -1.255174096919    -0.373028135968    -1.458167307417     1.007825032230
         H           -1.187595096919    -1.928266135968    -0.656643307417     1.007825032230
         H            2.758019903081     0.521852864032     0.321383692583     1.007825032230
         H            3.413012903081    -0.991964135968    -0.303509307417     1.007825032230
         H            2.572025903081    -0.970637135968     1.252368692583     1.007825032230
         H            0.881326903081     1.895623864032    -1.138158307417     1.007825032230
         H           -0.002246096919     3.066835864032    -0.158078307417     1.007825032230
         H           -0.885958096919     1.895569864032    -1.137969307417     1.007825032230
         H           -3.417257096919    -0.992064135968    -0.303485307417     1.007825032230
         H           -2.762334096919     0.521744864032     0.321493692583     1.007825032230
         H           -2.576247096919    -0.970795135968     1.252380692583     1.007825032230

  Basis Set: AUG-CC-PVTZ
    Blend: AUG-CC-PVTZ
  Basis Set: (AUG-CC-PVTZ AUX)
    Blend: AUG-CC-PVTZ-JKFIT
	 Reference Energy          =    -274.4883746851927526 [Eh]
	 Singles Energy            =      -0.0000000000000000 [Eh]
	 Same-Spin Energy          =      -0.2971179137706050 [Eh]
	 Opposite-Spin Energy      =      -1.1076583437940564 [Eh]
	 Correlation Energy        =      -1.4047762575646614 [Eh]
	 Total Energy              =    -275.8931509427574156 [Eh]

	 ================> DF-SCS-MP2 Energies <==================
	-----------------------------------------------------------
	 SCS Same-Spin Scale       =       0.3333333333333333 [-]
	 SCS Opposite-Spin Scale   =       1.2000000000000000 [-]
	 SCS Same-Spin Energy      =      -0.0990393045902017 [Eh]
	 SCS Opposite-Spin Energy  =      -1.3291900125528675 [Eh]
	 SCS Correlation Energy    =      -1.4282293171430691 [Eh]
	 SCS Total Energy          =    -275.9166040023358164 [Eh]
	-----------------------------------------------------------

  Dipole Moment: [D]
     X:     0.0033      Y:    -0.0425      Z:     0.0294     Total:     0.0518

*** Psi4 exiting successfully. Buy a developer a beer!
