                               Psi4 1.3.2 release

  ==> Input File <==

--------------------------------------------------------------------------
#psi4
#
memory 32 gb

molecule  {
0 1
  C        0.0000190    -0.4262070     0.3077490
  C        1.2544970    -0.8517210    -0.4669820
  C        0.0000460     1.0638580     0.6808560
  C       -1.2544680    -0.8517020    -0.4669850
  C        2.5736910    -0.5549740     0.2429080
  C       -0.0001100     2.0271580    -0.5052670
  C       -2.5736650    -0.5550660     0.2429470
  H        0.0000215    -0.8859750     1.0840029
  H        1.1855160    -1.9310980    -0.6540960
  H        1.2530210    -0.3759140    -1.4557310
  H        0.8718230     1.2713760     1.3117180
  H       -0.8715850     1.2713570     1.3119230
  H       -1.2530320    -0.3758260    -1.4557010
  H       -1.1854530    -1.9310640    -0.6541770
  H        2.7601620     0.5190550     0.3238500
  H        3.4151550    -0.9947620    -0.3010430
  H        2.5741680    -0.9734350     1.2548350
  H        0.8834690     1.8928260    -1.1356920
  H       -0.0001040     3.0640380    -0.1556120
  H       -0.8838160     1.8927720    -1.1355030
  H       -3.4151150    -0.9948620    -0.3010190
  H       -2.7601920     0.5189470     0.3239600
  H       -2.5741050    -0.9735930     1.2548470
units angstrom
no_reorient  #important for SAPT in psi4, default
symmetry c1  #important for SAPT in psi4, default
}

set PROPERTIES_ORIGIN ["COM"]
properties('MP2/aug-cc-pvtz', properties = ['dipole'])
--------------------------------------------------------------------------

    Molecular point group: c1
  Charge       = 0
  Multiplicity = 1
  Basis Set: AUG-CC-PVTZ
    Blend: AUG-CC-PVTZ
  Basis Set: (AUG-CC-PVTZ AUX)
    Blend: AUG-CC-PVTZ-JKFIT

    Orbital Energies [Eh]
    ---------------------

    Doubly Occupied:

       1A    -11.210914     2A    -11.210913     3A    -11.210327
       4A    -11.208923     5A    -11.208922     6A    -11.207442
       7A    -11.190759     8A     -1.109074     9A     -1.012377
      10A     -1.002999    11A     -0.928337    12A     -0.850814
      13A     -0.815772    14A     -0.759928    15A     -0.650952
      16A     -0.632459    17A     -0.594450    18A     -0.566974
      19A     -0.559414    20A     -0.556891    21A     -0.547387
      22A     -0.515995    23A     -0.500848    24A     -0.495393
      25A     -0.482780    26A     -0.469312    27A     -0.455725
      28A     -0.432764    29A     -0.432342

  @DF-RHF Final Energy:  -274.46033274537410

   => Energetics <=

    Nuclear Repulsion Energy =            334.8006819386534403
    One-Electron Energy =               -1032.8796552593246361
    Two-Electron Energy =                 423.6186405752970359
    Total Energy =                       -274.4603327453741031
  Basis Set: (AUG-CC-PVTZ AUX)
    Blend: AUG-CC-PVTZ-RI
    Molecular point group: c1

    Geometry (in Angstrom), charge = 0, multiplicity = 1:

       Center              X                  Y                   Z               Mass
    ------------   -----------------  -----------------  -----------------  -----------------
         C            0.000018470866    -0.418394489760     0.307386718733    12.000000000000
         C            1.254496470866    -0.843908489760    -0.467344281267    12.000000000000
         C            0.000045470866     1.071670510240     0.680493718733    12.000000000000
         C           -1.254468529134    -0.843889489760    -0.467347281267    12.000000000000
         C            2.573690470866    -0.547161489760     0.242545718733    12.000000000000
         C           -0.000110529134     2.034970510240    -0.505629281267    12.000000000000
         C           -2.573665529134    -0.547253489760     0.242584718733    12.000000000000
         H            0.000020970866    -0.878162489760     1.083640618733     1.007825032230
         H            1.185515470866    -1.923285489760    -0.654458281267     1.007825032230
         H            1.253020470866    -0.368101489760    -1.456093281267     1.007825032230
         H            0.871822470866     1.279188510240     1.311355718733     1.007825032230
         H           -0.871585529134     1.279169510240     1.311560718733     1.007825032230
         H           -1.253032529134    -0.368013489760    -1.456063281267     1.007825032230
         H           -1.185453529134    -1.923251489760    -0.654539281267     1.007825032230
         H            2.760161470866     0.526867510240     0.323487718733     1.007825032230
         H            3.415154470866    -0.986949489760    -0.301405281267     1.007825032230
         H            2.574167470866    -0.965622489760     1.254472718733     1.007825032230
         H            0.883468470866     1.900638510240    -1.136054281267     1.007825032230
         H           -0.000104529134     3.071850510240    -0.155974281267     1.007825032230
         H           -0.883816529134     1.900584510240    -1.135865281267     1.007825032230
         H           -3.415115529134    -0.987049489760    -0.301381281267     1.007825032230
         H           -2.760192529134     0.526759510240     0.323597718733     1.007825032230
         H           -2.574105529134    -0.965780489760     1.254484718733     1.007825032230

  Basis Set: AUG-CC-PVTZ
    Blend: AUG-CC-PVTZ
  Basis Set: (AUG-CC-PVTZ AUX)
    Blend: AUG-CC-PVTZ-JKFIT
	 Reference Energy          =    -274.4603327453741031 [Eh]
	 Singles Energy            =      -0.0000000000000000 [Eh]
	 Same-Spin Energy          =      -0.2967390444687772 [Eh]
	 Opposite-Spin Energy      =      -1.1064127997839603 [Eh]
	 Correlation Energy        =      -1.4031518442527375 [Eh]
	 Total Energy              =    -275.8634845896268644 [Eh]

	 ================> DF-SCS-MP2 Energies <==================
	-----------------------------------------------------------
	 SCS Same-Spin Scale       =       0.3333333333333333 [-]
	 SCS Opposite-Spin Scale   =       1.2000000000000000 [-]
	 SCS Same-Spin Energy      =      -0.0989130148229257 [Eh]
	 SCS Opposite-Spin Energy  =      -1.3276953597407524 [Eh]
	 SCS Correlation Energy    =      -1.4266083745636782 [Eh]
	 SCS Total Energy          =    -275.8869411199377737 [Eh]
	-----------------------------------------------------------

  Dipole Moment: [D]
     X:     0.0000      Y:    -0.1378      Z:     0.1374     Total:     0.1946

*** Psi4 exiting successfully. Buy a developer a beer!
