                               Psi4 1.3.2 release

  ==> Input File <==

--------------------------------------------------------------------------
#psi4
#
memory 32 gb

molecule  {
0 1
  C        0.0000190    -0.4262070     0.3077490
  C        1.2636238    -0.8265815    -0.4655482
  C        0.0000460     1.0638580     0.6808560
  C       -1.2544680    -0.8517020    -0.4669850
  C        2.5736910    -0.5549740     0.2429080
  C       -0.0001100     2.0271580    -0.5052670
  C       -2.5736650    -0.5550660     0.2429470
  H        0.0000220    -0.9878970     1.2560840
  H        1.1855160    -1.9310980    -0.6540960
  H        1.2530210    -0.3759140    -1.4557310
  H        0.8718230     1.2713760     1.3117180
  H       -0.8715850     1.2713570     1.3119230
  H       -1.2530320    -0.3758260    -1.4557010
  H       -1.1854530    -1.9310640    -0.6541770
  H        2.7601620     0.5190550     0.3238500
  H        3.4151550    -0.9947620    -0.3010430
  H        2.5741680    -0.9734350     1.2548350
  H        0.8834690     1.8928260    -1.1356920
  H       -0.0001040     3.0640380    -0.1556120
  H       -0.8838160     1.8927720    -1.1355030
  H       -3.4151150    -0.9948620    -0.3010190
  H       -2.7601920     0.5189470     0.3239600
  H       -2.5741050    -0.9735930     1.2548470
units angstrom
no_reorient  #important for SAPT in psi4, default
symmetry c1  #important for SAPT in psi4, default
}

set PROPERTIES_ORIGIN ["COM"]
properties('MP2/aug-cc-pvtz', properties = ['dipole'])
--------------------------------------------------------------------------

    Molecular point group: c1
  Charge       = 0
  Multiplicity = 1
  Basis Set: AUG-CC-PVTZ
    Blend: AUG-CC-PVTZ
  Basis Set: (AUG-CC-PVTZ AUX)
    Blend: AUG-CC-PVTZ-JKFIT

    Orbital Energies [Eh]
    ---------------------

    Doubly Occupied:

       1A    -11.217435     2A    -11.213310     3A    -11.212848
       4A    -11.211414     5A    -11.209191     6A    -11.208721
       7A    -11.208682     8A     -1.102142     9A     -1.014539
      10A     -1.004066    11A     -0.919332    12A     -0.849790
      13A     -0.816255    14A     -0.734769    15A     -0.646088
      16A     -0.633243    17A     -0.596056    18A     -0.561630
      19A     -0.558354    20A     -0.557276    21A     -0.547126
      22A     -0.516197    23A     -0.501110    24A     -0.496544
      25A     -0.482602    26A     -0.469062    27A     -0.442883
      28A     -0.435943    29A     -0.430765

  @DF-RHF Final Energy:  -274.49080128724614

   => Energetics <=

    Nuclear Repulsion Energy =            333.8021616217985184
    One-Electron Energy =               -1030.9911753908429546
    Two-Electron Energy =                 422.6982124817982935
    Total Energy =                       -274.4908012872461427
  Basis Set: (AUG-CC-PVTZ AUX)
    Blend: AUG-CC-PVTZ-RI
    Molecular point group: c1

    Geometry (in Angstrom), charge = 0, multiplicity = 1:

       Center              X                  Y                   Z               Mass
    ------------   -----------------  -----------------  -----------------  -----------------
         C           -0.001075380665    -0.420381546525     0.305482770085    12.000000000000
         C            1.262529419335    -0.820756046525    -0.467814429915    12.000000000000
         C           -0.001048380665     1.069683453475     0.678589770085    12.000000000000
         C           -1.255562380665    -0.845876546525    -0.469251229915    12.000000000000
         C            2.572596619335    -0.549148546525     0.240641770085    12.000000000000
         C           -0.001204380665     2.032983453475    -0.507533229915    12.000000000000
         C           -2.574759380665    -0.549240546525     0.240680770085    12.000000000000
         H           -0.001072380665    -0.982071546525     1.253817770085     1.007825032230
         H            1.184421619335    -1.925272546525    -0.656362229915     1.007825032230
         H            1.251926619335    -0.370088546525    -1.457997229915     1.007825032230
         H            0.870728619335     1.277201453475     1.309451770085     1.007825032230
         H           -0.872679380665     1.277182453475     1.309656770085     1.007825032230
         H           -1.254126380665    -0.370000546525    -1.457967229915     1.007825032230
         H           -1.186547380665    -1.925238546525    -0.656443229915     1.007825032230
         H            2.759067619335     0.524880453475     0.321583770085     1.007825032230
         H            3.414060619335    -0.988936546525    -0.303309229915     1.007825032230
         H            2.573073619335    -0.967609546525     1.252568770085     1.007825032230
         H            0.882374619335     1.898651453475    -1.137958229915     1.007825032230
         H           -0.001198380665     3.069863453475    -0.157878229915     1.007825032230
         H           -0.884910380665     1.898597453475    -1.137769229915     1.007825032230
         H           -3.416209380665    -0.989036546525    -0.303285229915     1.007825032230
         H           -2.761286380665     0.524772453475     0.321693770085     1.007825032230
         H           -2.575199380665    -0.967767546525     1.252580770085     1.007825032230

  Basis Set: AUG-CC-PVTZ
    Blend: AUG-CC-PVTZ
  Basis Set: (AUG-CC-PVTZ AUX)
    Blend: AUG-CC-PVTZ-JKFIT
	 Reference Energy          =    -274.4908012872461427 [Eh]
	 Singles Energy            =      -0.0000000000000000 [Eh]
	 Same-Spin Energy          =      -0.2969651851215059 [Eh]
	 Opposite-Spin Energy      =      -1.1074076739173750 [Eh]
	 Correlation Energy        =      -1.4043728590388809 [Eh]
	 Total Energy              =    -275.8951741462850009 [Eh]

	 ================> DF-SCS-MP2 Energies <==================
	-----------------------------------------------------------
	 SCS Same-Spin Scale       =       0.3333333333333333 [-]
	 SCS Opposite-Spin Scale   =       1.2000000000000000 [-]
	 SCS Same-Spin Energy      =      -0.0989883950405020 [Eh]
	 SCS Opposite-Spin Energy  =      -1.3288892087008499 [Eh]
	 SCS Correlation Energy    =      -1.4278776037413519 [Eh]
	 SCS Total Energy          =    -275.9186788909875077 [Eh]
	-----------------------------------------------------------

  Dipole Moment: [D]
     X:     0.0020      Y:    -0.0557      Z:     0.0277     Total:     0.0622

*** Psi4 exiting successfully. Buy a developer a beer!
