                               Psi4 1.4a3.dev225

  ==> Input File <==

--------------------------------------------------------------------------
#psi4
#
memory 32 gb

molecule  {
0 1
  C        0.0000000    -0.4260750     0.3076100
  C        1.2544720    -0.8514380    -0.4671590
  C        0.0000000     1.0639900     0.6808960
  C       -1.2544720    -0.8514380    -0.4671590
  C        2.5736720    -0.5554960     0.2430540
  C        0.0000000     2.0274100    -0.5051140
  C       -2.5736720    -0.5554960     0.2430540
  H        0.0000000    -0.9878700     1.2558670
  H        1.1852130    -1.9306880    -0.6549460
  H        1.2532300    -0.3750670    -1.4556400
  H        0.8717050     1.2713650     1.3118990
  H       -0.8717030     1.2713660     1.3119000
  H       -1.2532300    -0.3750660    -1.4556400
  H       -1.1852130    -1.9306880    -0.6549460
  H        2.7691483     0.5675416     0.3281648
  H        3.4150690    -0.9954020    -0.3009240
  H        2.5738760    -0.9743250     1.2548280
  H        0.8836400     1.8931300    -1.1354610
  H        0.0000000     3.0642610    -0.1553580
  H       -0.8836410     1.8931290    -1.1354600
  H       -3.4150690    -0.9954020    -0.3009240
  H       -2.7605980     0.5184190     0.3244430
  H       -2.5738760    -0.9743270     1.2548280
units angstrom
no_reorient  #important for SAPT in psi4, default
symmetry c1  #important for SAPT in psi4, default
}

set PROPERTIES_ORIGIN ["COM"]
properties('MP2/aug-cc-pvtz', properties = ['dipole'])
--------------------------------------------------------------------------

    Molecular point group: c1
  Charge       = 0
  Multiplicity = 1
  Basis Set: AUG-CC-PVTZ
    Blend: AUG-CC-PVTZ
  Basis Set: (AUG-CC-PVTZ AUX)
    Blend: AUG-CC-PVTZ-JKFIT

    Orbital Energies [Eh]
    ---------------------

    Doubly Occupied:

       1A    -11.217398     2A    -11.215219     3A    -11.213176
       4A    -11.212704     5A    -11.211613     6A    -11.209006
       7A    -11.208537     8A     -1.101605     9A     -1.012061
      10A     -1.003678    11A     -0.917334    12A     -0.849829
      13A     -0.815052    14A     -0.734750    15A     -0.646458
      16A     -0.633015    17A     -0.594276    18A     -0.560313
      19A     -0.557676    20A     -0.555143    21A     -0.546350
      22A     -0.515731    23A     -0.499613    24A     -0.495594
      25A     -0.482793    26A     -0.468696    27A     -0.442236
      28A     -0.434545    29A     -0.433482

  @DF-RHF Final Energy:  -274.48969361796389

   => Energetics <=

    Nuclear Repulsion Energy =            333.4715221960769327
    One-Electron Energy =               -1030.3466650397222111
    Two-Electron Energy =                 422.3854492256814410
    Total Energy =                       -274.4896936179638942
  Basis Set: (AUG-CC-PVTZ AUX)
    Blend: AUG-CC-PVTZ-RI
    Molecular point group: c1

    Geometry (in Angstrom), charge = 0, multiplicity = 1:

       Center              X                  Y                   Z               Mass
    ------------   -----------------  -----------------  -----------------  -----------------
         C           -0.000086074376    -0.417737629203     0.305480744546    12.000000000000
         C            1.254385925624    -0.843100629203    -0.469288255454    12.000000000000
         C           -0.000086074376     1.072327370797     0.678766744546    12.000000000000
         C           -1.254558074376    -0.843100629203    -0.469288255454    12.000000000000
         C            2.573585925624    -0.547158629203     0.240924744546    12.000000000000
         C           -0.000086074376     2.035747370797    -0.507243255454    12.000000000000
         C           -2.573758074376    -0.547158629203     0.240924744546    12.000000000000
         H           -0.000086074376    -0.979532629203     1.253737744546     1.007825032230
         H            1.185126925624    -1.922350629203    -0.657075255454     1.007825032230
         H            1.253143925624    -0.366729629203    -1.457769255454     1.007825032230
         H            0.871618925624     1.279702370797     1.309769744546     1.007825032230
         H           -0.871789074376     1.279703370797     1.309770744546     1.007825032230
         H           -1.253316074376    -0.366728629203    -1.457769255454     1.007825032230
         H           -1.185299074376    -1.922350629203    -0.657075255454     1.007825032230
         H            2.769062225624     0.575878970797     0.326035544546     1.007825032230
         H            3.414982925624    -0.987064629203    -0.303053255454     1.007825032230
         H            2.573789925624    -0.965987629203     1.252698744546     1.007825032230
         H            0.883553925624     1.901467370797    -1.137590255454     1.007825032230
         H           -0.000086074376     3.072598370797    -0.157487255454     1.007825032230
         H           -0.883727074376     1.901466370797    -1.137589255454     1.007825032230
         H           -3.415155074376    -0.987064629203    -0.303053255454     1.007825032230
         H           -2.760684074376     0.526756370797     0.322313744546     1.007825032230
         H           -2.573962074376    -0.965989629203     1.252698744546     1.007825032230

  Basis Set: AUG-CC-PVTZ
    Blend: AUG-CC-PVTZ
  Basis Set: (AUG-CC-PVTZ AUX)
    Blend: AUG-CC-PVTZ-JKFIT
	 Reference Energy          =    -274.4896936179638942 [Eh]
	 Singles Energy            =      -0.0000000000000000 [Eh]
	 Same-Spin Energy          =      -0.2968610066549168 [Eh]
	 Opposite-Spin Energy      =      -1.1075843098137448 [Eh]
	 Correlation Energy        =      -1.4044453164686614 [Eh]
	 Total Energy              =    -275.8941389344325330 [Eh]

	 ================> DF-SCS-MP2 Energies <==================
	-----------------------------------------------------------
	 SCS Same-Spin Scale       =       0.3333333333333333 [-]
	 SCS Opposite-Spin Scale   =       1.2000000000000000 [-]
	 SCS Same-Spin Energy      =      -0.0989536688849723 [Eh]
	 SCS Opposite-Spin Energy  =      -1.3291011717764938 [Eh]
	 SCS Correlation Energy    =      -1.4280548406614659 [Eh]
	 SCS Total Energy          =    -275.9177484586253399 [Eh]
	-----------------------------------------------------------

  Dipole Moment: [D]
     X:    -0.0133      Y:    -0.0982      Z:     0.0223     Total:     0.1016

*** Psi4 exiting successfully. Buy a developer a beer!
