                               Psi4 1.4a3.dev225

  ==> Input File <==

--------------------------------------------------------------------------
#psi4
#
memory 32 gb

molecule  {
0 1
  C        0.0000000    -0.4260750     0.3076100
  C        1.2544720    -0.8514380    -0.4671590
  C        0.0000000     1.0639900     0.6808960
  C       -1.2544720    -0.8514380    -0.4671590
  C        2.5563957    -0.5593717     0.2337530
  C        0.0000000     2.0274100    -0.5051140
  C       -2.5736720    -0.5554960     0.2430540
  H        0.0000000    -0.9878700     1.2558670
  H        1.1852130    -1.9306880    -0.6549460
  H        1.2532300    -0.3750670    -1.4556400
  H        0.8717050     1.2713650     1.3118990
  H       -0.8717030     1.2713660     1.3119000
  H       -1.2532300    -0.3750660    -1.4556400
  H       -1.1852130    -1.9306880    -0.6549460
  H        2.7605980     0.5184190     0.3244420
  H        3.4150690    -0.9954020    -0.3009240
  H        2.5738760    -0.9743250     1.2548280
  H        0.8836400     1.8931300    -1.1354610
  H        0.0000000     3.0642610    -0.1553580
  H       -0.8836410     1.8931290    -1.1354600
  H       -3.4150690    -0.9954020    -0.3009240
  H       -2.7605980     0.5184190     0.3244430
  H       -2.5738760    -0.9743270     1.2548280
units angstrom
no_reorient  #important for SAPT in psi4, default
symmetry c1  #important for SAPT in psi4, default
}

set PROPERTIES_ORIGIN ["COM"]
properties('MP2/aug-cc-pvtz', properties = ['dipole'])
--------------------------------------------------------------------------

    Molecular point group: c1
  Charge       = 0
  Multiplicity = 1
  Basis Set: AUG-CC-PVTZ
    Blend: AUG-CC-PVTZ
  Basis Set: (AUG-CC-PVTZ AUX)
    Blend: AUG-CC-PVTZ-JKFIT

    Orbital Energies [Eh]
    ---------------------

    Doubly Occupied:

       1A    -11.217295     2A    -11.212609     3A    -11.211835
       4A    -11.211761     5A    -11.209955     6A    -11.208958
       7A    -11.208704     8A     -1.102571     9A     -1.014901
      10A     -1.004477    11A     -0.918486    12A     -0.850160
      13A     -0.815832    14A     -0.735109    15A     -0.647376
      16A     -0.633579    17A     -0.594799    18A     -0.560978
      19A     -0.559153    20A     -0.557422    21A     -0.545843
      22A     -0.516759    23A     -0.499499    24A     -0.495241
      25A     -0.484505    26A     -0.468940    27A     -0.442163
      28A     -0.435112    29A     -0.433286

  @DF-RHF Final Energy:  -274.49119121749453

   => Energetics <=

    Nuclear Repulsion Energy =            333.9337113415638214
    One-Electron Energy =               -1031.2551931805446657
    Two-Electron Energy =                 422.8302906214863128
    Total Energy =                       -274.4911912174945314
  Basis Set: (AUG-CC-PVTZ AUX)
    Blend: AUG-CC-PVTZ-RI
    Molecular point group: c1

    Geometry (in Angstrom), charge = 0, multiplicity = 1:

       Center              X                  Y                   Z               Mass
    ------------   -----------------  -----------------  -----------------  -----------------
         C            0.002070553578    -0.416778675958     0.306632941300    12.000000000000
         C            1.256542553578    -0.842141675958    -0.468136058700    12.000000000000
         C            0.002070553578     1.073286324042     0.679918941300    12.000000000000
         C           -1.252401446422    -0.842141675958    -0.468136058700    12.000000000000
         C            2.558466253578    -0.550075375958     0.232775941300    12.000000000000
         C            0.002070553578     2.036706324042    -0.506091058700    12.000000000000
         C           -2.571601446422    -0.546199675958     0.242076941300    12.000000000000
         H            0.002070553578    -0.978573675958     1.254889941300     1.007825032230
         H            1.187283553578    -1.921391675958    -0.655923058700     1.007825032230
         H            1.255300553578    -0.365770675958    -1.456617058700     1.007825032230
         H            0.873775553578     1.280661324042     1.310921941300     1.007825032230
         H           -0.869632446422     1.280662324042     1.310922941300     1.007825032230
         H           -1.251159446422    -0.365769675958    -1.456617058700     1.007825032230
         H           -1.183142446422    -1.921391675958    -0.655923058700     1.007825032230
         H            2.762668553578     0.527715324042     0.323464941300     1.007825032230
         H            3.417139553578    -0.986105675958    -0.301901058700     1.007825032230
         H            2.575946553578    -0.965028675958     1.253850941300     1.007825032230
         H            0.885710553578     1.902426324042    -1.136438058700     1.007825032230
         H            0.002070553578     3.073557324042    -0.156335058700     1.007825032230
         H           -0.881570446422     1.902425324042    -1.136437058700     1.007825032230
         H           -3.412998446422    -0.986105675958    -0.301901058700     1.007825032230
         H           -2.758527446422     0.527715324042     0.323465941300     1.007825032230
         H           -2.571805446422    -0.965030675958     1.253850941300     1.007825032230

  Basis Set: AUG-CC-PVTZ
    Blend: AUG-CC-PVTZ
  Basis Set: (AUG-CC-PVTZ AUX)
    Blend: AUG-CC-PVTZ-JKFIT
	 Reference Energy          =    -274.4911912174945314 [Eh]
	 Singles Energy            =      -0.0000000000000000 [Eh]
	 Same-Spin Energy          =      -0.2969854098138265 [Eh]
	 Opposite-Spin Energy      =      -1.1073630519518309 [Eh]
	 Correlation Energy        =      -1.4043484617656574 [Eh]
	 Total Energy              =    -275.8955396792601960 [Eh]

	 ================> DF-SCS-MP2 Energies <==================
	-----------------------------------------------------------
	 SCS Same-Spin Scale       =       0.3333333333333333 [-]
	 SCS Opposite-Spin Scale   =       1.2000000000000000 [-]
	 SCS Same-Spin Energy      =      -0.0989951366046088 [Eh]
	 SCS Opposite-Spin Energy  =      -1.3288356623421971 [Eh]
	 SCS Correlation Energy    =      -1.4278307989468060 [Eh]
	 SCS Total Energy          =    -275.9190220164413176 [Eh]
	-----------------------------------------------------------

  Dipole Moment: [D]
     X:     0.0014      Y:    -0.0658      Z:     0.0263     Total:     0.0709

*** Psi4 exiting successfully. Buy a developer a beer!
