                               Psi4 1.3.2 release

  ==> Input File <==

--------------------------------------------------------------------------
#psi4
#
memory 32 gb

molecule  {
0 1
  C        0.0000190    -0.4262070     0.3077490
  C        1.2449881    -0.8767309    -0.4681798
  C        0.0000460     1.0638580     0.6808560
  C       -1.2544680    -0.8517020    -0.4669850
  C        2.5736910    -0.5549740     0.2429080
  C       -0.0001100     2.0271580    -0.5052670
  C       -2.5736650    -0.5550660     0.2429470
  H        0.0000220    -0.9878970     1.2560840
  H        1.1855160    -1.9310980    -0.6540960
  H        1.2530210    -0.3759140    -1.4557310
  H        0.8718230     1.2713760     1.3117180
  H       -0.8715850     1.2713570     1.3119230
  H       -1.2530320    -0.3758260    -1.4557010
  H       -1.1854530    -1.9310640    -0.6541770
  H        2.7601620     0.5190550     0.3238500
  H        3.4151550    -0.9947620    -0.3010430
  H        2.5741680    -0.9734350     1.2548350
  H        0.8834690     1.8928260    -1.1356920
  H       -0.0001040     3.0640380    -0.1556120
  H       -0.8838160     1.8927720    -1.1355030
  H       -3.4151150    -0.9948620    -0.3010190
  H       -2.7601920     0.5189470     0.3239600
  H       -2.5741050    -0.9735930     1.2548470
units angstrom
no_reorient  #important for SAPT in psi4, default
symmetry c1  #important for SAPT in psi4, default
}

set PROPERTIES_ORIGIN ["COM"]
properties('MP2/aug-cc-pvtz', properties = ['dipole'])
--------------------------------------------------------------------------

    Molecular point group: c1
  Charge       = 0
  Multiplicity = 1
  Basis Set: AUG-CC-PVTZ
    Blend: AUG-CC-PVTZ
  Basis Set: (AUG-CC-PVTZ AUX)
    Blend: AUG-CC-PVTZ-JKFIT

    Orbital Energies [Eh]
    ---------------------

    Doubly Occupied:

       1A    -11.217142     2A    -11.212325     3A    -11.212278
       4A    -11.212038     5A    -11.209213     6A    -11.208739
       7A    -11.208677     8A     -1.101251     9A     -1.011421
      10A     -1.003962    11A     -0.918162    12A     -0.850986
      13A     -0.817163    14A     -0.735027    15A     -0.648039
      16A     -0.633648    17A     -0.593347    18A     -0.561392
      19A     -0.558128    20A     -0.556402    21A     -0.544767
      22A     -0.517394    23A     -0.500536    24A     -0.494902
      25A     -0.485096    26A     -0.469849    27A     -0.441870
      28A     -0.435951    29A     -0.432391

  @DF-RHF Final Energy:  -274.49119143902254

   => Energetics <=

    Nuclear Repulsion Energy =            333.5127531945352644
    One-Electron Energy =               -1030.4236919762827256
    Two-Electron Energy =                 422.4197473427249747
    Total Energy =                       -274.4911914390225434
  Basis Set: (AUG-CC-PVTZ AUX)
    Blend: AUG-CC-PVTZ-RI
    Molecular point group: c1

    Geometry (in Angstrom), charge = 0, multiplicity = 1:

       Center              X                  Y                   Z               Mass
    ------------   -----------------  -----------------  -----------------  -----------------
         C            0.001158106997    -0.414371143581     0.305798167206    12.000000000000
         C            1.246127206997    -0.864895043581    -0.470130632794    12.000000000000
         C            0.001185106997     1.075693856419     0.678905167206    12.000000000000
         C           -1.253328893003    -0.839866143581    -0.468935832794    12.000000000000
         C            2.574830106997    -0.543138143581     0.240957167206    12.000000000000
         C            0.001029106997     2.038993856419    -0.507217832794    12.000000000000
         C           -2.572525893003    -0.543230143581     0.240996167206    12.000000000000
         H            0.001161106997    -0.976061143581     1.254133167206     1.007825032230
         H            1.186655106997    -1.919262143581    -0.656046832794     1.007825032230
         H            1.254160106997    -0.364078143581    -1.457681832794     1.007825032230
         H            0.872962106997     1.283211856419     1.309767167206     1.007825032230
         H           -0.870445893003     1.283192856419     1.309972167206     1.007825032230
         H           -1.251892893003    -0.363990143581    -1.457651832794     1.007825032230
         H           -1.184313893003    -1.919228143581    -0.656127832794     1.007825032230
         H            2.761301106997     0.530890856419     0.321899167206     1.007825032230
         H            3.416294106997    -0.982926143581    -0.302993832794     1.007825032230
         H            2.575307106997    -0.961599143581     1.252884167206     1.007825032230
         H            0.884608106997     1.904661856419    -1.137642832794     1.007825032230
         H            0.001035106997     3.075873856419    -0.157562832794     1.007825032230
         H           -0.882676893003     1.904607856419    -1.137453832794     1.007825032230
         H           -3.413975893003    -0.983026143581    -0.302969832794     1.007825032230
         H           -2.759052893003     0.530782856419     0.322009167206     1.007825032230
         H           -2.572965893003    -0.961757143581     1.252896167206     1.007825032230

  Basis Set: AUG-CC-PVTZ
    Blend: AUG-CC-PVTZ
  Basis Set: (AUG-CC-PVTZ AUX)
    Blend: AUG-CC-PVTZ-JKFIT
	 Reference Energy          =    -274.4911914390225434 [Eh]
	 Singles Energy            =      -0.0000000000000000 [Eh]
	 Same-Spin Energy          =      -0.2967565587624446 [Eh]
	 Opposite-Spin Energy      =      -1.1071679719731820 [Eh]
	 Correlation Energy        =      -1.4039245307356265 [Eh]
	 Total Energy              =    -275.8951159697581943 [Eh]

	 ================> DF-SCS-MP2 Energies <==================
	-----------------------------------------------------------
	 SCS Same-Spin Scale       =       0.3333333333333333 [-]
	 SCS Opposite-Spin Scale   =       1.2000000000000000 [-]
	 SCS Same-Spin Energy      =      -0.0989188529208148 [Eh]
	 SCS Opposite-Spin Energy  =      -1.3286015663678183 [Eh]
	 SCS Correlation Energy    =      -1.4275204192886333 [Eh]
	 SCS Total Energy          =    -275.9187118583111555 [Eh]
	-----------------------------------------------------------

  Dipole Moment: [D]
     X:    -0.0026      Y:    -0.0740      Z:     0.0292     Total:     0.0796

*** Psi4 exiting successfully. Buy a developer a beer!
