                               Psi4 1.3.2 release

  ==> Input File <==

--------------------------------------------------------------------------
#psi4
#
memory 32 gb

molecule  {
0 1
  C       -0.0151893    -0.4354121     0.2877159
  C        1.2544970    -0.8517210    -0.4669820
  C        0.0000460     1.0638580     0.6808560
  C       -1.2544680    -0.8517020    -0.4669850
  C        2.5736910    -0.5549740     0.2429080
  C       -0.0001100     2.0271580    -0.5052670
  C       -2.5736650    -0.5550660     0.2429470
  H        0.0000220    -0.9878970     1.2560840
  H        1.1855160    -1.9310980    -0.6540960
  H        1.2530210    -0.3759140    -1.4557310
  H        0.8718230     1.2713760     1.3117180
  H       -0.8715850     1.2713570     1.3119230
  H       -1.2530320    -0.3758260    -1.4557010
  H       -1.1854530    -1.9310640    -0.6541770
  H        2.7601620     0.5190550     0.3238500
  H        3.4151550    -0.9947620    -0.3010430
  H        2.5741680    -0.9734350     1.2548350
  H        0.8834690     1.8928260    -1.1356920
  H       -0.0001040     3.0640380    -0.1556120
  H       -0.8838160     1.8927720    -1.1355030
  H       -3.4151150    -0.9948620    -0.3010190
  H       -2.7601920     0.5189470     0.3239600
  H       -2.5741050    -0.9735930     1.2548470
units angstrom
no_reorient  #important for SAPT in psi4, default
symmetry c1  #important for SAPT in psi4, default
}

set PROPERTIES_ORIGIN ["COM"]
properties('MP2/aug-cc-pvtz', properties = ['dipole'])
--------------------------------------------------------------------------

    Molecular point group: c1
  Charge       = 0
  Multiplicity = 1
  Basis Set: AUG-CC-PVTZ
    Blend: AUG-CC-PVTZ
  Basis Set: (AUG-CC-PVTZ AUX)
    Blend: AUG-CC-PVTZ-JKFIT

    Orbital Energies [Eh]
    ---------------------

    Doubly Occupied:

       1A    -11.217885     2A    -11.212689     3A    -11.212241
       4A    -11.212075     5A    -11.209484     6A    -11.209430
       7A    -11.208282     8A     -1.102623     9A     -1.013947
      10A     -1.003805    11A     -0.919281    12A     -0.849398
      13A     -0.818448    14A     -0.733370    15A     -0.647183
      16A     -0.633310    17A     -0.595424    18A     -0.560965
      19A     -0.558669    20A     -0.557798    21A     -0.546024
      22A     -0.516494    23A     -0.500312    24A     -0.495840
      25A     -0.483627    26A     -0.470604    27A     -0.441800
      28A     -0.436869    29A     -0.430745

  @DF-RHF Final Energy:  -274.49090446395553

   => Energetics <=

    Nuclear Repulsion Energy =            333.7332701056613473
    One-Electron Energy =               -1030.8510957099908865
    Two-Electron Energy =                 422.6269211403739519
    Total Energy =                       -274.4909044639555304
  Basis Set: (AUG-CC-PVTZ AUX)
    Blend: AUG-CC-PVTZ-RI
    Molecular point group: c1

    Geometry (in Angstrom), charge = 0, multiplicity = 1:

       Center              X                  Y                   Z               Mass
    ------------   -----------------  -----------------  -----------------  -----------------
         C           -0.013367120214    -0.425470448027     0.288022476917    12.000000000000
         C            1.256319179786    -0.841779348027    -0.466675423083    12.000000000000
         C            0.001868179786     1.073799651973     0.681162576917    12.000000000000
         C           -1.252645820214    -0.841760348027    -0.466678423083    12.000000000000
         C            2.575513179786    -0.545032348027     0.243214576917    12.000000000000
         C            0.001712179786     2.037099651973    -0.504960423083    12.000000000000
         C           -2.571842820214    -0.545124348027     0.243253576917    12.000000000000
         H            0.001844179786    -0.977955348027     1.256390576917     1.007825032230
         H            1.187338179786    -1.921156348027    -0.653789423083     1.007825032230
         H            1.254843179786    -0.365972348027    -1.455424423083     1.007825032230
         H            0.873645179786     1.281317651973     1.312024576917     1.007825032230
         H           -0.869762820214     1.281298651973     1.312229576917     1.007825032230
         H           -1.251209820214    -0.365884348027    -1.455394423083     1.007825032230
         H           -1.183630820214    -1.921122348027    -0.653870423083     1.007825032230
         H            2.761984179786     0.528996651973     0.324156576917     1.007825032230
         H            3.416977179786    -0.984820348027    -0.300736423083     1.007825032230
         H            2.575990179786    -0.963493348027     1.255141576917     1.007825032230
         H            0.885291179786     1.902767651973    -1.135385423083     1.007825032230
         H            0.001718179786     3.073979651973    -0.155305423083     1.007825032230
         H           -0.881993820214     1.902713651973    -1.135196423083     1.007825032230
         H           -3.413292820214    -0.984920348027    -0.300712423083     1.007825032230
         H           -2.758369820214     0.528888651973     0.324266576917     1.007825032230
         H           -2.572282820214    -0.963651348027     1.255153576917     1.007825032230

  Basis Set: AUG-CC-PVTZ
    Blend: AUG-CC-PVTZ
  Basis Set: (AUG-CC-PVTZ AUX)
    Blend: AUG-CC-PVTZ-JKFIT
	 Reference Energy          =    -274.4909044639555304 [Eh]
	 Singles Energy            =      -0.0000000000000000 [Eh]
	 Same-Spin Energy          =      -0.2969525801658514 [Eh]
	 Opposite-Spin Energy      =      -1.1073830134937364 [Eh]
	 Correlation Energy        =      -1.4043355936595878 [Eh]
	 Total Energy              =    -275.8952400576151263 [Eh]

	 ================> DF-SCS-MP2 Energies <==================
	-----------------------------------------------------------
	 SCS Same-Spin Scale       =       0.3333333333333333 [-]
	 SCS Opposite-Spin Scale   =       1.2000000000000000 [-]
	 SCS Same-Spin Energy      =      -0.0989841933886171 [Eh]
	 SCS Opposite-Spin Energy  =      -1.3288596161924835 [Eh]
	 SCS Correlation Energy    =      -1.4278438095811006 [Eh]
	 SCS Total Energy          =    -275.9187482735366075 [Eh]
	-----------------------------------------------------------

  Dipole Moment: [D]
     X:    -0.0059      Y:    -0.0701      Z:     0.0242     Total:     0.0744

*** Psi4 exiting successfully. Buy a developer a beer!
