                               Psi4 1.3.2 release

  ==> Input File <==

--------------------------------------------------------------------------
#psi4
#
memory 32 gb

molecule  {
0 1
  C        0.0000190    -0.4262070     0.3077490
  C        1.2289457    -0.8246920    -0.4287972
  C        0.0000460     1.0638580     0.6808560
  C       -1.2544680    -0.8517020    -0.4669850
  C        2.5736910    -0.5549740     0.2429080
  C       -0.0001100     2.0271580    -0.5052670
  C       -2.5736650    -0.5550660     0.2429470
  H        0.0000220    -0.9878970     1.2560840
  H        1.1855160    -1.9310980    -0.6540960
  H        1.2530210    -0.3759140    -1.4557310
  H        0.8718230     1.2713760     1.3117180
  H       -0.8715850     1.2713570     1.3119230
  H       -1.2530320    -0.3758260    -1.4557010
  H       -1.1854530    -1.9310640    -0.6541770
  H        2.7601620     0.5190550     0.3238500
  H        3.4151550    -0.9947620    -0.3010430
  H        2.5741680    -0.9734350     1.2548350
  H        0.8834690     1.8928260    -1.1356920
  H       -0.0001040     3.0640380    -0.1556120
  H       -0.8838160     1.8927720    -1.1355030
  H       -3.4151150    -0.9948620    -0.3010190
  H       -2.7601920     0.5189470     0.3239600
  H       -2.5741050    -0.9735930     1.2548470
units angstrom
no_reorient  #important for SAPT in psi4, default
symmetry c1  #important for SAPT in psi4, default
}

set PROPERTIES_ORIGIN ["COM"]
properties('MP2/aug-cc-pvtz', properties = ['dipole'])
--------------------------------------------------------------------------

    Molecular point group: c1
  Charge       = 0
  Multiplicity = 1
  Basis Set: AUG-CC-PVTZ
    Blend: AUG-CC-PVTZ
  Basis Set: (AUG-CC-PVTZ AUX)
    Blend: AUG-CC-PVTZ-JKFIT

    Orbital Energies [Eh]
    ---------------------

    Doubly Occupied:

       1A    -11.215961     2A    -11.215199     3A    -11.213300
       4A    -11.211949     5A    -11.209626     6A    -11.209416
       7A    -11.208699     8A     -1.106913     9A     -1.013548
      10A     -1.004061    11A     -0.921857    12A     -0.850056
      13A     -0.816243    14A     -0.734235    15A     -0.647169
      16A     -0.634926    17A     -0.594953    18A     -0.561183
      19A     -0.560375    20A     -0.557532    21A     -0.547900
      22A     -0.516112    23A     -0.499929    24A     -0.494981
      25A     -0.480842    26A     -0.467167    27A     -0.445001
      28A     -0.437799    29A     -0.430559

  @DF-RHF Final Energy:  -274.48821373153987

   => Energetics <=

    Nuclear Repulsion Energy =            334.3571423762721793
    One-Electron Energy =               -1032.0757354726445101
    Two-Electron Energy =                 423.2303793648325154
    Total Energy =                       -274.4882137315398722
  Basis Set: (AUG-CC-PVTZ AUX)
    Blend: AUG-CC-PVTZ-RI
    Molecular point group: c1

    Geometry (in Angstrom), charge = 0, multiplicity = 1:

       Center              X                  Y                   Z               Mass
    ------------   -----------------  -----------------  -----------------  -----------------
         C            0.003080787790    -0.420608003001     0.301078164674    12.000000000000
         C            1.232007487790    -0.819093003001    -0.435468035326    12.000000000000
         C            0.003107787790     1.069456996999     0.674185164674    12.000000000000
         C           -1.251406212210    -0.846103003001    -0.473655835326    12.000000000000
         C            2.576752787790    -0.549375003001     0.236237164674    12.000000000000
         C            0.002951787790     2.032756996999    -0.511937835326    12.000000000000
         C           -2.570603212210    -0.549467003001     0.236276164674    12.000000000000
         H            0.003083787790    -0.982298003001     1.249413164674     1.007825032230
         H            1.188577787790    -1.925499003001    -0.660766835326     1.007825032230
         H            1.256082787790    -0.370315003001    -1.462401835326     1.007825032230
         H            0.874884787790     1.276974996999     1.305047164674     1.007825032230
         H           -0.868523212210     1.276955996999     1.305252164674     1.007825032230
         H           -1.249970212210    -0.370227003001    -1.462371835326     1.007825032230
         H           -1.182391212210    -1.925465003001    -0.660847835326     1.007825032230
         H            2.763223787790     0.524653996999     0.317179164674     1.007825032230
         H            3.418216787790    -0.989163003001    -0.307713835326     1.007825032230
         H            2.577229787790    -0.967836003001     1.248164164674     1.007825032230
         H            0.886530787790     1.898424996999    -1.142362835326     1.007825032230
         H            0.002957787790     3.069636996999    -0.162282835326     1.007825032230
         H           -0.880754212210     1.898370996999    -1.142173835326     1.007825032230
         H           -3.412053212210    -0.989263003001    -0.307689835326     1.007825032230
         H           -2.757130212210     0.524545996999     0.317289164674     1.007825032230
         H           -2.571043212210    -0.967994003001     1.248176164674     1.007825032230

  Basis Set: AUG-CC-PVTZ
    Blend: AUG-CC-PVTZ
  Basis Set: (AUG-CC-PVTZ AUX)
    Blend: AUG-CC-PVTZ-JKFIT
	 Reference Energy          =    -274.4882137315398722 [Eh]
	 Singles Energy            =      -0.0000000000000000 [Eh]
	 Same-Spin Energy          =      -0.2973085423096514 [Eh]
	 Opposite-Spin Energy      =      -1.1078152173091647 [Eh]
	 Correlation Energy        =      -1.4051237596188160 [Eh]
	 Total Energy              =    -275.8933374911586611 [Eh]

	 ================> DF-SCS-MP2 Energies <==================
	-----------------------------------------------------------
	 SCS Same-Spin Scale       =       0.3333333333333333 [-]
	 SCS Opposite-Spin Scale   =       1.2000000000000000 [-]
	 SCS Same-Spin Energy      =      -0.0991028474365505 [Eh]
	 SCS Opposite-Spin Energy  =      -1.3293782607709976 [Eh]
	 SCS Correlation Energy    =      -1.4284811082075481 [Eh]
	 SCS Total Energy          =    -275.9166948397474357 [Eh]
	-----------------------------------------------------------

  Dipole Moment: [D]
     X:    -0.0109      Y:    -0.0561      Z:     0.0410     Total:     0.0703

*** Psi4 exiting successfully. Buy a developer a beer!
