                               Psi4 1.4a3.dev225

  ==> Input File <==

--------------------------------------------------------------------------
#psi4
#
memory 32 gb

molecule  {
0 1
  C        0.0000000    -0.4260750     0.3076100
  C        1.2544720    -0.8514380    -0.4671590
  C        0.0000000     1.0639900     0.6808960
  C       -1.2544720    -0.8514380    -0.4671590
  C        2.5736720    -0.5554960     0.2430540
  C        0.0000000     2.0274100    -0.5051140
  C       -2.5736720    -0.5554960     0.2430540
  H        0.0000000    -0.9878700     1.2558670
  H        1.1852130    -1.9306880    -0.6549460
  H        1.2532300    -0.3750670    -1.4556400
  H        0.8717050     1.2713650     1.3118990
  H       -0.8717030     1.2713660     1.3119000
  H       -1.2532300    -0.3750660    -1.4556400
  H       -1.1852130    -1.9306880    -0.6549460
  H        2.7520477     0.4692964     0.3207192
  H        3.4150690    -0.9954020    -0.3009240
  H        2.5738760    -0.9743250     1.2548280
  H        0.8836400     1.8931300    -1.1354610
  H        0.0000000     3.0642610    -0.1553580
  H       -0.8836410     1.8931290    -1.1354600
  H       -3.4150690    -0.9954020    -0.3009240
  H       -2.7605980     0.5184190     0.3244430
  H       -2.5738760    -0.9743270     1.2548280
units angstrom
no_reorient  #important for SAPT in psi4, default
symmetry c1  #important for SAPT in psi4, default
}

set PROPERTIES_ORIGIN ["COM"]
properties('MP2/aug-cc-pvtz', properties = ['dipole'])
--------------------------------------------------------------------------

    Molecular point group: c1
  Charge       = 0
  Multiplicity = 1
  Basis Set: AUG-CC-PVTZ
    Blend: AUG-CC-PVTZ
  Basis Set: (AUG-CC-PVTZ AUX)
    Blend: AUG-CC-PVTZ-JKFIT

    Orbital Energies [Eh]
    ---------------------

    Doubly Occupied:

       1A    -11.217092     2A    -11.212456     3A    -11.212034
       4A    -11.211944     5A    -11.208872     6A    -11.208839
       7A    -11.202601     8A     -1.101768     9A     -1.014184
      10A     -1.004352    11A     -0.920481    12A     -0.850945
      13A     -0.818476    14A     -0.734930    15A     -0.647735
      16A     -0.633828    17A     -0.595416    18A     -0.564136
      19A     -0.558807    20A     -0.557189    21A     -0.545561
      22A     -0.517569    23A     -0.501471    24A     -0.495920
      25A     -0.483982    26A     -0.471106    27A     -0.442143
      28A     -0.434289    29A     -0.433941

  @DF-RHF Final Energy:  -274.49078090274952

   => Energetics <=

    Nuclear Repulsion Energy =            333.8449181895299489
    One-Electron Energy =               -1031.0672629956318360
    Two-Electron Energy =                 422.7315639033523667
    Total Energy =                       -274.4907809027495205
  Basis Set: (AUG-CC-PVTZ AUX)
    Blend: AUG-CC-PVTZ-RI
    Molecular point group: c1

    Geometry (in Angstrom), charge = 0, multiplicity = 1:

       Center              X                  Y                   Z               Mass
    ------------   -----------------  -----------------  -----------------  -----------------
         C            0.000086054245    -0.416748727595     0.305555689335    12.000000000000
         C            1.254558054245    -0.842111727595    -0.469213310665    12.000000000000
         C            0.000086054245     1.073316272405     0.678841689335    12.000000000000
         C           -1.254385945755    -0.842111727595    -0.469213310665    12.000000000000
         C            2.573758054245    -0.546169727595     0.240999689335    12.000000000000
         C            0.000086054245     2.036736272405    -0.507168310665    12.000000000000
         C           -2.573585945755    -0.546169727595     0.240999689335    12.000000000000
         H            0.000086054245    -0.978543727595     1.253812689335     1.007825032230
         H            1.185299054245    -1.921361727595    -0.657000310665     1.007825032230
         H            1.253316054245    -0.365740727595    -1.457694310665     1.007825032230
         H            0.871791054245     1.280691272405     1.309844689335     1.007825032230
         H           -0.871616945755     1.280692272405     1.309845689335     1.007825032230
         H           -1.253143945755    -0.365739727595    -1.457694310665     1.007825032230
         H           -1.185126945755    -1.921361727595    -0.657000310665     1.007825032230
         H            2.752133754245     0.478622672405     0.318664889335     1.007825032230
         H            3.415155054245    -0.986075727595    -0.302978310665     1.007825032230
         H            2.573962054245    -0.964998727595     1.252773689335     1.007825032230
         H            0.883726054245     1.902456272405    -1.137515310665     1.007825032230
         H            0.000086054245     3.073587272405    -0.157412310665     1.007825032230
         H           -0.883554945755     1.902455272405    -1.137514310665     1.007825032230
         H           -3.414982945755    -0.986075727595    -0.302978310665     1.007825032230
         H           -2.760511945755     0.527745272405     0.322388689335     1.007825032230
         H           -2.573789945755    -0.965000727595     1.252773689335     1.007825032230

  Basis Set: AUG-CC-PVTZ
    Blend: AUG-CC-PVTZ
  Basis Set: (AUG-CC-PVTZ AUX)
    Blend: AUG-CC-PVTZ-JKFIT
	 Reference Energy          =    -274.4907809027495205 [Eh]
	 Singles Energy            =      -0.0000000000000000 [Eh]
	 Same-Spin Energy          =      -0.2968318229571441 [Eh]
	 Opposite-Spin Energy      =      -1.1069558336254433 [Eh]
	 Correlation Energy        =      -1.4037876565825873 [Eh]
	 Total Energy              =    -275.8945685593321286 [Eh]

	 ================> DF-SCS-MP2 Energies <==================
	-----------------------------------------------------------
	 SCS Same-Spin Scale       =       0.3333333333333333 [-]
	 SCS Opposite-Spin Scale   =       1.2000000000000000 [-]
	 SCS Same-Spin Energy      =      -0.0989439409857147 [Eh]
	 SCS Opposite-Spin Energy  =      -1.3283470003505318 [Eh]
	 SCS Correlation Energy    =      -1.4272909413362465 [Eh]
	 SCS Total Energy          =    -275.9180718440857731 [Eh]
	-----------------------------------------------------------

  Dipole Moment: [D]
     X:     0.0118      Y:    -0.0377      Z:     0.0324     Total:     0.0511

*** Psi4 exiting successfully. Buy a developer a beer!
