                               Psi4 1.3.2 release

  ==> Input File <==

--------------------------------------------------------------------------
#psi4
#
memory 32 gb

molecule  {
0 1
  C        0.0384083    -0.3262096     0.3075833
  C        1.2544970    -0.8517210    -0.4669820
  C        0.0000460     1.0638580     0.6808560
  C       -1.2544680    -0.8517020    -0.4669850
  C        2.5736910    -0.5549740     0.2429080
  C       -0.0001100     2.0271580    -0.5052670
  C       -2.5736650    -0.5550660     0.2429470
  H        0.0000220    -0.9878970     1.2560840
  H        1.1855160    -1.9310980    -0.6540960
  H        1.2530210    -0.3759140    -1.4557310
  H        0.8718230     1.2713760     1.3117180
  H       -0.8715850     1.2713570     1.3119230
  H       -1.2530320    -0.3758260    -1.4557010
  H       -1.1854530    -1.9310640    -0.6541770
  H        2.7601620     0.5190550     0.3238500
  H        3.4151550    -0.9947620    -0.3010430
  H        2.5741680    -0.9734350     1.2548350
  H        0.8834690     1.8928260    -1.1356920
  H       -0.0001040     3.0640380    -0.1556120
  H       -0.8838160     1.8927720    -1.1355030
  H       -3.4151150    -0.9948620    -0.3010190
  H       -2.7601920     0.5189470     0.3239600
  H       -2.5741050    -0.9735930     1.2548470
units angstrom
no_reorient  #important for SAPT in psi4, default
symmetry c1  #important for SAPT in psi4, default
}

set PROPERTIES_ORIGIN ["COM"]
properties('MP2/aug-cc-pvtz', properties = ['dipole'])
--------------------------------------------------------------------------

    Molecular point group: c1
  Charge       = 0
  Multiplicity = 1
  Basis Set: AUG-CC-PVTZ
    Blend: AUG-CC-PVTZ
  Basis Set: (AUG-CC-PVTZ AUX)
    Blend: AUG-CC-PVTZ-JKFIT

    Orbital Energies [Eh]
    ---------------------

    Doubly Occupied:

       1A    -11.220761     2A    -11.214513     3A    -11.213848
       4A    -11.209944     5A    -11.209334     6A    -11.208115
       7A    -11.208066     8A     -1.107714     9A     -1.012044
      10A     -1.007351    11A     -0.917702    12A     -0.857544
      13A     -0.813486    14A     -0.727859    15A     -0.650703
      16A     -0.639280    17A     -0.590820    18A     -0.568677
      19A     -0.558360    20A     -0.554014    21A     -0.544226
      22A     -0.519249    23A     -0.499858    24A     -0.497428
      25A     -0.484500    26A     -0.471543    27A     -0.460799
      28A     -0.426592    29A     -0.412472

  @DF-RHF Final Energy:  -274.47891343909168

   => Energetics <=

    Nuclear Repulsion Energy =            334.2156458163901220
    One-Electron Energy =               -1031.7755131800031450
    Two-Electron Energy =                 423.0809539245212818
    Total Energy =                       -274.4789134390916843
  Basis Set: (AUG-CC-PVTZ AUX)
    Blend: AUG-CC-PVTZ-RI
    Molecular point group: c1

    Geometry (in Angstrom), charge = 0, multiplicity = 1:

       Center              X                  Y                   Z               Mass
    ------------   -----------------  -----------------  -----------------  -----------------
         C            0.033806810253    -0.329355861891     0.305508770076    12.000000000000
         C            1.249895510253    -0.854867261891    -0.469056529924    12.000000000000
         C           -0.004555489747     1.060711738109     0.678781470076    12.000000000000
         C           -1.259069489747    -0.854848261891    -0.469059529924    12.000000000000
         C            2.569089510253    -0.558120261891     0.240833470076    12.000000000000
         C           -0.004711489747     2.024011738109    -0.507341529924    12.000000000000
         C           -2.578266489747    -0.558212261891     0.240872470076    12.000000000000
         H           -0.004579489747    -0.991043261891     1.254009470076     1.007825032230
         H            1.180914510253    -1.934244261891    -0.656170529924     1.007825032230
         H            1.248419510253    -0.379060261891    -1.457805529924     1.007825032230
         H            0.867221510253     1.268229738109     1.309643470076     1.007825032230
         H           -0.876186489747     1.268210738109     1.309848470076     1.007825032230
         H           -1.257633489747    -0.378972261891    -1.457775529924     1.007825032230
         H           -1.190054489747    -1.934210261891    -0.656251529924     1.007825032230
         H            2.755560510253     0.515908738109     0.321775470076     1.007825032230
         H            3.410553510253    -0.997908261891    -0.303117529924     1.007825032230
         H            2.569566510253    -0.976581261891     1.252760470076     1.007825032230
         H            0.878867510253     1.889679738109    -1.137766529924     1.007825032230
         H           -0.004705489747     3.060891738109    -0.157686529924     1.007825032230
         H           -0.888417489747     1.889625738109    -1.137577529924     1.007825032230
         H           -3.419716489747    -0.998008261891    -0.303093529924     1.007825032230
         H           -2.764793489747     0.515800738109     0.321885470076     1.007825032230
         H           -2.578706489747    -0.976739261891     1.252772470076     1.007825032230

  Basis Set: AUG-CC-PVTZ
    Blend: AUG-CC-PVTZ
  Basis Set: (AUG-CC-PVTZ AUX)
    Blend: AUG-CC-PVTZ-JKFIT
	 Reference Energy          =    -274.4789134390916843 [Eh]
	 Singles Energy            =      -0.0000000000000000 [Eh]
	 Same-Spin Energy          =      -0.2976590102480102 [Eh]
	 Opposite-Spin Energy      =      -1.1085961621974039 [Eh]
	 Correlation Energy        =      -1.4062551724454140 [Eh]
	 Total Energy              =    -275.8851686115370967 [Eh]

	 ================> DF-SCS-MP2 Energies <==================
	-----------------------------------------------------------
	 SCS Same-Spin Scale       =       0.3333333333333333 [-]
	 SCS Opposite-Spin Scale   =       1.2000000000000000 [-]
	 SCS Same-Spin Energy      =      -0.0992196700826700 [Eh]
	 SCS Opposite-Spin Energy  =      -1.3303153946368846 [Eh]
	 SCS Correlation Energy    =      -1.4295350647195546 [Eh]
	 SCS Total Energy          =    -275.9084485038112575 [Eh]
	-----------------------------------------------------------

  Dipole Moment: [D]
     X:     0.0161      Y:    -0.0062      Z:     0.0003     Total:     0.0172

*** Psi4 exiting successfully. Buy a developer a beer!
