                               Psi4 1.3.2 release

  ==> Input File <==

--------------------------------------------------------------------------
#psi4
#
memory 32 gb

molecule  {
0 1
  C        0.0000190    -0.4262070     0.3077490
  C        1.2544970    -0.8517210    -0.4669820
  C        0.0000460     1.0638580     0.6808560
  C       -1.2544680    -0.8517020    -0.4669850
  C        2.5736910    -0.5549740     0.2429080
  C       -0.0001100     2.0271580    -0.5052670
  C       -2.5736650    -0.5550660     0.2429470
  H        0.0000225    -1.0898190     1.4281651
  H        1.1855160    -1.9310980    -0.6540960
  H        1.2530210    -0.3759140    -1.4557310
  H        0.8718230     1.2713760     1.3117180
  H       -0.8715850     1.2713570     1.3119230
  H       -1.2530320    -0.3758260    -1.4557010
  H       -1.1854530    -1.9310640    -0.6541770
  H        2.7601620     0.5190550     0.3238500
  H        3.4151550    -0.9947620    -0.3010430
  H        2.5741680    -0.9734350     1.2548350
  H        0.8834690     1.8928260    -1.1356920
  H       -0.0001040     3.0640380    -0.1556120
  H       -0.8838160     1.8927720    -1.1355030
  H       -3.4151150    -0.9948620    -0.3010190
  H       -2.7601920     0.5189470     0.3239600
  H       -2.5741050    -0.9735930     1.2548470
units angstrom
no_reorient  #important for SAPT in psi4, default
symmetry c1  #important for SAPT in psi4, default
}

set PROPERTIES_ORIGIN ["COM"]
properties('MP2/aug-cc-pvtz', properties = ['dipole'])
--------------------------------------------------------------------------

    Molecular point group: c1
  Charge       = 0
  Multiplicity = 1
  Basis Set: AUG-CC-PVTZ
    Blend: AUG-CC-PVTZ
  Basis Set: (AUG-CC-PVTZ AUX)
    Blend: AUG-CC-PVTZ-JKFIT

    Orbital Energies [Eh]
    ---------------------

    Doubly Occupied:

       1A    -11.241582     2A    -11.215393     3A    -11.215375
       4A    -11.214419     5A    -11.210990     6A    -11.209152
       7A    -11.209151     8A     -1.099721     9A     -1.014024
      10A     -1.005865    11A     -0.915157    12A     -0.851306
      13A     -0.818147    14A     -0.720730    15A     -0.642908
      16A     -0.635197    17A     -0.595456    18A     -0.562656
      19A     -0.559267    20A     -0.554108    21A     -0.541912
      22A     -0.517576    23A     -0.500469    24A     -0.496906
      25A     -0.484734    26A     -0.471506    27A     -0.437249
      28A     -0.437024    29A     -0.421925

  @DF-RHF Final Energy:  -274.47279123837825

   => Energetics <=

    Nuclear Repulsion Energy =            332.7262464698895315
    One-Electron Energy =               -1028.7982675537898558
    Two-Electron Energy =                 421.5992298455221317
    Total Energy =                       -274.4727912383782495
  Basis Set: (AUG-CC-PVTZ AUX)
    Blend: AUG-CC-PVTZ-RI
    Molecular point group: c1

    Geometry (in Angstrom), charge = 0, multiplicity = 1:

       Center              X                  Y                   Z               Mass
    ------------   -----------------  -----------------  -----------------  -----------------
         C            0.000018460800    -0.416342667793     0.303922503146    12.000000000000
         C            1.254496460800    -0.841856667793    -0.470808496854    12.000000000000
         C            0.000045460800     1.073722332207     0.677029503146    12.000000000000
         C           -1.254468539200    -0.841837667793    -0.470811496854    12.000000000000
         C            2.573690460800    -0.545109667793     0.239081503146    12.000000000000
         C           -0.000110539200     2.037022332207    -0.509093496854    12.000000000000
         C           -2.573665539200    -0.545201667793     0.239120503146    12.000000000000
         H            0.000021960800    -1.079954667793     1.424338603146     1.007825032230
         H            1.185515460800    -1.921233667793    -0.657922496854     1.007825032230
         H            1.253020460800    -0.366049667793    -1.459557496854     1.007825032230
         H            0.871822460800     1.281240332207     1.307891503146     1.007825032230
         H           -0.871585539200     1.281221332207     1.308096503146     1.007825032230
         H           -1.253032539200    -0.365961667793    -1.459527496854     1.007825032230
         H           -1.185453539200    -1.921199667793    -0.658003496854     1.007825032230
         H            2.760161460800     0.528919332207     0.320023503146     1.007825032230
         H            3.415154460800    -0.984897667793    -0.304869496854     1.007825032230
         H            2.574167460800    -0.963570667793     1.251008503146     1.007825032230
         H            0.883468460800     1.902690332207    -1.139518496854     1.007825032230
         H           -0.000104539200     3.073902332207    -0.159438496854     1.007825032230
         H           -0.883816539200     1.902636332207    -1.139329496854     1.007825032230
         H           -3.415115539200    -0.984997667793    -0.304845496854     1.007825032230
         H           -2.760192539200     0.528811332207     0.320133503146     1.007825032230
         H           -2.574105539200    -0.963728667793     1.251020503146     1.007825032230

  Basis Set: AUG-CC-PVTZ
    Blend: AUG-CC-PVTZ
  Basis Set: (AUG-CC-PVTZ AUX)
    Blend: AUG-CC-PVTZ-JKFIT
	 Reference Energy          =    -274.4727912383782495 [Eh]
	 Singles Energy            =      -0.0000000000000000 [Eh]
	 Same-Spin Energy          =      -0.2970114819963871 [Eh]
	 Opposite-Spin Energy      =      -1.1089636208381122 [Eh]
	 Correlation Energy        =      -1.4059751028344993 [Eh]
	 Total Energy              =    -275.8787663412127245 [Eh]

	 ================> DF-SCS-MP2 Energies <==================
	-----------------------------------------------------------
	 SCS Same-Spin Scale       =       0.3333333333333333 [-]
	 SCS Opposite-Spin Scale   =       1.2000000000000000 [-]
	 SCS Same-Spin Energy      =      -0.0990038273321290 [Eh]
	 SCS Opposite-Spin Energy  =      -1.3307563450057345 [Eh]
	 SCS Correlation Energy    =      -1.4297601723378635 [Eh]
	 SCS Total Energy          =    -275.9025514107161143 [Eh]
	-----------------------------------------------------------

  Dipole Moment: [D]
     X:     0.0000      Y:     0.0573      Z:    -0.1613     Total:     0.1712

*** Psi4 exiting successfully. Buy a developer a beer!
