                               Psi4 1.3.2 release

  ==> Input File <==

--------------------------------------------------------------------------
#psi4
#
memory 32 gb

molecule  {
0 1
  C        0.0000190    -0.4262070     0.3077490
  C        1.2886843    -0.7504619    -0.4598355
  C        0.0000460     1.0638580     0.6808560
  C       -1.2544680    -0.8517020    -0.4669850
  C        2.5736910    -0.5549740     0.2429080
  C       -0.0001100     2.0271580    -0.5052670
  C       -2.5736650    -0.5550660     0.2429470
  H        0.0000220    -0.9878970     1.2560840
  H        1.1855160    -1.9310980    -0.6540960
  H        1.2530210    -0.3759140    -1.4557310
  H        0.8718230     1.2713760     1.3117180
  H       -0.8715850     1.2713570     1.3119230
  H       -1.2530320    -0.3758260    -1.4557010
  H       -1.1854530    -1.9310640    -0.6541770
  H        2.7601620     0.5190550     0.3238500
  H        3.4151550    -0.9947620    -0.3010430
  H        2.5741680    -0.9734350     1.2548350
  H        0.8834690     1.8928260    -1.1356920
  H       -0.0001040     3.0640380    -0.1556120
  H       -0.8838160     1.8927720    -1.1355030
  H       -3.4151150    -0.9948620    -0.3010190
  H       -2.7601920     0.5189470     0.3239600
  H       -2.5741050    -0.9735930     1.2548470
units angstrom
no_reorient  #important for SAPT in psi4, default
symmetry c1  #important for SAPT in psi4, default
}

set PROPERTIES_ORIGIN ["COM"]
properties('MP2/aug-cc-pvtz', properties = ['dipole'])
--------------------------------------------------------------------------

    Molecular point group: c1
  Charge       = 0
  Multiplicity = 1
  Basis Set: AUG-CC-PVTZ
    Blend: AUG-CC-PVTZ
  Basis Set: (AUG-CC-PVTZ AUX)
    Blend: AUG-CC-PVTZ-JKFIT

    Orbital Energies [Eh]
    ---------------------

    Doubly Occupied:

       1A    -11.218668     2A    -11.216785     3A    -11.213772
       4A    -11.210519     5A    -11.210019     6A    -11.208816
       7A    -11.208597     8A     -1.104156     9A     -1.019835
      10A     -1.004443    11A     -0.921170    12A     -0.848716
      13A     -0.815809    14A     -0.735451    15A     -0.644133
      16A     -0.633192    17A     -0.599769    18A     -0.565835
      19A     -0.559953    20A     -0.556620    21A     -0.550132
      22A     -0.516636    23A     -0.505609    24A     -0.497257
      25A     -0.483521    26A     -0.462089    27A     -0.445100
      28A     -0.439911    29A     -0.416499

  @DF-RHF Final Energy:  -274.47964471672719

   => Energetics <=

    Nuclear Repulsion Energy =            334.2449206227971672
    One-Electron Energy =               -1031.8231024291796984
    Two-Electron Energy =                 423.0985370896553377
    Total Energy =                       -274.4796447167271936
  Basis Set: (AUG-CC-PVTZ AUX)
    Blend: AUG-CC-PVTZ-RI
    Molecular point group: c1

    Geometry (in Angstrom), charge = 0, multiplicity = 1:

       Center              X                  Y                   Z               Mass
    ------------   -----------------  -----------------  -----------------  -----------------
         C           -0.004078880268    -0.429504476570     0.304798103291    12.000000000000
         C            1.284586419732    -0.753759376570    -0.462786396709    12.000000000000
         C           -0.004051880268     1.060560523430     0.677905103291    12.000000000000
         C           -1.258565880268    -0.854999476570    -0.469935896709    12.000000000000
         C            2.569593119732    -0.558271476570     0.239957103291    12.000000000000
         C           -0.004207880268     2.023860523430    -0.508217896709    12.000000000000
         C           -2.577762880268    -0.558363476570     0.239996103291    12.000000000000
         H           -0.004075880268    -0.991194476570     1.253133103291     1.007825032230
         H            1.181418119732    -1.934395476570    -0.657046896709     1.007825032230
         H            1.248923119732    -0.379211476570    -1.458681896709     1.007825032230
         H            0.867725119732     1.268078523430     1.308767103291     1.007825032230
         H           -0.875682880268     1.268059523430     1.308972103291     1.007825032230
         H           -1.257129880268    -0.379123476570    -1.458651896709     1.007825032230
         H           -1.189550880268    -1.934361476570    -0.657127896709     1.007825032230
         H            2.756064119732     0.515757523430     0.320899103291     1.007825032230
         H            3.411057119732    -0.998059476570    -0.303993896709     1.007825032230
         H            2.570070119732    -0.976732476570     1.251884103291     1.007825032230
         H            0.879371119732     1.889528523430    -1.138642896709     1.007825032230
         H           -0.004201880268     3.060740523430    -0.158562896709     1.007825032230
         H           -0.887913880268     1.889474523430    -1.138453896709     1.007825032230
         H           -3.419212880268    -0.998159476570    -0.303969896709     1.007825032230
         H           -2.764289880268     0.515649523430     0.321009103291     1.007825032230
         H           -2.578202880268    -0.976890476570     1.251896103291     1.007825032230

  Basis Set: AUG-CC-PVTZ
    Blend: AUG-CC-PVTZ
  Basis Set: (AUG-CC-PVTZ AUX)
    Blend: AUG-CC-PVTZ-JKFIT
	 Reference Energy          =    -274.4796447167271936 [Eh]
	 Singles Energy            =      -0.0000000000000000 [Eh]
	 Same-Spin Energy          =      -0.2975156920444214 [Eh]
	 Opposite-Spin Energy      =      -1.1083999607901251 [Eh]
	 Correlation Energy        =      -1.4059156528345467 [Eh]
	 Total Energy              =    -275.8855603695617447 [Eh]

	 ================> DF-SCS-MP2 Energies <==================
	-----------------------------------------------------------
	 SCS Same-Spin Scale       =       0.3333333333333333 [-]
	 SCS Opposite-Spin Scale   =       1.2000000000000000 [-]
	 SCS Same-Spin Energy      =      -0.0991718973481405 [Eh]
	 SCS Opposite-Spin Energy  =      -1.3300799529481502 [Eh]
	 SCS Correlation Energy    =      -1.4292518502962905 [Eh]
	 SCS Total Energy          =    -275.9088965670234757 [Eh]
	-----------------------------------------------------------

  Dipole Moment: [D]
     X:     0.0044      Y:    -0.0083      Z:     0.0372     Total:     0.0384

*** Psi4 exiting successfully. Buy a developer a beer!
