                               Psi4 1.3.2 release

  ==> Input File <==

--------------------------------------------------------------------------
#psi4
#
memory 32 gb

molecule  {
0 1
  C        0.0000190    -0.4262070     0.3077490
  C        1.2878190    -0.9485236    -0.3432056
  C        0.0000460     1.0638580     0.6808560
  C       -1.2544680    -0.8517020    -0.4669850
  C        2.5736910    -0.5549740     0.2429080
  C       -0.0001100     2.0271580    -0.5052670
  C       -2.5736650    -0.5550660     0.2429470
  H        0.0000220    -0.9878970     1.2560840
  H        1.1855160    -1.9310980    -0.6540960
  H        1.2530210    -0.3759140    -1.4557310
  H        0.8718230     1.2713760     1.3117180
  H       -0.8715850     1.2713570     1.3119230
  H       -1.2530320    -0.3758260    -1.4557010
  H       -1.1854530    -1.9310640    -0.6541770
  H        2.7601620     0.5190550     0.3238500
  H        3.4151550    -0.9947620    -0.3010430
  H        2.5741680    -0.9734350     1.2548350
  H        0.8834690     1.8928260    -1.1356920
  H       -0.0001040     3.0640380    -0.1556120
  H       -0.8838160     1.8927720    -1.1355030
  H       -3.4151150    -0.9948620    -0.3010190
  H       -2.7601920     0.5189470     0.3239600
  H       -2.5741050    -0.9735930     1.2548470
units angstrom
no_reorient  #important for SAPT in psi4, default
symmetry c1  #important for SAPT in psi4, default
}

set PROPERTIES_ORIGIN ["COM"]
properties('MP2/aug-cc-pvtz', properties = ['dipole'])
--------------------------------------------------------------------------

    Molecular point group: c1
  Charge       = 0
  Multiplicity = 1
  Basis Set: AUG-CC-PVTZ
    Blend: AUG-CC-PVTZ
  Basis Set: (AUG-CC-PVTZ AUX)
    Blend: AUG-CC-PVTZ-JKFIT

    Orbital Energies [Eh]
    ---------------------

    Doubly Occupied:

       1A    -11.219946     2A    -11.219098     3A    -11.214301
       4A    -11.213637     5A    -11.209939     6A    -11.209415
       7A    -11.207881     8A     -1.103739     9A     -1.022779
      10A     -1.005662    11A     -0.922587    12A     -0.849486
      13A     -0.816575    14A     -0.733506    15A     -0.646722
      16A     -0.638055    17A     -0.593210    18A     -0.565197
      19A     -0.565050    20A     -0.558853    21A     -0.551319
      22A     -0.522600    23A     -0.502625    24A     -0.494312
      25A     -0.488346    26A     -0.458674    27A     -0.445591
      28A     -0.440047    29A     -0.405912

  @DF-RHF Final Energy:  -274.46695864137575

   => Energetics <=

    Nuclear Repulsion Energy =            333.5650732143913615
    One-Electron Energy =               -1030.4139312294446427
    Two-Electron Energy =                 422.3818993736775838
    Total Energy =                       -274.4669586413757543
  Basis Set: (AUG-CC-PVTZ AUX)
    Blend: AUG-CC-PVTZ-RI
    Molecular point group: c1

    Geometry (in Angstrom), charge = 0, multiplicity = 1:

       Center              X                  Y                   Z               Mass
    ------------   -----------------  -----------------  -----------------  -----------------
         C           -0.003975174109    -0.405766792273     0.290820015929    12.000000000000
         C            1.283824825891    -0.928083392273    -0.360134584071    12.000000000000
         C           -0.003948174109     1.084298207727     0.663927015929    12.000000000000
         C           -1.258462174109    -0.831261792273    -0.483913984071    12.000000000000
         C            2.569696825891    -0.534533792273     0.225979015929    12.000000000000
         C           -0.004104174109     2.047598207727    -0.522195984071    12.000000000000
         C           -2.577659174109    -0.534625792273     0.226018015929    12.000000000000
         H           -0.003972174109    -0.967456792273     1.239155015929     1.007825032230
         H            1.181521825891    -1.910657792273    -0.671024984071     1.007825032230
         H            1.249026825891    -0.355473792273    -1.472659984071     1.007825032230
         H            0.867828825891     1.291816207727     1.294789015929     1.007825032230
         H           -0.875579174109     1.291797207727     1.294994015929     1.007825032230
         H           -1.257026174109    -0.355385792273    -1.472629984071     1.007825032230
         H           -1.189447174109    -1.910623792273    -0.671105984071     1.007825032230
         H            2.756167825891     0.539495207727     0.306921015929     1.007825032230
         H            3.411160825891    -0.974321792273    -0.317971984071     1.007825032230
         H            2.570173825891    -0.952994792273     1.237906015929     1.007825032230
         H            0.879474825891     1.913266207727    -1.152620984071     1.007825032230
         H           -0.004098174109     3.084478207727    -0.172540984071     1.007825032230
         H           -0.887810174109     1.913212207727    -1.152431984071     1.007825032230
         H           -3.419109174109    -0.974421792273    -0.317947984071     1.007825032230
         H           -2.764186174109     0.539387207727     0.307031015929     1.007825032230
         H           -2.578099174109    -0.953152792273     1.237918015929     1.007825032230

  Basis Set: AUG-CC-PVTZ
    Blend: AUG-CC-PVTZ
  Basis Set: (AUG-CC-PVTZ AUX)
    Blend: AUG-CC-PVTZ-JKFIT
	 Reference Energy          =    -274.4669586413757543 [Eh]
	 Singles Energy            =      -0.0000000000000000 [Eh]
	 Same-Spin Energy          =      -0.2977044772398375 [Eh]
	 Opposite-Spin Energy      =      -1.1088694905148324 [Eh]
	 Correlation Energy        =      -1.4065739677546698 [Eh]
	 Total Energy              =    -275.8735326091304501 [Eh]

	 ================> DF-SCS-MP2 Energies <==================
	-----------------------------------------------------------
	 SCS Same-Spin Scale       =       0.3333333333333333 [-]
	 SCS Opposite-Spin Scale   =       1.2000000000000000 [-]
	 SCS Same-Spin Energy      =      -0.0992348257466125 [Eh]
	 SCS Opposite-Spin Energy  =      -1.3306433886177989 [Eh]
	 SCS Correlation Energy    =      -1.4298782143644113 [Eh]
	 SCS Total Energy          =    -275.8968368557401618 [Eh]
	-----------------------------------------------------------

  Dipole Moment: [D]
     X:     0.0127      Y:    -0.1155      Z:     0.1441     Total:     0.1851

*** Psi4 exiting successfully. Buy a developer a beer!
