                               Psi4 1.3.2 release

  ==> Input File <==

--------------------------------------------------------------------------
#psi4
#
memory 32 gb

molecule  {
0 1
  C        0.0000190    -0.4262070     0.3077490
  C        1.2544970    -0.8517210    -0.4669820
  C        0.0000460     1.0638580     0.6808560
  C       -1.2544680    -0.8517020    -0.4669850
  C        2.5736910    -0.5549740     0.2429080
  C       -0.0001100     2.0271580    -0.5052670
  C       -2.5736650    -0.5550660     0.2429470
  H        0.0000220    -0.9878970     1.2560840
  H        1.1855160    -1.9310980    -0.6540960
  H        1.2530210    -0.3759140    -1.4557310
  H        0.8718230     1.2713760     1.3117180
  H       -0.8715850     1.2713570     1.3119230
  H       -1.2530320    -0.3758260    -1.4557010
  H       -1.1854530    -1.9310640    -0.6541770
  H        2.7601620     0.5190550     0.3238500
  H        3.4151550    -0.9947620    -0.3010430
  H        2.5741680    -0.9734350     1.2548350
  H        0.8834690     1.8928260    -1.1356920
  H       -0.0001040     3.0640380    -0.1556120
  H       -0.8838160     1.8927720    -1.1355030
  H       -3.4151150    -0.9948620    -0.3010190
  H       -2.7601920     0.5189470     0.3239600
  H       -2.5741050    -0.9735930     1.2548470
units angstrom
no_reorient  #important for SAPT in psi4, default
symmetry c1  #important for SAPT in psi4, default
}

set PROPERTIES_ORIGIN ["COM"]
properties('MP2/aug-cc-pvtz', properties = ['dipole'])
--------------------------------------------------------------------------

    Molecular point group: c1
  Charge       = 0
  Multiplicity = 1
  Basis Set: AUG-CC-PVTZ
    Blend: AUG-CC-PVTZ
  Basis Set: (AUG-CC-PVTZ AUX)
    Blend: AUG-CC-PVTZ-JKFIT

    Orbital Energies [Eh]
    ---------------------

    Doubly Occupied:

       1A    -11.217235     2A    -11.212596     3A    -11.212548
       4A    -11.211824     5A    -11.208931     6A    -11.208929
       7A    -11.208696     8A     -1.101652     9A     -1.012926
      10A     -1.004003    11A     -0.918742    12A     -0.850333
      13A     -0.816641    14A     -0.734807    15A     -0.647008
      16A     -0.633416    17A     -0.594716    18A     -0.561346
      19A     -0.557735    20A     -0.557329    21A     -0.545950
      22A     -0.516635    23A     -0.500445    24A     -0.495866
      25A     -0.483444    26A     -0.470120    27A     -0.442178
      28A     -0.434282    29A     -0.433885

  @DF-RHF Final Energy:  -274.49177999283461

   => Energetics <=

    Nuclear Repulsion Energy =            333.6565003992095058
    One-Electron Energy =               -1030.7081235836915312
    Two-Electron Energy =                 422.5598431916473601
    Total Energy =                       -274.4917799928346085
  Basis Set: (AUG-CC-PVTZ AUX)
    Blend: AUG-CC-PVTZ-RI
    Molecular point group: c1

    Geometry (in Angstrom), charge = 0, multiplicity = 1:

       Center              X                  Y                   Z               Mass
    ------------   -----------------  -----------------  -----------------  -----------------
         C            0.000018465833    -0.417368578776     0.305654610939    12.000000000000
         C            1.254496465833    -0.842882578776    -0.469076389061    12.000000000000
         C            0.000045465833     1.072696421224     0.678761610939    12.000000000000
         C           -1.254468534167    -0.842863578776    -0.469079389061    12.000000000000
         C            2.573690465833    -0.546135578776     0.240813610939    12.000000000000
         C           -0.000110534167     2.035996421224    -0.507361389061    12.000000000000
         C           -2.573665534167    -0.546227578776     0.240852610939    12.000000000000
         H            0.000021465833    -0.979058578776     1.253989610939     1.007825032230
         H            1.185515465833    -1.922259578776    -0.656190389061     1.007825032230
         H            1.253020465833    -0.367075578776    -1.457825389061     1.007825032230
         H            0.871822465833     1.280214421224     1.309623610939     1.007825032230
         H           -0.871585534167     1.280195421224     1.309828610939     1.007825032230
         H           -1.253032534167    -0.366987578776    -1.457795389061     1.007825032230
         H           -1.185453534167    -1.922225578776    -0.656271389061     1.007825032230
         H            2.760161465833     0.527893421224     0.321755610939     1.007825032230
         H            3.415154465833    -0.985923578776    -0.303137389061     1.007825032230
         H            2.574167465833    -0.964596578776     1.252740610939     1.007825032230
         H            0.883468465833     1.901664421224    -1.137786389061     1.007825032230
         H           -0.000104534167     3.072876421224    -0.157706389061     1.007825032230
         H           -0.883816534167     1.901610421224    -1.137597389061     1.007825032230
         H           -3.415115534167    -0.986023578776    -0.303113389061     1.007825032230
         H           -2.760192534167     0.527785421224     0.321865610939     1.007825032230
         H           -2.574105534167    -0.964754578776     1.252752610939     1.007825032230

  Basis Set: AUG-CC-PVTZ
    Blend: AUG-CC-PVTZ
  Basis Set: (AUG-CC-PVTZ AUX)
    Blend: AUG-CC-PVTZ-JKFIT
	 Reference Energy          =    -274.4917799928346085 [Eh]
	 Singles Energy            =      -0.0000000000000000 [Eh]
	 Same-Spin Energy          =      -0.2968444182442374 [Eh]
	 Opposite-Spin Energy      =      -1.1072427854431428 [Eh]
	 Correlation Energy        =      -1.4040872036873802 [Eh]
	 Total Energy              =    -275.8958671965219764 [Eh]

	 ================> DF-SCS-MP2 Energies <==================
	-----------------------------------------------------------
	 SCS Same-Spin Scale       =       0.3333333333333333 [-]
	 SCS Opposite-Spin Scale   =       1.2000000000000000 [-]
	 SCS Same-Spin Energy      =      -0.0989481394147458 [Eh]
	 SCS Opposite-Spin Energy  =      -1.3286913425317712 [Eh]
	 SCS Correlation Energy    =      -1.4276394819465170 [Eh]
	 SCS Total Energy          =    -275.9194194747811366 [Eh]
	-----------------------------------------------------------

  Dipole Moment: [D]
     X:     0.0000      Y:    -0.0662      Z:     0.0276     Total:     0.0717

*** Psi4 exiting successfully. Buy a developer a beer!
