                               Psi4 1.3.2 release

  ==> Input File <==

--------------------------------------------------------------------------
#psi4
#
memory 32 gb

molecule  {
0 1
  C        0.0000190    -0.4262070     0.3077490
  C        1.2782645    -0.9168407    -0.3853255
  C        0.0000460     1.0638580     0.6808560
  C       -1.2544680    -0.8517020    -0.4669850
  C        2.5736910    -0.5549740     0.2429080
  C       -0.0001100     2.0271580    -0.5052670
  C       -2.5736650    -0.5550660     0.2429470
  H        0.0000220    -0.9878970     1.2560840
  H        1.1855160    -1.9310980    -0.6540960
  H        1.2530210    -0.3759140    -1.4557310
  H        0.8718230     1.2713760     1.3117180
  H       -0.8715850     1.2713570     1.3119230
  H       -1.2530320    -0.3758260    -1.4557010
  H       -1.1854530    -1.9310640    -0.6541770
  H        2.7601620     0.5190550     0.3238500
  H        3.4151550    -0.9947620    -0.3010430
  H        2.5741680    -0.9734350     1.2548350
  H        0.8834690     1.8928260    -1.1356920
  H       -0.0001040     3.0640380    -0.1556120
  H       -0.8838160     1.8927720    -1.1355030
  H       -3.4151150    -0.9948620    -0.3010190
  H       -2.7601920     0.5189470     0.3239600
  H       -2.5741050    -0.9735930     1.2548470
units angstrom
no_reorient  #important for SAPT in psi4, default
symmetry c1  #important for SAPT in psi4, default
}

set PROPERTIES_ORIGIN ["COM"]
properties('MP2/aug-cc-pvtz', properties = ['dipole'])
--------------------------------------------------------------------------

    Molecular point group: c1
  Charge       = 0
  Multiplicity = 1
  Basis Set: AUG-CC-PVTZ
    Blend: AUG-CC-PVTZ
  Basis Set: (AUG-CC-PVTZ AUX)
    Blend: AUG-CC-PVTZ-JKFIT

    Orbital Energies [Eh]
    ---------------------

    Doubly Occupied:

       1A    -11.218181     2A    -11.216461     3A    -11.213663
       4A    -11.212927     5A    -11.209577     6A    -11.208809
       7A    -11.208132     8A     -1.102742     9A     -1.019222
      10A     -1.005237    11A     -0.921201    12A     -0.849502
      13A     -0.816005    14A     -0.733142    15A     -0.646998
      16A     -0.636495    17A     -0.592700    18A     -0.563660
      19A     -0.561383    20A     -0.558565    21A     -0.550316
      22A     -0.520336    23A     -0.500918    24A     -0.493619
      25A     -0.488415    26A     -0.462165    27A     -0.442723
      28A     -0.438582    29A     -0.419576

  @DF-RHF Final Energy:  -274.47998689638280

   => Energetics <=

    Nuclear Repulsion Energy =            333.6014519350220553
    One-Electron Energy =               -1030.5403674512401722
    Two-Electron Energy =                 422.4589286198353193
    Total Energy =                       -274.4799868963827976
  Basis Set: (AUG-CC-PVTZ AUX)
    Blend: AUG-CC-PVTZ-RI
    Molecular point group: c1

    Geometry (in Angstrom), charge = 0, multiplicity = 1:

       Center              X                  Y                   Z               Mass
    ------------   -----------------  -----------------  -----------------  -----------------
         C           -0.002830067788    -0.409563986167     0.295868083722    12.000000000000
         C            1.275415432212    -0.900197686167    -0.397206416278    12.000000000000
         C           -0.002803067788     1.080501013833     0.668975083722    12.000000000000
         C           -1.257317067788    -0.835058986167    -0.478865916278    12.000000000000
         C            2.570841932212    -0.538330986167     0.231027083722    12.000000000000
         C           -0.002959067788     2.043801013833    -0.517147916278    12.000000000000
         C           -2.576514067788    -0.538422986167     0.231066083722    12.000000000000
         H           -0.002827067788    -0.971253986167     1.244203083722     1.007825032230
         H            1.182666932212    -1.914454986167    -0.665976916278     1.007825032230
         H            1.250171932212    -0.359270986167    -1.467611916278     1.007825032230
         H            0.868973932212     1.288019013833     1.299837083722     1.007825032230
         H           -0.874434067788     1.288000013833     1.300042083722     1.007825032230
         H           -1.255881067788    -0.359182986167    -1.467581916278     1.007825032230
         H           -1.188302067788    -1.914420986167    -0.666057916278     1.007825032230
         H            2.757312932212     0.535698013833     0.311969083722     1.007825032230
         H            3.412305932212    -0.978118986167    -0.312923916278     1.007825032230
         H            2.571318932212    -0.956791986167     1.242954083722     1.007825032230
         H            0.880619932212     1.909469013833    -1.147572916278     1.007825032230
         H           -0.002953067788     3.080681013833    -0.167492916278     1.007825032230
         H           -0.886665067788     1.909415013833    -1.147383916278     1.007825032230
         H           -3.417964067788    -0.978218986167    -0.312899916278     1.007825032230
         H           -2.763041067788     0.535590013833     0.312079083722     1.007825032230
         H           -2.576954067788    -0.956949986167     1.242966083722     1.007825032230

  Basis Set: AUG-CC-PVTZ
    Blend: AUG-CC-PVTZ
  Basis Set: (AUG-CC-PVTZ AUX)
    Blend: AUG-CC-PVTZ-JKFIT
	 Reference Energy          =    -274.4799868963827976 [Eh]
	 Singles Energy            =      -0.0000000000000000 [Eh]
	 Same-Spin Energy          =      -0.2973122601257724 [Eh]
	 Opposite-Spin Energy      =      -1.1080382718243669 [Eh]
	 Correlation Energy        =      -1.4053505319501394 [Eh]
	 Total Energy              =    -275.8853374283329458 [Eh]

	 ================> DF-SCS-MP2 Energies <==================
	-----------------------------------------------------------
	 SCS Same-Spin Scale       =       0.3333333333333333 [-]
	 SCS Opposite-Spin Scale   =       1.2000000000000000 [-]
	 SCS Same-Spin Energy      =      -0.0991040867085908 [Eh]
	 SCS Opposite-Spin Energy  =      -1.3296459261892402 [Eh]
	 SCS Correlation Energy    =      -1.4287500128978310 [Eh]
	 SCS Total Energy          =    -275.9087369092806057 [Eh]
	-----------------------------------------------------------

  Dipole Moment: [D]
     X:     0.0096      Y:    -0.1002      Z:     0.0943     Total:     0.1379

*** Psi4 exiting successfully. Buy a developer a beer!
