                               Psi4 1.4a3.dev225

  ==> Input File <==

--------------------------------------------------------------------------
#psi4
#
memory 32 gb

molecule  {
0 1
  C        0.0000000    -0.4260750     0.3076100
  C        1.2135982    -0.8375786    -0.4419151
  C        0.0000000     1.0639900     0.6808960
  C       -1.2544720    -0.8514380    -0.4671590
  C        2.5736720    -0.5554960     0.2430540
  C        0.0000000     2.0274100    -0.5051140
  C       -2.5736720    -0.5554960     0.2430540
  H        0.0000000    -0.9878700     1.2558670
  H        1.1852130    -1.9306880    -0.6549460
  H        1.2532300    -0.3750670    -1.4556400
  H        0.8717050     1.2713650     1.3118990
  H       -0.8717030     1.2713660     1.3119000
  H       -1.2532300    -0.3750660    -1.4556400
  H       -1.1852130    -1.9306880    -0.6549460
  H        2.7605980     0.5184190     0.3244420
  H        3.4150690    -0.9954020    -0.3009240
  H        2.5738760    -0.9743250     1.2548280
  H        0.8836400     1.8931300    -1.1354610
  H        0.0000000     3.0642610    -0.1553580
  H       -0.8836410     1.8931290    -1.1354600
  H       -3.4150690    -0.9954020    -0.3009240
  H       -2.7605980     0.5184190     0.3244430
  H       -2.5738760    -0.9743270     1.2548280
units angstrom
no_reorient  #important for SAPT in psi4, default
symmetry c1  #important for SAPT in psi4, default
}

set PROPERTIES_ORIGIN ["COM"]
properties('MP2/aug-cc-pvtz', properties = ['dipole'])
--------------------------------------------------------------------------

    Molecular point group: c1
  Charge       = 0
  Multiplicity = 1
  Basis Set: AUG-CC-PVTZ
    Blend: AUG-CC-PVTZ
  Basis Set: (AUG-CC-PVTZ AUX)
    Blend: AUG-CC-PVTZ-JKFIT

    Orbital Energies [Eh]
    ---------------------

    Doubly Occupied:

       1A    -11.215532     2A    -11.214372     3A    -11.212891
       4A    -11.212237     5A    -11.209950     6A    -11.209079
       7A    -11.208820     8A     -1.106672     9A     -1.011390
      10A     -1.003595    11A     -0.920871    12A     -0.850836
      13A     -0.816836    14A     -0.735047    15A     -0.647962
      16A     -0.634661    17A     -0.594128    18A     -0.560785
      19A     -0.559944    20A     -0.556826    21A     -0.546252
      22A     -0.516288    23A     -0.500400    24A     -0.495006
      25A     -0.479896    26A     -0.468291    27A     -0.445552
      28A     -0.438507    29A     -0.430718

  @DF-RHF Final Energy:  -274.48888105052919

   => Energetics <=

    Nuclear Repulsion Energy =            334.2544332555827964
    One-Electron Energy =               -1031.8799432885418810
    Two-Electron Energy =                 423.1366289824298406
    Total Energy =                       -274.4888810505291872
  Basis Set: (AUG-CC-PVTZ AUX)
    Blend: AUG-CC-PVTZ-RI
    Molecular point group: c1

    Geometry (in Angstrom), charge = 0, multiplicity = 1:

       Center              X                  Y                   Z               Mass
    ------------   -----------------  -----------------  -----------------  -----------------
         C            0.004898712708    -0.418904226758     0.302492736857    12.000000000000
         C            1.218496912708    -0.830407826758    -0.447032363143    12.000000000000
         C            0.004898712708     1.071160773242     0.675778736857    12.000000000000
         C           -1.249573287292    -0.844267226758    -0.472276263143    12.000000000000
         C            2.578570712708    -0.548325226758     0.237936736857    12.000000000000
         C            0.004898712708     2.034580773242    -0.510231263143    12.000000000000
         C           -2.568773287292    -0.548325226758     0.237936736857    12.000000000000
         H            0.004898712708    -0.980699226758     1.250749736857     1.007825032230
         H            1.190111712708    -1.923517226758    -0.660063263143     1.007825032230
         H            1.258128712708    -0.367896226758    -1.460757263143     1.007825032230
         H            0.876603712708     1.278535773242     1.306781736857     1.007825032230
         H           -0.866804287292     1.278536773242     1.306782736857     1.007825032230
         H           -1.248331287292    -0.367895226758    -1.460757263143     1.007825032230
         H           -1.180314287292    -1.923517226758    -0.660063263143     1.007825032230
         H            2.765496712708     0.525589773242     0.319324736857     1.007825032230
         H            3.419967712708    -0.988231226758    -0.306041263143     1.007825032230
         H            2.578774712708    -0.967154226758     1.249710736857     1.007825032230
         H            0.888538712708     1.900300773242    -1.140578263143     1.007825032230
         H            0.004898712708     3.071431773242    -0.160475263143     1.007825032230
         H           -0.878742287292     1.900299773242    -1.140577263143     1.007825032230
         H           -3.410170287292    -0.988231226758    -0.306041263143     1.007825032230
         H           -2.755699287292     0.525589773242     0.319325736857     1.007825032230
         H           -2.568977287292    -0.967156226758     1.249710736857     1.007825032230

  Basis Set: AUG-CC-PVTZ
    Blend: AUG-CC-PVTZ
  Basis Set: (AUG-CC-PVTZ AUX)
    Blend: AUG-CC-PVTZ-JKFIT
	 Reference Energy          =    -274.4888810505291872 [Eh]
	 Singles Energy            =      -0.0000000000000000 [Eh]
	 Same-Spin Energy          =      -0.2971875772323306 [Eh]
	 Opposite-Spin Energy      =      -1.1076733410168815 [Eh]
	 Correlation Energy        =      -1.4048609182492120 [Eh]
	 Total Energy              =    -275.8937419687783859 [Eh]

	 ================> DF-SCS-MP2 Energies <==================
	-----------------------------------------------------------
	 SCS Same-Spin Scale       =       0.3333333333333333 [-]
	 SCS Opposite-Spin Scale   =       1.2000000000000000 [-]
	 SCS Same-Spin Energy      =      -0.0990625257441102 [Eh]
	 SCS Opposite-Spin Energy  =      -1.3292080092202578 [Eh]
	 SCS Correlation Energy    =      -1.4282705349643681 [Eh]
	 SCS Total Energy          =    -275.9171515854935706 [Eh]
	-----------------------------------------------------------

  Dipole Moment: [D]
     X:    -0.0162      Y:    -0.0603      Z:     0.0338     Total:     0.0710

*** Psi4 exiting successfully. Buy a developer a beer!
