                               Psi4 1.3.2 release

  ==> Input File <==

--------------------------------------------------------------------------
#psi4
#
memory 32 gb

molecule  {
0 1
  C        0.0000190    -0.4262070     0.3077490
  C        1.2816555    -0.8783885    -0.5043020
  C        0.0000460     1.0638580     0.6808560
  C       -1.2544680    -0.8517020    -0.4669850
  C        2.5736910    -0.5549740     0.2429080
  C       -0.0001100     2.0271580    -0.5052670
  C       -2.5736650    -0.5550660     0.2429470
  H        0.0000220    -0.9878970     1.2560840
  H        1.1855160    -1.9310980    -0.6540960
  H        1.2530210    -0.3759140    -1.4557310
  H        0.8718230     1.2713760     1.3117180
  H       -0.8715850     1.2713570     1.3119230
  H       -1.2530320    -0.3758260    -1.4557010
  H       -1.1854530    -1.9310640    -0.6541770
  H        2.7601620     0.5190550     0.3238500
  H        3.4151550    -0.9947620    -0.3010430
  H        2.5741680    -0.9734350     1.2548350
  H        0.8834690     1.8928260    -1.1356920
  H       -0.0001040     3.0640380    -0.1556120
  H       -0.8838160     1.8927720    -1.1355030
  H       -3.4151150    -0.9948620    -0.3010190
  H       -2.7601920     0.5189470     0.3239600
  H       -2.5741050    -0.9735930     1.2548470
units angstrom
no_reorient  #important for SAPT in psi4, default
symmetry c1  #important for SAPT in psi4, default
}

set PROPERTIES_ORIGIN ["COM"]
properties('MP2/aug-cc-pvtz', properties = ['dipole'])
--------------------------------------------------------------------------

    Molecular point group: c1
  Charge       = 0
  Multiplicity = 1
  Basis Set: AUG-CC-PVTZ
    Blend: AUG-CC-PVTZ
  Basis Set: (AUG-CC-PVTZ AUX)
    Blend: AUG-CC-PVTZ-JKFIT

    Orbital Energies [Eh]
    ---------------------

    Doubly Occupied:

       1A    -11.218615     2A    -11.211948     3A    -11.211796
       4A    -11.210508     5A    -11.208718     6A    -11.208612
       7A    -11.208483     8A     -1.097174     9A     -1.012593
      10A     -1.003998    11A     -0.916051    12A     -0.850747
      13A     -0.817612    14A     -0.734875    15A     -0.647475
      16A     -0.632236    17A     -0.594978    18A     -0.562003
      19A     -0.557846    20A     -0.555319    21A     -0.543416
      22A     -0.517547    23A     -0.501877    24A     -0.497067
      25A     -0.486568    26A     -0.473280    27A     -0.444077
      28A     -0.435836    29A     -0.422306

  @DF-RHF Final Energy:  -274.48971804711476

   => Energetics <=

    Nuclear Repulsion Energy =            332.9625407000170298
    One-Electron Energy =               -1029.3373922990856499
    Two-Electron Energy =                 421.8851335519538566
    Total Energy =                       -274.4897180471147635
  Basis Set: (AUG-CC-PVTZ AUX)
    Blend: AUG-CC-PVTZ-RI
    Molecular point group: c1

    Geometry (in Angstrom), charge = 0, multiplicity = 1:

       Center              X                  Y                   Z               Mass
    ------------   -----------------  -----------------  -----------------  -----------------
         C           -0.003236478959    -0.414172480308     0.310127410971    12.000000000000
         C            1.278400021041    -0.866353980308    -0.501923589029    12.000000000000
         C           -0.003209478959     1.075892519692     0.683234410971    12.000000000000
         C           -1.257723478959    -0.839667480308    -0.464606589029    12.000000000000
         C            2.570435521041    -0.542939480308     0.245286410971    12.000000000000
         C           -0.003365478959     2.039192519692    -0.502888589029    12.000000000000
         C           -2.576920478959    -0.543031480308     0.245325410971    12.000000000000
         H           -0.003233478959    -0.975862480308     1.258462410971     1.007825032230
         H            1.182260521041    -1.919063480308    -0.651717589029     1.007825032230
         H            1.249765521041    -0.363879480308    -1.453352589029     1.007825032230
         H            0.868567521041     1.283410519692     1.314096410971     1.007825032230
         H           -0.874840478959     1.283391519692     1.314301410971     1.007825032230
         H           -1.256287478959    -0.363791480308    -1.453322589029     1.007825032230
         H           -1.188708478959    -1.919029480308    -0.651798589029     1.007825032230
         H            2.756906521041     0.531089519692     0.326228410971     1.007825032230
         H            3.411899521041    -0.982727480308    -0.298664589029     1.007825032230
         H            2.570912521041    -0.961400480308     1.257213410971     1.007825032230
         H            0.880213521041     1.904860519692    -1.133313589029     1.007825032230
         H           -0.003359478959     3.076072519692    -0.153233589029     1.007825032230
         H           -0.887071478959     1.904806519692    -1.133124589029     1.007825032230
         H           -3.418370478959    -0.982827480308    -0.298640589029     1.007825032230
         H           -2.763447478959     0.530981519692     0.326338410971     1.007825032230
         H           -2.577360478959    -0.961558480308     1.257225410971     1.007825032230

  Basis Set: AUG-CC-PVTZ
    Blend: AUG-CC-PVTZ
  Basis Set: (AUG-CC-PVTZ AUX)
    Blend: AUG-CC-PVTZ-JKFIT
	 Reference Energy          =    -274.4897180471147635 [Eh]
	 Singles Energy            =      -0.0000000000000000 [Eh]
	 Same-Spin Energy          =      -0.2965930912100723 [Eh]
	 Opposite-Spin Energy      =      -1.1070785652777211 [Eh]
	 Correlation Energy        =      -1.4036716564877934 [Eh]
	 Total Energy              =    -275.8933897036025655 [Eh]

	 ================> DF-SCS-MP2 Energies <==================
	-----------------------------------------------------------
	 SCS Same-Spin Scale       =       0.3333333333333333 [-]
	 SCS Opposite-Spin Scale   =       1.2000000000000000 [-]
	 SCS Same-Spin Energy      =      -0.0988643637366908 [Eh]
	 SCS Opposite-Spin Energy  =      -1.3284942783332652 [Eh]
	 SCS Correlation Energy    =      -1.4273586420699560 [Eh]
	 SCS Total Energy          =    -275.9170766891847393 [Eh]
	-----------------------------------------------------------

  Dipole Moment: [D]
     X:     0.0081      Y:    -0.0706      Z:     0.0207     Total:     0.0740

*** Psi4 exiting successfully. Buy a developer a beer!
