                               Psi4 1.3.2 release

  ==> Input File <==

--------------------------------------------------------------------------
#psi4
#
memory 32 gb

molecule  {
0 1
  C        0.0000190    -0.4262070     0.3077490
  C        1.3406599    -0.9305094    -0.5761664
  C        0.0000460     1.0638580     0.6808560
  C       -1.2544680    -0.8517020    -0.4669850
  C        2.5736910    -0.5549740     0.2429080
  C       -0.0001100     2.0271580    -0.5052670
  C       -2.5736650    -0.5550660     0.2429470
  H        0.0000220    -0.9878970     1.2560840
  H        1.1855160    -1.9310980    -0.6540960
  H        1.2530210    -0.3759140    -1.4557310
  H        0.8718230     1.2713760     1.3117180
  H       -0.8715850     1.2713570     1.3119230
  H       -1.2530320    -0.3758260    -1.4557010
  H       -1.1854530    -1.9310640    -0.6541770
  H        2.7601620     0.5190550     0.3238500
  H        3.4151550    -0.9947620    -0.3010430
  H        2.5741680    -0.9734350     1.2548350
  H        0.8834690     1.8928260    -1.1356920
  H       -0.0001040     3.0640380    -0.1556120
  H       -0.8838160     1.8927720    -1.1355030
  H       -3.4151150    -0.9948620    -0.3010190
  H       -2.7601920     0.5189470     0.3239600
  H       -2.5741050    -0.9735930     1.2548470
units angstrom
no_reorient  #important for SAPT in psi4, default
symmetry c1  #important for SAPT in psi4, default
}

set PROPERTIES_ORIGIN ["COM"]
properties('MP2/aug-cc-pvtz', properties = ['dipole'])
--------------------------------------------------------------------------

    Molecular point group: c1
  Charge       = 0
  Multiplicity = 1
  Basis Set: AUG-CC-PVTZ
    Blend: AUG-CC-PVTZ
  Basis Set: (AUG-CC-PVTZ AUX)
    Blend: AUG-CC-PVTZ-JKFIT

    Orbital Energies [Eh]
    ---------------------

    Doubly Occupied:

       1A    -11.220950     2A    -11.211954     3A    -11.211010
       4A    -11.209330     5A    -11.208808     6A    -11.208626
       7A    -11.207721     8A     -1.090175     9A     -1.012830
      10A     -1.004026    11A     -0.911827    12A     -0.851953
      13A     -0.820478    14A     -0.734051    15A     -0.650650
      16A     -0.630916    17A     -0.597028    18A     -0.563564
      19A     -0.557829    20A     -0.553883    21A     -0.537885
      22A     -0.520524    23A     -0.506909    24A     -0.500161
      25A     -0.491283    26A     -0.476657    27A     -0.445057
      28A     -0.437644    29A     -0.395187

  @DF-RHF Final Energy:  -274.47132188133065

   => Energetics <=

    Nuclear Repulsion Energy =            331.5914417565588792
    One-Electron Energy =               -1026.5876985347163100
    Two-Electron Energy =                 420.5249348968267782
    Total Energy =                       -274.4713218813306526
  Basis Set: (AUG-CC-PVTZ AUX)
    Blend: AUG-CC-PVTZ-RI
    Molecular point group: c1

    Geometry (in Angstrom), charge = 0, multiplicity = 1:

       Center              X                  Y                   Z               Mass
    ------------   -----------------  -----------------  -----------------  -----------------
         C           -0.010308153186    -0.407925793193     0.318740355520    12.000000000000
         C            1.330332746814    -0.912228193193    -0.565175044480    12.000000000000
         C           -0.010281153186     1.082139206807     0.691847355520    12.000000000000
         C           -1.264795153186    -0.833420793193    -0.455993644480    12.000000000000
         C            2.563363846814    -0.536692793193     0.253899355520    12.000000000000
         C           -0.010437153186     2.045439206807    -0.494275644480    12.000000000000
         C           -2.583992153186    -0.536784793193     0.253938355520    12.000000000000
         H           -0.010305153186    -0.969615793193     1.267075355520     1.007825032230
         H            1.175188846814    -1.912816793193    -0.643104644480     1.007825032230
         H            1.242693846814    -0.357632793193    -1.444739644480     1.007825032230
         H            0.861495846814     1.289657206807     1.322709355520     1.007825032230
         H           -0.881912153186     1.289638206807     1.322914355520     1.007825032230
         H           -1.263359153186    -0.357544793193    -1.444709644480     1.007825032230
         H           -1.195780153186    -1.912782793193    -0.643185644480     1.007825032230
         H            2.749834846814     0.537336206807     0.334841355520     1.007825032230
         H            3.404827846814    -0.976480793193    -0.290051644480     1.007825032230
         H            2.563840846814    -0.955153793193     1.265826355520     1.007825032230
         H            0.873141846814     1.911107206807    -1.124700644480     1.007825032230
         H           -0.010431153186     3.082319206807    -0.144620644480     1.007825032230
         H           -0.894143153186     1.911053206807    -1.124511644480     1.007825032230
         H           -3.425442153186    -0.976580793193    -0.290027644480     1.007825032230
         H           -2.770519153186     0.537228206807     0.334951355520     1.007825032230
         H           -2.584432153186    -0.955311793193     1.265838355520     1.007825032230

  Basis Set: AUG-CC-PVTZ
    Blend: AUG-CC-PVTZ
  Basis Set: (AUG-CC-PVTZ AUX)
    Blend: AUG-CC-PVTZ-JKFIT
	 Reference Energy          =    -274.4713218813306526 [Eh]
	 Singles Energy            =      -0.0000000000000000 [Eh]
	 Same-Spin Energy          =      -0.2967064869420439 [Eh]
	 Opposite-Spin Energy      =      -1.1079466331703549 [Eh]
	 Correlation Energy        =      -1.4046531201123988 [Eh]
	 Total Energy              =    -275.8759750014430665 [Eh]

	 ================> DF-SCS-MP2 Energies <==================
	-----------------------------------------------------------
	 SCS Same-Spin Scale       =       0.3333333333333333 [-]
	 SCS Opposite-Spin Scale   =       1.2000000000000000 [-]
	 SCS Same-Spin Energy      =      -0.0989021623140146 [Eh]
	 SCS Opposite-Spin Energy  =      -1.3295359598044258 [Eh]
	 SCS Correlation Energy    =      -1.4284381221184406 [Eh]
	 SCS Total Energy          =    -275.8997600034491029 [Eh]
	-----------------------------------------------------------

  Dipole Moment: [D]
     X:     0.0129      Y:    -0.0642      Z:     0.0247     Total:     0.0700

*** Psi4 exiting successfully. Buy a developer a beer!
