                               Psi4 1.3.2 release

  ==> Input File <==

--------------------------------------------------------------------------
#psi4
#
memory 32 gb

molecule  {
0 1
  C        0.0646254    -0.3907103     0.3854616
  C        1.2544970    -0.8517210    -0.4669820
  C        0.0000460     1.0638580     0.6808560
  C       -1.2544680    -0.8517020    -0.4669850
  C        2.5736910    -0.5549740     0.2429080
  C       -0.0001100     2.0271580    -0.5052670
  C       -2.5736650    -0.5550660     0.2429470
  H        0.0000220    -0.9878970     1.2560840
  H        1.1855160    -1.9310980    -0.6540960
  H        1.2530210    -0.3759140    -1.4557310
  H        0.8718230     1.2713760     1.3117180
  H       -0.8715850     1.2713570     1.3119230
  H       -1.2530320    -0.3758260    -1.4557010
  H       -1.1854530    -1.9310640    -0.6541770
  H        2.7601620     0.5190550     0.3238500
  H        3.4151550    -0.9947620    -0.3010430
  H        2.5741680    -0.9734350     1.2548350
  H        0.8834690     1.8928260    -1.1356920
  H       -0.0001040     3.0640380    -0.1556120
  H       -0.8838160     1.8927720    -1.1355030
  H       -3.4151150    -0.9948620    -0.3010190
  H       -2.7601920     0.5189470     0.3239600
  H       -2.5741050    -0.9735930     1.2548470
units angstrom
no_reorient  #important for SAPT in psi4, default
symmetry c1  #important for SAPT in psi4, default
}

set PROPERTIES_ORIGIN ["COM"]
properties('MP2/aug-cc-pvtz', properties = ['dipole'])
--------------------------------------------------------------------------

    Molecular point group: c1
  Charge       = 0
  Multiplicity = 1
  Basis Set: AUG-CC-PVTZ
    Blend: AUG-CC-PVTZ
  Basis Set: (AUG-CC-PVTZ AUX)
    Blend: AUG-CC-PVTZ-JKFIT

    Orbital Energies [Eh]
    ---------------------

    Doubly Occupied:

       1A    -11.216436     2A    -11.213617     3A    -11.213032
       4A    -11.210952     5A    -11.210336     6A    -11.207097
       7A    -11.207051     8A     -1.100441     9A     -1.010586
      10A     -1.003564    11A     -0.918296    12A     -0.853191
      13A     -0.810261    14A     -0.740735    15A     -0.648342
      16A     -0.633379    17A     -0.592626    18A     -0.563934
      19A     -0.559102    20A     -0.553705    21A     -0.542751
      22A     -0.517585    23A     -0.502416    24A     -0.496190
      25A     -0.483086    26A     -0.468843    27A     -0.460313
      28A     -0.441310    29A     -0.403669

  @DF-RHF Final Energy:  -274.48160837881869

   => Energetics <=

    Nuclear Repulsion Energy =            333.3579816187178722
    One-Electron Energy =               -1030.1134842035291967
    Two-Electron Energy =                 422.2738942059926330
    Total Energy =                       -274.4816083788186916
  Basis Set: (AUG-CC-PVTZ AUX)
    Blend: AUG-CC-PVTZ-RI
    Molecular point group: c1

    Geometry (in Angstrom), charge = 0, multiplicity = 1:

       Center              X                  Y                   Z               Mass
    ------------   -----------------  -----------------  -----------------  -----------------
         C            0.056881792201    -0.386126156399     0.374053359929    12.000000000000
         C            1.246753392201    -0.847136856399    -0.478390240071    12.000000000000
         C           -0.007697607799     1.068442143601     0.669447759929    12.000000000000
         C           -1.262211607799    -0.847117856399    -0.478393240071    12.000000000000
         C            2.565947392201    -0.550389856399     0.231499759929    12.000000000000
         C           -0.007853607799     2.031742143601    -0.516675240071    12.000000000000
         C           -2.581408607799    -0.550481856399     0.231538759929    12.000000000000
         H           -0.007721607799    -0.983312856399     1.244675759929     1.007825032230
         H            1.177772392201    -1.926513856399    -0.665504240071     1.007825032230
         H            1.245277392201    -0.371329856399    -1.467139240071     1.007825032230
         H            0.864079392201     1.275960143601     1.300309759929     1.007825032230
         H           -0.879328607799     1.275941143601     1.300514759929     1.007825032230
         H           -1.260775607799    -0.371241856399    -1.467109240071     1.007825032230
         H           -1.193196607799    -1.926479856399    -0.665585240071     1.007825032230
         H            2.752418392201     0.523639143601     0.312441759929     1.007825032230
         H            3.407411392201    -0.990177856399    -0.312451240071     1.007825032230
         H            2.566424392201    -0.968850856399     1.243426759929     1.007825032230
         H            0.875725392201     1.897410143601    -1.147100240071     1.007825032230
         H           -0.007847607799     3.068622143601    -0.167020240071     1.007825032230
         H           -0.891559607799     1.897356143601    -1.146911240071     1.007825032230
         H           -3.422858607799    -0.990277856399    -0.312427240071     1.007825032230
         H           -2.767935607799     0.523531143601     0.312551759929     1.007825032230
         H           -2.581848607799    -0.969008856399     1.243438759929     1.007825032230

  Basis Set: AUG-CC-PVTZ
    Blend: AUG-CC-PVTZ
  Basis Set: (AUG-CC-PVTZ AUX)
    Blend: AUG-CC-PVTZ-JKFIT
	 Reference Energy          =    -274.4816083788186916 [Eh]
	 Singles Energy            =      -0.0000000000000000 [Eh]
	 Same-Spin Energy          =      -0.2970081424940220 [Eh]
	 Opposite-Spin Energy      =      -1.1078349446587410 [Eh]
	 Correlation Energy        =      -1.4048430871527628 [Eh]
	 Total Energy              =    -275.8864514659714473 [Eh]

	 ================> DF-SCS-MP2 Energies <==================
	-----------------------------------------------------------
	 SCS Same-Spin Scale       =       0.3333333333333333 [-]
	 SCS Opposite-Spin Scale   =       1.2000000000000000 [-]
	 SCS Same-Spin Energy      =      -0.0990027141646740 [Eh]
	 SCS Opposite-Spin Energy  =      -1.3294019335904892 [Eh]
	 SCS Correlation Energy    =      -1.4284046477551633 [Eh]
	 SCS Total Energy          =    -275.9100130265738358 [Eh]
	-----------------------------------------------------------

  Dipole Moment: [D]
     X:     0.0288      Y:    -0.0429      Z:     0.0358     Total:     0.0629

*** Psi4 exiting successfully. Buy a developer a beer!
