                               Psi4 1.3.2 release

  ==> Input File <==

--------------------------------------------------------------------------
#psi4
#
memory 32 gb

molecule  {
0 1
  C        0.0000190    -0.4262070     0.3077490
  C        1.2544970    -0.8517210    -0.4669820
  C        0.0000460     1.0638580     0.6808560
  C       -1.2544680    -0.8517020    -0.4669850
  C        2.4873099    -0.5744051     0.1964243
  C       -0.0001100     2.0271580    -0.5052670
  C       -2.5736650    -0.5550660     0.2429470
  H        0.0000220    -0.9878970     1.2560840
  H        1.1855160    -1.9310980    -0.6540960
  H        1.2530210    -0.3759140    -1.4557310
  H        0.8718230     1.2713760     1.3117180
  H       -0.8715850     1.2713570     1.3119230
  H       -1.2530320    -0.3758260    -1.4557010
  H       -1.1854530    -1.9310640    -0.6541770
  H        2.7601620     0.5190550     0.3238500
  H        3.4151550    -0.9947620    -0.3010430
  H        2.5741680    -0.9734350     1.2548350
  H        0.8834690     1.8928260    -1.1356920
  H       -0.0001040     3.0640380    -0.1556120
  H       -0.8838160     1.8927720    -1.1355030
  H       -3.4151150    -0.9948620    -0.3010190
  H       -2.7601920     0.5189470     0.3239600
  H       -2.5741050    -0.9735930     1.2548470
units angstrom
no_reorient  #important for SAPT in psi4, default
symmetry c1  #important for SAPT in psi4, default
}

set PROPERTIES_ORIGIN ["COM"]
properties('MP2/aug-cc-pvtz', properties = ['dipole'])
--------------------------------------------------------------------------

    Molecular point group: c1
  Charge       = 0
  Multiplicity = 1
  Basis Set: AUG-CC-PVTZ
    Blend: AUG-CC-PVTZ
  Basis Set: (AUG-CC-PVTZ AUX)
    Blend: AUG-CC-PVTZ-JKFIT

    Orbital Energies [Eh]
    ---------------------

    Doubly Occupied:

       1A    -11.217778     2A    -11.215350     3A    -11.212865
       4A    -11.211881     5A    -11.209125     6A    -11.208776
       7A    -11.208059     8A     -1.107584     9A     -1.025039
      10A     -1.005492    11A     -0.917873    12A     -0.849505
      13A     -0.811727    14A     -0.736481    15A     -0.649393
      16A     -0.634597    17A     -0.596187    18A     -0.571636
      19A     -0.560083    20A     -0.556878    21A     -0.545882
      22A     -0.516624    23A     -0.497074    24A     -0.493703
      25A     -0.485073    26A     -0.461298    27A     -0.442335
      28A     -0.436213    29A     -0.428933

  @DF-RHF Final Energy:  -274.48016846342927

   => Energetics <=

    Nuclear Repulsion Energy =            335.1075155781385320
    One-Electron Energy =               -1033.5484811330047705
    Two-Electron Energy =                 423.9607970914369730
    Total Energy =                       -274.4801684634292656
  Basis Set: (AUG-CC-PVTZ AUX)
    Blend: AUG-CC-PVTZ-RI
    Molecular point group: c1

    Geometry (in Angstrom), charge = 0, multiplicity = 1:

       Center              X                  Y                   Z               Mass
    ------------   -----------------  -----------------  -----------------  -----------------
         C            0.010371236112    -0.415039762466     0.311225679932    12.000000000000
         C            1.264849236112    -0.840553762466    -0.463505320068    12.000000000000
         C            0.010398236112     1.075025237534     0.684332679932    12.000000000000
         C           -1.244115763888    -0.840534762466    -0.463508320068    12.000000000000
         C            2.497662136112    -0.563237862466     0.199900979932    12.000000000000
         C            0.010242236112     2.038325237534    -0.501790320068    12.000000000000
         C           -2.563312763888    -0.543898762466     0.246423679932    12.000000000000
         H            0.010374236112    -0.976729762466     1.259560679932     1.007825032230
         H            1.195868236112    -1.919930762466    -0.650619320068     1.007825032230
         H            1.263373236112    -0.364746762466    -1.452254320068     1.007825032230
         H            0.882175236112     1.282543237534     1.315194679932     1.007825032230
         H           -0.861232763888     1.282524237534     1.315399679932     1.007825032230
         H           -1.242679763888    -0.364658762466    -1.452224320068     1.007825032230
         H           -1.175100763888    -1.919896762466    -0.650700320068     1.007825032230
         H            2.770514236112     0.530222237534     0.327326679932     1.007825032230
         H            3.425507236112    -0.983594762466    -0.297566320068     1.007825032230
         H            2.584520236112    -0.962267762466     1.258311679932     1.007825032230
         H            0.893821236112     1.903993237534    -1.132215320068     1.007825032230
         H            0.010248236112     3.075205237534    -0.152135320068     1.007825032230
         H           -0.873463763888     1.903939237534    -1.132026320068     1.007825032230
         H           -3.404762763888    -0.983694762466    -0.297542320068     1.007825032230
         H           -2.749839763888     0.530114237534     0.327436679932     1.007825032230
         H           -2.563752763888    -0.962425762466     1.258323679932     1.007825032230

  Basis Set: AUG-CC-PVTZ
    Blend: AUG-CC-PVTZ
  Basis Set: (AUG-CC-PVTZ AUX)
    Blend: AUG-CC-PVTZ-JKFIT
	 Reference Energy          =    -274.4801684634292656 [Eh]
	 Singles Energy            =      -0.0000000000000000 [Eh]
	 Same-Spin Energy          =      -0.2978638557403956 [Eh]
	 Opposite-Spin Energy      =      -1.1084002034309601 [Eh]
	 Correlation Energy        =      -1.4062640591713558 [Eh]
	 Total Energy              =    -275.8864325226006144 [Eh]

	 ================> DF-SCS-MP2 Energies <==================
	-----------------------------------------------------------
	 SCS Same-Spin Scale       =       0.3333333333333333 [-]
	 SCS Opposite-Spin Scale   =       1.2000000000000000 [-]
	 SCS Same-Spin Energy      =      -0.0992879519134652 [Eh]
	 SCS Opposite-Spin Energy  =      -1.3300802441171522 [Eh]
	 SCS Correlation Energy    =      -1.4293681960306175 [Eh]
	 SCS Total Energy          =    -275.9095366594598886 [Eh]
	-----------------------------------------------------------

  Dipole Moment: [D]
     X:    -0.0093      Y:    -0.0663      Z:     0.0145     Total:     0.0685

*** Psi4 exiting successfully. Buy a developer a beer!
