                               Psi4 1.3.2 release

  ==> Input File <==

--------------------------------------------------------------------------
#psi4
#
memory 32 gb

molecule  {
0 1
  C        0.0000190    -0.4262070     0.3077490
  C        1.2544970    -0.8517210    -0.4669820
  C        0.0000460     1.0638580     0.6808560
  C       -1.2544680    -0.8517020    -0.4669850
  C        2.5736910    -0.5549740     0.2429080
  C       -0.0001100     2.0271580    -0.5052670
  C       -2.5736650    -0.5550660     0.2429470
  H        0.0000220    -0.9878970     1.2560840
  H        1.1792315    -2.0294337    -0.6711429
  H        1.2530210    -0.3759140    -1.4557310
  H        0.8718230     1.2713760     1.3117180
  H       -0.8715850     1.2713570     1.3119230
  H       -1.2530320    -0.3758260    -1.4557010
  H       -1.1854530    -1.9310640    -0.6541770
  H        2.7601620     0.5190550     0.3238500
  H        3.4151550    -0.9947620    -0.3010430
  H        2.5741680    -0.9734350     1.2548350
  H        0.8834690     1.8928260    -1.1356920
  H       -0.0001040     3.0640380    -0.1556120
  H       -0.8838160     1.8927720    -1.1355030
  H       -3.4151150    -0.9948620    -0.3010190
  H       -2.7601920     0.5189470     0.3239600
  H       -2.5741050    -0.9735930     1.2548470
units angstrom
no_reorient  #important for SAPT in psi4, default
symmetry c1  #important for SAPT in psi4, default
}

set PROPERTIES_ORIGIN ["COM"]
properties('MP2/aug-cc-pvtz', properties = ['dipole'])
--------------------------------------------------------------------------

    Molecular point group: c1
  Charge       = 0
  Multiplicity = 1
  Basis Set: AUG-CC-PVTZ
    Blend: AUG-CC-PVTZ
  Basis Set: (AUG-CC-PVTZ AUX)
    Blend: AUG-CC-PVTZ-JKFIT

    Orbital Energies [Eh]
    ---------------------

    Doubly Occupied:

       1A    -11.224964     2A    -11.218321     3A    -11.212930
       4A    -11.212481     5A    -11.210199     6A    -11.209452
       7A    -11.208956     8A     -1.101275     9A     -1.011836
      10A     -1.003590    11A     -0.919373    12A     -0.849377
      13A     -0.813171    14A     -0.733576    15A     -0.644322
      16A     -0.631443    17A     -0.594738    18A     -0.561485
      19A     -0.558078    20A     -0.556659    21A     -0.546515
      22A     -0.516283    23A     -0.500736    24A     -0.496059
      25A     -0.480687    26A     -0.466423    27A     -0.441989
      28A     -0.435332    29A     -0.431668

  @DF-RHF Final Energy:  -274.48538161037442

   => Energetics <=

    Nuclear Repulsion Energy =            333.2057001285898536
    One-Electron Energy =               -1029.7983272656877034
    Two-Electron Energy =                 422.1072455267234886
    Total Energy =                       -274.4853816103744180
  Basis Set: (AUG-CC-PVTZ AUX)
    Blend: AUG-CC-PVTZ-RI
    Molecular point group: c1

    Geometry (in Angstrom), charge = 0, multiplicity = 1:

       Center              X                  Y                   Z               Mass
    ------------   -----------------  -----------------  -----------------  -----------------
         C            0.000081723399    -0.416378766227     0.305826199036    12.000000000000
         C            1.254559723399    -0.841892766227    -0.468904800964    12.000000000000
         C            0.000108723399     1.073686233773     0.678933199036    12.000000000000
         C           -1.254405276601    -0.841873766227    -0.468907800964    12.000000000000
         C            2.573753723399    -0.545145766227     0.240985199036    12.000000000000
         C           -0.000047276601     2.036986233773    -0.507189800964    12.000000000000
         C           -2.573602276601    -0.545237766227     0.241024199036    12.000000000000
         H            0.000084723399    -0.978068766227     1.254161199036     1.007825032230
         H            1.179294223399    -2.019605466227    -0.673065700964     1.007825032230
         H            1.253083723399    -0.366085766227    -1.457653800964     1.007825032230
         H            0.871885723399     1.281204233773     1.309795199036     1.007825032230
         H           -0.871522276601     1.281185233773     1.310000199036     1.007825032230
         H           -1.252969276601    -0.365997766227    -1.457623800964     1.007825032230
         H           -1.185390276601    -1.921235766227    -0.656099800964     1.007825032230
         H            2.760224723399     0.528883233773     0.321927199036     1.007825032230
         H            3.415217723399    -0.984933766227    -0.302965800964     1.007825032230
         H            2.574230723399    -0.963606766227     1.252912199036     1.007825032230
         H            0.883531723399     1.902654233773    -1.137614800964     1.007825032230
         H           -0.000041276601     3.073866233773    -0.157534800964     1.007825032230
         H           -0.883753276601     1.902600233773    -1.137425800964     1.007825032230
         H           -3.415052276601    -0.985033766227    -0.302941800964     1.007825032230
         H           -2.760129276601     0.528775233773     0.322037199036     1.007825032230
         H           -2.574042276601    -0.963764766227     1.252924199036     1.007825032230

  Basis Set: AUG-CC-PVTZ
    Blend: AUG-CC-PVTZ
  Basis Set: (AUG-CC-PVTZ AUX)
    Blend: AUG-CC-PVTZ-JKFIT
	 Reference Energy          =    -274.4853816103744180 [Eh]
	 Singles Energy            =      -0.0000000000000000 [Eh]
	 Same-Spin Energy          =      -0.2968824485676849 [Eh]
	 Opposite-Spin Energy      =      -1.1080262739336149 [Eh]
	 Correlation Energy        =      -1.4049087225012997 [Eh]
	 Total Energy              =    -275.8902903328757361 [Eh]

	 ================> DF-SCS-MP2 Energies <==================
	-----------------------------------------------------------
	 SCS Same-Spin Scale       =       0.3333333333333333 [-]
	 SCS Opposite-Spin Scale   =       1.2000000000000000 [-]
	 SCS Same-Spin Energy      =      -0.0989608161892283 [Eh]
	 SCS Opposite-Spin Energy  =      -1.3296315287203377 [Eh]
	 SCS Correlation Energy    =      -1.4285923449095661 [Eh]
	 SCS Total Energy          =    -275.9139739552840069 [Eh]
	-----------------------------------------------------------

  Dipole Moment: [D]
     X:     0.0043      Y:     0.0248      Z:     0.0583     Total:     0.0635

*** Psi4 exiting successfully. Buy a developer a beer!
