                               Psi4 1.4a3.dev225

  ==> Input File <==

--------------------------------------------------------------------------
#psi4
#
memory 32 gb

molecule  {
0 1
  C        0.0000000    -0.4260750     0.3076100
  C        1.2953458    -0.8652974    -0.4924029
  C        0.0000000     1.0639900     0.6808960
  C       -1.2544720    -0.8514380    -0.4671590
  C        2.5736720    -0.5554960     0.2430540
  C        0.0000000     2.0274100    -0.5051140
  C       -2.5736720    -0.5554960     0.2430540
  H        0.0000000    -0.9878700     1.2558670
  H        1.1852130    -1.9306880    -0.6549460
  H        1.2532300    -0.3750670    -1.4556400
  H        0.8717050     1.2713650     1.3118990
  H       -0.8717030     1.2713660     1.3119000
  H       -1.2532300    -0.3750660    -1.4556400
  H       -1.1852130    -1.9306880    -0.6549460
  H        2.7605980     0.5184190     0.3244420
  H        3.4150690    -0.9954020    -0.3009240
  H        2.5738760    -0.9743250     1.2548280
  H        0.8836400     1.8931300    -1.1354610
  H        0.0000000     3.0642610    -0.1553580
  H       -0.8836410     1.8931290    -1.1354600
  H       -3.4150690    -0.9954020    -0.3009240
  H       -2.7605980     0.5184190     0.3244430
  H       -2.5738760    -0.9743270     1.2548280
units angstrom
no_reorient  #important for SAPT in psi4, default
symmetry c1  #important for SAPT in psi4, default
}

set PROPERTIES_ORIGIN ["COM"]
properties('MP2/aug-cc-pvtz', properties = ['dipole'])
--------------------------------------------------------------------------

    Molecular point group: c1
  Charge       = 0
  Multiplicity = 1
  Basis Set: AUG-CC-PVTZ
    Blend: AUG-CC-PVTZ
  Basis Set: (AUG-CC-PVTZ AUX)
    Blend: AUG-CC-PVTZ-JKFIT

    Orbital Energies [Eh]
    ---------------------

    Doubly Occupied:

       1A    -11.218732     2A    -11.212312     3A    -11.211509
       4A    -11.211293     5A    -11.208799     6A    -11.208590
       7A    -11.208131     8A     -1.097544     9A     -1.015103
      10A     -1.004208    11A     -0.916733    12A     -0.849895
      13A     -0.816747    14A     -0.734368    15A     -0.646437
      16A     -0.632407    17A     -0.595593    18A     -0.562281
      19A     -0.558079    20A     -0.556051    21A     -0.545527
      22A     -0.517507    23A     -0.501346    24A     -0.497453
      25A     -0.486193    26A     -0.472215    27A     -0.443561
      28A     -0.436085    29A     -0.422042

  @DF-RHF Final Energy:  -274.48993842849870

   => Energetics <=

    Nuclear Repulsion Energy =            333.0695819512338858
    One-Electron Energy =               -1029.5455613601950517
    Two-Electron Energy =                 421.9860409804624624
    Total Energy =                       -274.4899384284987036
  Basis Set: (AUG-CC-PVTZ AUX)
    Blend: AUG-CC-PVTZ-RI
    Molecular point group: c1

    Geometry (in Angstrom), charge = 0, multiplicity = 1:

       Center              X                  Y                   Z               Mass
    ------------   -----------------  -----------------  -----------------  -----------------
         C           -0.004898732839    -0.415582130040     0.308543697024    12.000000000000
         C            1.290447067161    -0.854804530040    -0.491469202976    12.000000000000
         C           -0.004898732839     1.074482869960     0.681829697024    12.000000000000
         C           -1.259370732839    -0.840945130040    -0.466225302976    12.000000000000
         C            2.568773267161    -0.545003130040     0.243987697024    12.000000000000
         C           -0.004898732839     2.037902869960    -0.504180302976    12.000000000000
         C           -2.578570732839    -0.545003130040     0.243987697024    12.000000000000
         H           -0.004898732839    -0.977377130040     1.256800697024     1.007825032230
         H            1.180314267161    -1.920195130040    -0.654012302976     1.007825032230
         H            1.248331267161    -0.364574130040    -1.454706302976     1.007825032230
         H            0.866806267161     1.281857869960     1.312832697024     1.007825032230
         H           -0.876601732839     1.281858869960     1.312833697024     1.007825032230
         H           -1.258128732839    -0.364573130040    -1.454706302976     1.007825032230
         H           -1.190111732839    -1.920195130040    -0.654012302976     1.007825032230
         H            2.755699267161     0.528911869960     0.325375697024     1.007825032230
         H            3.410170267161    -0.984909130040    -0.299990302976     1.007825032230
         H            2.568977267161    -0.963832130040     1.255761697024     1.007825032230
         H            0.878741267161     1.903622869960    -1.134527302976     1.007825032230
         H           -0.004898732839     3.074753869960    -0.154424302976     1.007825032230
         H           -0.888539732839     1.903621869960    -1.134526302976     1.007825032230
         H           -3.419967732839    -0.984909130040    -0.299990302976     1.007825032230
         H           -2.765496732839     0.528911869960     0.325376697024     1.007825032230
         H           -2.578774732839    -0.963834130040     1.255761697024     1.007825032230

  Basis Set: AUG-CC-PVTZ
    Blend: AUG-CC-PVTZ
  Basis Set: (AUG-CC-PVTZ AUX)
    Blend: AUG-CC-PVTZ-JKFIT
	 Reference Energy          =    -274.4899384284987036 [Eh]
	 Singles Energy            =      -0.0000000000000000 [Eh]
	 Same-Spin Energy          =      -0.2967218215178679 [Eh]
	 Opposite-Spin Energy      =      -1.1071882976236538 [Eh]
	 Correlation Energy        =      -1.4039101191415218 [Eh]
	 Total Energy              =    -275.8938485476402320 [Eh]

	 ================> DF-SCS-MP2 Energies <==================
	-----------------------------------------------------------
	 SCS Same-Spin Scale       =       0.3333333333333333 [-]
	 SCS Opposite-Spin Scale   =       1.2000000000000000 [-]
	 SCS Same-Spin Energy      =      -0.0989072738392893 [Eh]
	 SCS Opposite-Spin Energy  =      -1.3286259571483845 [Eh]
	 SCS Correlation Energy    =      -1.4275332309876738 [Eh]
	 SCS Total Energy          =    -275.9174716594863526 [Eh]
	-----------------------------------------------------------

  Dipole Moment: [D]
     X:     0.0124      Y:    -0.0688      Z:     0.0255     Total:     0.0744

*** Psi4 exiting successfully. Buy a developer a beer!
