                               Psi4 1.3.2 release

  ==> Input File <==

--------------------------------------------------------------------------
#psi4
#
memory 32 gb

molecule  {
0 1
  C        0.0000190    -0.4262070     0.3077490
  C        1.1727505    -0.8239929    -0.4164976
  C        0.0000460     1.0638580     0.6808560
  C       -1.2544680    -0.8517020    -0.4669850
  C        2.5736910    -0.5549740     0.2429080
  C       -0.0001100     2.0271580    -0.5052670
  C       -2.5736650    -0.5550660     0.2429470
  H        0.0000220    -0.9878970     1.2560840
  H        1.1855160    -1.9310980    -0.6540960
  H        1.2530210    -0.3759140    -1.4557310
  H        0.8718230     1.2713760     1.3117180
  H       -0.8715850     1.2713570     1.3119230
  H       -1.2530320    -0.3758260    -1.4557010
  H       -1.1854530    -1.9310640    -0.6541770
  H        2.7601620     0.5190550     0.3238500
  H        3.4151550    -0.9947620    -0.3010430
  H        2.5741680    -0.9734350     1.2548350
  H        0.8834690     1.8928260    -1.1356920
  H       -0.0001040     3.0640380    -0.1556120
  H       -0.8838160     1.8927720    -1.1355030
  H       -3.4151150    -0.9948620    -0.3010190
  H       -2.7601920     0.5189470     0.3239600
  H       -2.5741050    -0.9735930     1.2548470
units angstrom
no_reorient  #important for SAPT in psi4, default
symmetry c1  #important for SAPT in psi4, default
}

set PROPERTIES_ORIGIN ["COM"]
properties('MP2/aug-cc-pvtz', properties = ['dipole'])
--------------------------------------------------------------------------

    Molecular point group: c1
  Charge       = 0
  Multiplicity = 1
  Basis Set: AUG-CC-PVTZ
    Blend: AUG-CC-PVTZ
  Basis Set: (AUG-CC-PVTZ AUX)
    Blend: AUG-CC-PVTZ-JKFIT

    Orbital Energies [Eh]
    ---------------------

    Doubly Occupied:

       1A    -11.216991     2A    -11.213616     3A    -11.213111
       4A    -11.212606     5A    -11.211131     6A    -11.209249
       7A    -11.208969     8A     -1.112794     9A     -1.010567
      10A     -1.003046    11A     -0.923025    12A     -0.851421
      13A     -0.817375    14A     -0.734957    15A     -0.649366
      16A     -0.636161    17A     -0.593907    18A     -0.563653
      19A     -0.560685    20A     -0.555419    21A     -0.546369
      22A     -0.516366    23A     -0.500741    24A     -0.495296
      25A     -0.476567    26A     -0.467387    27A     -0.453723
      28A     -0.433973    29A     -0.425842

  @DF-RHF Final Energy:  -274.48043634423908

   => Energetics <=

    Nuclear Repulsion Energy =            334.8865648047054719
    One-Electron Energy =               -1033.1053760872980547
    Two-Electron Energy =                 423.7383749383535019
    Total Energy =                       -274.4804363442390809
  Basis Set: (AUG-CC-PVTZ AUX)
    Blend: AUG-CC-PVTZ-RI
    Molecular point group: c1

    Geometry (in Angstrom), charge = 0, multiplicity = 1:

       Center              X                  Y                   Z               Mass
    ------------   -----------------  -----------------  -----------------  -----------------
         C            0.009815779546    -0.420691790099     0.299604058262    12.000000000000
         C            1.182547279546    -0.818477690099    -0.424642541738    12.000000000000
         C            0.009842779546     1.069373209901     0.672711058262    12.000000000000
         C           -1.244671220454    -0.846186790099    -0.475129941738    12.000000000000
         C            2.583487779546    -0.549458790099     0.234763058262    12.000000000000
         C            0.009686779546     2.032673209901    -0.513411941738    12.000000000000
         C           -2.563868220454    -0.549550790099     0.234802058262    12.000000000000
         H            0.009818779546    -0.982381790099     1.247939058262     1.007825032230
         H            1.195312779546    -1.925582790099    -0.662240941738     1.007825032230
         H            1.262817779546    -0.370398790099    -1.463875941738     1.007825032230
         H            0.881619779546     1.276891209901     1.303573058262     1.007825032230
         H           -0.861788220454     1.276872209901     1.303778058262     1.007825032230
         H           -1.243235220454    -0.370310790099    -1.463845941738     1.007825032230
         H           -1.175656220454    -1.925548790099    -0.662321941738     1.007825032230
         H            2.769958779546     0.524570209901     0.315705058262     1.007825032230
         H            3.424951779546    -0.989246790099    -0.309187941738     1.007825032230
         H            2.583964779546    -0.967919790099     1.246690058262     1.007825032230
         H            0.893265779546     1.898341209901    -1.143836941738     1.007825032230
         H            0.009692779546     3.069553209901    -0.163756941738     1.007825032230
         H           -0.874019220454     1.898287209901    -1.143647941738     1.007825032230
         H           -3.405318220454    -0.989346790099    -0.309163941738     1.007825032230
         H           -2.750395220454     0.524462209901     0.315815058262     1.007825032230
         H           -2.564308220454    -0.968077790099     1.246702058262     1.007825032230

  Basis Set: AUG-CC-PVTZ
    Blend: AUG-CC-PVTZ
  Basis Set: (AUG-CC-PVTZ AUX)
    Blend: AUG-CC-PVTZ-JKFIT
	 Reference Energy          =    -274.4804363442390809 [Eh]
	 Singles Energy            =      -0.0000000000000000 [Eh]
	 Same-Spin Energy          =      -0.2977719506224788 [Eh]
	 Opposite-Spin Energy      =      -1.1085129991803722 [Eh]
	 Correlation Energy        =      -1.4062849498028509 [Eh]
	 Total Energy              =    -275.8867212940419336 [Eh]

	 ================> DF-SCS-MP2 Energies <==================
	-----------------------------------------------------------
	 SCS Same-Spin Scale       =       0.3333333333333333 [-]
	 SCS Opposite-Spin Scale   =       1.2000000000000000 [-]
	 SCS Same-Spin Energy      =      -0.0992573168741596 [Eh]
	 SCS Opposite-Spin Energy  =      -1.3302155990164466 [Eh]
	 SCS Correlation Energy    =      -1.4294729158906061 [Eh]
	 SCS Total Energy          =    -275.9099092601296661 [Eh]
	-----------------------------------------------------------

  Dipole Moment: [D]
     X:    -0.0374      Y:    -0.0508      Z:     0.0450     Total:     0.0775

*** Psi4 exiting successfully. Buy a developer a beer!
