                               Psi4 1.3.2 release

  ==> Input File <==

--------------------------------------------------------------------------
#psi4
#
memory 32 gb

molecule  {
0 1
  C       -0.0168943    -0.4770140     0.3064158
  C        1.2544970    -0.8517210    -0.4669820
  C        0.0000460     1.0638580     0.6808560
  C       -1.2544680    -0.8517020    -0.4669850
  C        2.5736910    -0.5549740     0.2429080
  C       -0.0001100     2.0271580    -0.5052670
  C       -2.5736650    -0.5550660     0.2429470
  H        0.0000220    -0.9878970     1.2560840
  H        1.1855160    -1.9310980    -0.6540960
  H        1.2530210    -0.3759140    -1.4557310
  H        0.8718230     1.2713760     1.3117180
  H       -0.8715850     1.2713570     1.3119230
  H       -1.2530320    -0.3758260    -1.4557010
  H       -1.1854530    -1.9310640    -0.6541770
  H        2.7601620     0.5190550     0.3238500
  H        3.4151550    -0.9947620    -0.3010430
  H        2.5741680    -0.9734350     1.2548350
  H        0.8834690     1.8928260    -1.1356920
  H       -0.0001040     3.0640380    -0.1556120
  H       -0.8838160     1.8927720    -1.1355030
  H       -3.4151150    -0.9948620    -0.3010190
  H       -2.7601920     0.5189470     0.3239600
  H       -2.5741050    -0.9735930     1.2548470
units angstrom
no_reorient  #important for SAPT in psi4, default
symmetry c1  #important for SAPT in psi4, default
}

set PROPERTIES_ORIGIN ["COM"]
properties('MP2/aug-cc-pvtz', properties = ['dipole'])
--------------------------------------------------------------------------

    Molecular point group: c1
  Charge       = 0
  Multiplicity = 1
  Basis Set: AUG-CC-PVTZ
    Blend: AUG-CC-PVTZ
  Basis Set: (AUG-CC-PVTZ AUX)
    Blend: AUG-CC-PVTZ-JKFIT

    Orbital Energies [Eh]
    ---------------------

    Doubly Occupied:

       1A    -11.216461     2A    -11.212525     3A    -11.212394
       4A    -11.211832     5A    -11.209476     6A    -11.209417
       7A    -11.208284     8A     -1.100488     9A     -1.013921
      10A     -1.002039    11A     -0.919831    12A     -0.846671
      13A     -0.818442    14A     -0.738578    15A     -0.645266
      16A     -0.630655    17A     -0.597156    18A     -0.561017
      19A     -0.558291    20A     -0.557160    21A     -0.546863
      22A     -0.515487    23A     -0.500553    24A     -0.495468
      25A     -0.483155    26A     -0.469366    27A     -0.449595
      28A     -0.440310    29A     -0.420552

  @DF-RHF Final Energy:  -274.48939152015674

   => Energetics <=

    Nuclear Repulsion Energy =            333.3896000591176403
    One-Electron Energy =               -1030.1754803805374650
    Two-Electron Energy =                 422.2964888012631377
    Total Energy =                       -274.4893915201567438
  Basis Set: (AUG-CC-PVTZ AUX)
    Blend: AUG-CC-PVTZ-RI
    Molecular point group: c1

    Geometry (in Angstrom), charge = 0, multiplicity = 1:

       Center              X                  Y                   Z               Mass
    ------------   -----------------  -----------------  -----------------  -----------------
         C           -0.014867776054    -0.462086362507     0.304481194889    12.000000000000
         C            1.256523523946    -0.836793362507    -0.468916605111    12.000000000000
         C            0.002072523946     1.078785637493     0.678921394889    12.000000000000
         C           -1.252441476054    -0.836774362507    -0.468919605111    12.000000000000
         C            2.575717523946    -0.540046362507     0.240973394889    12.000000000000
         C            0.001916523946     2.042085637493    -0.507201605111    12.000000000000
         C           -2.571638476054    -0.540138362507     0.241012394889    12.000000000000
         H            0.002048523946    -0.972969362507     1.254149394889     1.007825032230
         H            1.187542523946    -1.916170362507    -0.656030605111     1.007825032230
         H            1.255047523946    -0.360986362507    -1.457665605111     1.007825032230
         H            0.873849523946     1.286303637493     1.309783394889     1.007825032230
         H           -0.869558476054     1.286284637493     1.309988394889     1.007825032230
         H           -1.251005476054    -0.360898362507    -1.457635605111     1.007825032230
         H           -1.183426476054    -1.916136362507    -0.656111605111     1.007825032230
         H            2.762188523946     0.533982637493     0.321915394889     1.007825032230
         H            3.417181523946    -0.979834362507    -0.302977605111     1.007825032230
         H            2.576194523946    -0.958507362507     1.252900394889     1.007825032230
         H            0.885495523946     1.907753637493    -1.137626605111     1.007825032230
         H            0.001922523946     3.078965637493    -0.157546605111     1.007825032230
         H           -0.881789476054     1.907699637493    -1.137437605111     1.007825032230
         H           -3.413088476054    -0.979934362507    -0.302953605111     1.007825032230
         H           -2.758165476054     0.533874637493     0.322025394889     1.007825032230
         H           -2.572078476054    -0.958665362507     1.252912394889     1.007825032230

  Basis Set: AUG-CC-PVTZ
    Blend: AUG-CC-PVTZ
  Basis Set: (AUG-CC-PVTZ AUX)
    Blend: AUG-CC-PVTZ-JKFIT
	 Reference Energy          =    -274.4893915201567438 [Eh]
	 Singles Energy            =      -0.0000000000000000 [Eh]
	 Same-Spin Energy          =      -0.2968107916421858 [Eh]
	 Opposite-Spin Energy      =      -1.1072549777693430 [Eh]
	 Correlation Energy        =      -1.4040657694115288 [Eh]
	 Total Energy              =    -275.8934572895682891 [Eh]

	 ================> DF-SCS-MP2 Energies <==================
	-----------------------------------------------------------
	 SCS Same-Spin Scale       =       0.3333333333333333 [-]
	 SCS Opposite-Spin Scale   =       1.2000000000000000 [-]
	 SCS Same-Spin Energy      =      -0.0989369305473953 [Eh]
	 SCS Opposite-Spin Energy  =      -1.3287059733232116 [Eh]
	 SCS Correlation Energy    =      -1.4276429038706069 [Eh]
	 SCS Total Energy          =    -275.9170344240273494 [Eh]
	-----------------------------------------------------------

  Dipole Moment: [D]
     X:    -0.0067      Y:    -0.0939      Z:     0.0361     Total:     0.1008

*** Psi4 exiting successfully. Buy a developer a beer!
