                               Psi4 1.3.2 release

  ==> Input File <==

--------------------------------------------------------------------------
#psi4
#
memory 32 gb

molecule  {
0 1
  C        0.0000190    -0.4262070     0.3077490
  C        1.2246178    -0.7845282    -0.5448641
  C        0.0000460     1.0638580     0.6808560
  C       -1.2544680    -0.8517020    -0.4669850
  C        2.5736910    -0.5549740     0.2429080
  C       -0.0001100     2.0271580    -0.5052670
  C       -2.5736650    -0.5550660     0.2429470
  H        0.0000220    -0.9878970     1.2560840
  H        1.1855160    -1.9310980    -0.6540960
  H        1.2530210    -0.3759140    -1.4557310
  H        0.8718230     1.2713760     1.3117180
  H       -0.8715850     1.2713570     1.3119230
  H       -1.2530320    -0.3758260    -1.4557010
  H       -1.1854530    -1.9310640    -0.6541770
  H        2.7601620     0.5190550     0.3238500
  H        3.4151550    -0.9947620    -0.3010430
  H        2.5741680    -0.9734350     1.2548350
  H        0.8834690     1.8928260    -1.1356920
  H       -0.0001040     3.0640380    -0.1556120
  H       -0.8838160     1.8927720    -1.1355030
  H       -3.4151150    -0.9948620    -0.3010190
  H       -2.7601920     0.5189470     0.3239600
  H       -2.5741050    -0.9735930     1.2548470
units angstrom
no_reorient  #important for SAPT in psi4, default
symmetry c1  #important for SAPT in psi4, default
}

set PROPERTIES_ORIGIN ["COM"]
properties('MP2/aug-cc-pvtz', properties = ['dipole'])
--------------------------------------------------------------------------

    Molecular point group: c1
  Charge       = 0
  Multiplicity = 1
  Basis Set: AUG-CC-PVTZ
    Blend: AUG-CC-PVTZ
  Basis Set: (AUG-CC-PVTZ AUX)
    Blend: AUG-CC-PVTZ-JKFIT

    Orbital Energies [Eh]
    ---------------------

    Doubly Occupied:

       1A    -11.218136     2A    -11.212051     3A    -11.211759
       4A    -11.211184     5A    -11.210593     6A    -11.209365
       7A    -11.208407     8A     -1.101771     9A     -1.009291
      10A     -1.001382    11A     -0.916672    12A     -0.852913
      13A     -0.820375    14A     -0.739837    15A     -0.646214
      16A     -0.630709    17A     -0.599831    18A     -0.561444
      19A     -0.557456    20A     -0.554110    21A     -0.541227
      22A     -0.516138    23A     -0.511527    24A     -0.496993
      25A     -0.477211    26A     -0.470145    27A     -0.451227
      28A     -0.428444    29A     -0.425849

  @DF-RHF Final Energy:  -274.47846718974347

   => Energetics <=

    Nuclear Repulsion Energy =            333.7201126356746954
    One-Electron Energy =               -1030.8126399473696893
    Two-Electron Energy =                 422.6140601219515247
    Total Energy =                       -274.4784671897434691
  Basis Set: (AUG-CC-PVTZ AUX)
    Blend: AUG-CC-PVTZ-RI
    Molecular point group: c1

    Geometry (in Angstrom), charge = 0, multiplicity = 1:

       Center              X                  Y                   Z               Mass
    ------------   -----------------  -----------------  -----------------  -----------------
         C            0.003599486377    -0.425421632312     0.314988776516    12.000000000000
         C            1.228198286377    -0.783742832312    -0.537624323484    12.000000000000
         C            0.003626486377     1.064643367688     0.688095776516    12.000000000000
         C           -1.250887513623    -0.850916632312    -0.459745223484    12.000000000000
         C            2.577271486377    -0.554188632312     0.250147776516    12.000000000000
         C            0.003470486377     2.027943367688    -0.498027223484    12.000000000000
         C           -2.570084513623    -0.554280632312     0.250186776516    12.000000000000
         H            0.003602486377    -0.987111632312     1.263323776516     1.007825032230
         H            1.189096486377    -1.930312632312    -0.646856223484     1.007825032230
         H            1.256601486377    -0.375128632312    -1.448491223484     1.007825032230
         H            0.875403486377     1.272161367688     1.318957776516     1.007825032230
         H           -0.868004513623     1.272142367688     1.319162776516     1.007825032230
         H           -1.249451513623    -0.375040632312    -1.448461223484     1.007825032230
         H           -1.181872513623    -1.930278632312    -0.646937223484     1.007825032230
         H            2.763742486377     0.519840367688     0.331089776516     1.007825032230
         H            3.418735486377    -0.993976632312    -0.293803223484     1.007825032230
         H            2.577748486377    -0.972649632312     1.262074776516     1.007825032230
         H            0.887049486377     1.893611367688    -1.128452223484     1.007825032230
         H            0.003476486377     3.064823367688    -0.148372223484     1.007825032230
         H           -0.880235513623     1.893557367688    -1.128263223484     1.007825032230
         H           -3.411534513623    -0.994076632312    -0.293779223484     1.007825032230
         H           -2.756611513623     0.519732367688     0.331199776516     1.007825032230
         H           -2.570524513623    -0.972807632312     1.262086776516     1.007825032230

  Basis Set: AUG-CC-PVTZ
    Blend: AUG-CC-PVTZ
  Basis Set: (AUG-CC-PVTZ AUX)
    Blend: AUG-CC-PVTZ-JKFIT
	 Reference Energy          =    -274.4784671897434691 [Eh]
	 Singles Energy            =      -0.0000000000000000 [Eh]
	 Same-Spin Energy          =      -0.2968537347853953 [Eh]
	 Opposite-Spin Energy      =      -1.1078130287338457 [Eh]
	 Correlation Energy        =      -1.4046667635192409 [Eh]
	 Total Energy              =    -275.8831339532626998 [Eh]

	 ================> DF-SCS-MP2 Energies <==================
	-----------------------------------------------------------
	 SCS Same-Spin Scale       =       0.3333333333333333 [-]
	 SCS Opposite-Spin Scale   =       1.2000000000000000 [-]
	 SCS Same-Spin Energy      =      -0.0989512449284651 [Eh]
	 SCS Opposite-Spin Energy  =      -1.3293756344806147 [Eh]
	 SCS Correlation Energy    =      -1.4283268794090798 [Eh]
	 SCS Total Energy          =    -275.9067940691525678 [Eh]
	-----------------------------------------------------------

  Dipole Moment: [D]
     X:    -0.0157      Y:    -0.0266      Z:     0.0060     Total:     0.0315

*** Psi4 exiting successfully. Buy a developer a beer!
