                               Psi4 1.3.2 release

  ==> Input File <==

--------------------------------------------------------------------------
#psi4
#
memory 32 gb

molecule  {
0 1
  C        0.0000190    -0.4262070     0.3077490
  C        1.2671527    -0.8845601    -0.4266011
  C        0.0000460     1.0638580     0.6808560
  C       -1.2544680    -0.8517020    -0.4669850
  C        2.5736910    -0.5549740     0.2429080
  C       -0.0001100     2.0271580    -0.5052670
  C       -2.5736650    -0.5550660     0.2429470
  H        0.0000220    -0.9878970     1.2560840
  H        1.1855160    -1.9310980    -0.6540960
  H        1.2530210    -0.3759140    -1.4557310
  H        0.8718230     1.2713760     1.3117180
  H       -0.8715850     1.2713570     1.3119230
  H       -1.2530320    -0.3758260    -1.4557010
  H       -1.1854530    -1.9310640    -0.6541770
  H        2.7601620     0.5190550     0.3238500
  H        3.4151550    -0.9947620    -0.3010430
  H        2.5741680    -0.9734350     1.2548350
  H        0.8834690     1.8928260    -1.1356920
  H       -0.0001040     3.0640380    -0.1556120
  H       -0.8838160     1.8927720    -1.1355030
  H       -3.4151150    -0.9948620    -0.3010190
  H       -2.7601920     0.5189470     0.3239600
  H       -2.5741050    -0.9735930     1.2548470
units angstrom
no_reorient  #important for SAPT in psi4, default
symmetry c1  #important for SAPT in psi4, default
}

set PROPERTIES_ORIGIN ["COM"]
properties('MP2/aug-cc-pvtz', properties = ['dipole'])
--------------------------------------------------------------------------

    Molecular point group: c1
  Charge       = 0
  Multiplicity = 1
  Basis Set: AUG-CC-PVTZ
    Blend: AUG-CC-PVTZ
  Basis Set: (AUG-CC-PVTZ AUX)
    Blend: AUG-CC-PVTZ-JKFIT

    Orbital Energies [Eh]
    ---------------------

    Doubly Occupied:

       1A    -11.217478     2A    -11.214086     3A    -11.213084
       4A    -11.212320     5A    -11.209239     6A    -11.208655
       7A    -11.208403     8A     -1.102045     9A     -1.015866
      10A     -1.004723    11A     -0.919921    12A     -0.849760
      13A     -0.815983    14A     -0.733543    15A     -0.647105
      16A     -0.634941    17A     -0.593277    18A     -0.562295
      19A     -0.559028    20A     -0.557990    21A     -0.548441
      22A     -0.518261    23A     -0.499692    24A     -0.493852
      25A     -0.487266    26A     -0.466229    27A     -0.440253
      28A     -0.436763    29A     -0.430395

  @DF-RHF Final Energy:  -274.48856564750440

   => Energetics <=

    Nuclear Repulsion Energy =            333.6302876146141330
    One-Electron Energy =               -1030.6359165970338836
    Two-Electron Energy =                 422.5170633349152922
    Total Energy =                       -274.4885656475044016
  Basis Set: (AUG-CC-PVTZ AUX)
    Blend: AUG-CC-PVTZ-RI
    Molecular point group: c1

    Geometry (in Angstrom), charge = 0, multiplicity = 1:

       Center              X                  Y                   Z               Mass
    ------------   -----------------  -----------------  -----------------  -----------------
         C           -0.001498319144    -0.413432814374     0.300814962204    12.000000000000
         C            1.265635380856    -0.871785914374    -0.433535137796    12.000000000000
         C           -0.001471319144     1.076632185626     0.673921962204    12.000000000000
         C           -1.255985319144    -0.838927814374    -0.473919037796    12.000000000000
         C            2.572173680856    -0.542199814374     0.235973962204    12.000000000000
         C           -0.001627319144     2.039932185626    -0.512201037796    12.000000000000
         C           -2.575182319144    -0.542291814374     0.236012962204    12.000000000000
         H           -0.001495319144    -0.975122814374     1.249149962204     1.007825032230
         H            1.183998680856    -1.918323814374    -0.661030037796     1.007825032230
         H            1.251503680856    -0.363139814374    -1.462665037796     1.007825032230
         H            0.870305680856     1.284150185626     1.304783962204     1.007825032230
         H           -0.873102319144     1.284131185626     1.304988962204     1.007825032230
         H           -1.254549319144    -0.363051814374    -1.462635037796     1.007825032230
         H           -1.186970319144    -1.918289814374    -0.661111037796     1.007825032230
         H            2.758644680856     0.531829185626     0.316915962204     1.007825032230
         H            3.413637680856    -0.981987814374    -0.307977037796     1.007825032230
         H            2.572650680856    -0.960660814374     1.247900962204     1.007825032230
         H            0.881951680856     1.905600185626    -1.142626037796     1.007825032230
         H           -0.001621319144     3.076812185626    -0.162546037796     1.007825032230
         H           -0.885333319144     1.905546185626    -1.142437037796     1.007825032230
         H           -3.416632319144    -0.982087814374    -0.307953037796     1.007825032230
         H           -2.761709319144     0.531721185626     0.317025962204     1.007825032230
         H           -2.575622319144    -0.960818814374     1.247912962204     1.007825032230

  Basis Set: AUG-CC-PVTZ
    Blend: AUG-CC-PVTZ
  Basis Set: (AUG-CC-PVTZ AUX)
    Blend: AUG-CC-PVTZ-JKFIT
	 Reference Energy          =    -274.4885656475044016 [Eh]
	 Singles Energy            =      -0.0000000000000000 [Eh]
	 Same-Spin Energy          =      -0.2970229206600508 [Eh]
	 Opposite-Spin Energy      =      -1.1074858200928253 [Eh]
	 Correlation Energy        =      -1.4045087407528760 [Eh]
	 Total Energy              =    -275.8930743882572756 [Eh]

	 ================> DF-SCS-MP2 Energies <==================
	-----------------------------------------------------------
	 SCS Same-Spin Scale       =       0.3333333333333333 [-]
	 SCS Opposite-Spin Scale   =       1.2000000000000000 [-]
	 SCS Same-Spin Energy      =      -0.0990076402200169 [Eh]
	 SCS Opposite-Spin Energy  =      -1.3289829841113903 [Eh]
	 SCS Correlation Energy    =      -1.4279906243314071 [Eh]
	 SCS Total Energy          =    -275.9165562718358160 [Eh]
	-----------------------------------------------------------

  Dipole Moment: [D]
     X:     0.0054      Y:    -0.0838      Z:     0.0553     Total:     0.1005

*** Psi4 exiting successfully. Buy a developer a beer!
