                               Psi4 1.4a3.dev225

  ==> Input File <==

--------------------------------------------------------------------------
#psi4
#
memory 32 gb

molecule  {
0 1
  C        0.0000000    -0.4260750     0.3076100
  C        1.2544720    -0.8514380    -0.4671590
  C        0.0000000     1.0639900     0.6808960
  C       -1.2544720    -0.8514380    -0.4671590
  C        2.5736720    -0.5554960     0.2430540
  C        0.0000000     2.0274100    -0.5051140
  C       -2.5736720    -0.5554960     0.2430540
  H        0.0000000    -0.9623844     1.2128497
  H        1.1852130    -1.9306880    -0.6549460
  H        1.2532300    -0.3750670    -1.4556400
  H        0.8717050     1.2713650     1.3118990
  H       -0.8717030     1.2713660     1.3119000
  H       -1.2532300    -0.3750660    -1.4556400
  H       -1.1852130    -1.9306880    -0.6549460
  H        2.7605980     0.5184190     0.3244420
  H        3.4150690    -0.9954020    -0.3009240
  H        2.5738760    -0.9743250     1.2548280
  H        0.8836400     1.8931300    -1.1354610
  H        0.0000000     3.0642610    -0.1553580
  H       -0.8836410     1.8931290    -1.1354600
  H       -3.4150690    -0.9954020    -0.3009240
  H       -2.7605980     0.5184190     0.3244430
  H       -2.5738760    -0.9743270     1.2548280
units angstrom
no_reorient  #important for SAPT in psi4, default
symmetry c1  #important for SAPT in psi4, default
}

set PROPERTIES_ORIGIN ["COM"]
properties('MP2/aug-cc-pvtz', properties = ['dipole'])
--------------------------------------------------------------------------

    Molecular point group: c1
  Charge       = 0
  Multiplicity = 1
  Basis Set: AUG-CC-PVTZ
    Blend: AUG-CC-PVTZ
  Basis Set: (AUG-CC-PVTZ AUX)
    Blend: AUG-CC-PVTZ-JKFIT

    Orbital Energies [Eh]
    ---------------------

    Doubly Occupied:

       1A    -11.212182     2A    -11.212070     3A    -11.211448
       4A    -11.210427     5A    -11.208918     6A    -11.208916
       7A    -11.208289     8A     -1.102884     9A     -1.012744
      10A     -1.003679    11A     -0.920447    12A     -0.850313
      13A     -0.816376    14A     -0.740123    15A     -0.648078
      16A     -0.633093    17A     -0.594608    18A     -0.561642
      19A     -0.558603    20A     -0.557478    21A     -0.546526
      22A     -0.516443    23A     -0.500512    24A     -0.495709
      25A     -0.483220    26A     -0.469868    27A     -0.446076
      28A     -0.433790    29A     -0.433413

  @DF-RHF Final Energy:  -274.49098857906904

   => Energetics <=

    Nuclear Repulsion Energy =            333.9139018641944858
    One-Electron Energy =               -1031.2140285215368749
    Two-Electron Energy =                 422.8091380782733495
    Total Energy =                       -274.4909885790690396
  Basis Set: (AUG-CC-PVTZ AUX)
    Blend: AUG-CC-PVTZ-RI
    Molecular point group: c1

    Geometry (in Angstrom), charge = 0, multiplicity = 1:

       Center              X                  Y                   Z               Mass
    ------------   -----------------  -----------------  -----------------  -----------------
         C           -0.000000010066    -0.417499707480     0.305951213943    12.000000000000
         C            1.254471989934    -0.842862707480    -0.468817786057    12.000000000000
         C           -0.000000010066     1.072565292520     0.679237213943    12.000000000000
         C           -1.254472010066    -0.842862707480    -0.468817786057    12.000000000000
         C            2.573671989934    -0.546920707480     0.241395213943    12.000000000000
         C           -0.000000010066     2.035985292520    -0.506772786057    12.000000000000
         C           -2.573672010066    -0.546920707480     0.241395213943    12.000000000000
         H           -0.000000010066    -0.953809107480     1.211190913943     1.007825032230
         H            1.185212989934    -1.922112707480    -0.656604786057     1.007825032230
         H            1.253229989934    -0.366491707480    -1.457298786057     1.007825032230
         H            0.871704989934     1.279940292520     1.310240213943     1.007825032230
         H           -0.871703010066     1.279941292520     1.310241213943     1.007825032230
         H           -1.253230010066    -0.366490707480    -1.457298786057     1.007825032230
         H           -1.185213010066    -1.922112707480    -0.656604786057     1.007825032230
         H            2.760597989934     0.526994292520     0.322783213943     1.007825032230
         H            3.415068989934    -0.986826707480    -0.302582786057     1.007825032230
         H            2.573875989934    -0.965749707480     1.253169213943     1.007825032230
         H            0.883639989934     1.901705292520    -1.137119786057     1.007825032230
         H           -0.000000010066     3.072836292520    -0.157016786057     1.007825032230
         H           -0.883641010066     1.901704292520    -1.137118786057     1.007825032230
         H           -3.415069010066    -0.986826707480    -0.302582786057     1.007825032230
         H           -2.760598010066     0.526994292520     0.322784213943     1.007825032230
         H           -2.573876010066    -0.965751707480     1.253169213943     1.007825032230

  Basis Set: AUG-CC-PVTZ
    Blend: AUG-CC-PVTZ
  Basis Set: (AUG-CC-PVTZ AUX)
    Blend: AUG-CC-PVTZ-JKFIT
	 Reference Energy          =    -274.4909885790690396 [Eh]
	 Singles Energy            =      -0.0000000000000000 [Eh]
	 Same-Spin Energy          =      -0.2968012441942204 [Eh]
	 Opposite-Spin Energy      =      -1.1069070479353502 [Eh]
	 Correlation Energy        =      -1.4037082921295707 [Eh]
	 Total Energy              =    -275.8946968711986187 [Eh]

	 ================> DF-SCS-MP2 Energies <==================
	-----------------------------------------------------------
	 SCS Same-Spin Scale       =       0.3333333333333333 [-]
	 SCS Opposite-Spin Scale   =       1.2000000000000000 [-]
	 SCS Same-Spin Energy      =      -0.0989337480647401 [Eh]
	 SCS Opposite-Spin Energy  =      -1.3282884575224203 [Eh]
	 SCS Correlation Energy    =      -1.4272222055871604 [Eh]
	 SCS Total Energy          =    -275.9182107846561962 [Eh]
	-----------------------------------------------------------

  Dipole Moment: [D]
     X:     0.0000      Y:    -0.0889      Z:     0.0625     Total:     0.1087

*** Psi4 exiting successfully. Buy a developer a beer!
