                               Psi4 1.3.2 release

  ==> Input File <==

--------------------------------------------------------------------------
#psi4
#
memory 32 gb

molecule  {
0 1
  C       -0.0086300    -0.4515495     0.3072003
  C        1.2544970    -0.8517210    -0.4669820
  C        0.0000460     1.0638580     0.6808560
  C       -1.2544680    -0.8517020    -0.4669850
  C        2.5736910    -0.5549740     0.2429080
  C       -0.0001100     2.0271580    -0.5052670
  C       -2.5736650    -0.5550660     0.2429470
  H        0.0000220    -0.9878970     1.2560840
  H        1.1855160    -1.9310980    -0.6540960
  H        1.2530210    -0.3759140    -1.4557310
  H        0.8718230     1.2713760     1.3117180
  H       -0.8715850     1.2713570     1.3119230
  H       -1.2530320    -0.3758260    -1.4557010
  H       -1.1854530    -1.9310640    -0.6541770
  H        2.7601620     0.5190550     0.3238500
  H        3.4151550    -0.9947620    -0.3010430
  H        2.5741680    -0.9734350     1.2548350
  H        0.8834690     1.8928260    -1.1356920
  H       -0.0001040     3.0640380    -0.1556120
  H       -0.8838160     1.8927720    -1.1355030
  H       -3.4151150    -0.9948620    -0.3010190
  H       -2.7601920     0.5189470     0.3239600
  H       -2.5741050    -0.9735930     1.2548470
units angstrom
no_reorient  #important for SAPT in psi4, default
symmetry c1  #important for SAPT in psi4, default
}

set PROPERTIES_ORIGIN ["COM"]
properties('MP2/aug-cc-pvtz', properties = ['dipole'])
--------------------------------------------------------------------------

    Molecular point group: c1
  Charge       = 0
  Multiplicity = 1
  Basis Set: AUG-CC-PVTZ
    Blend: AUG-CC-PVTZ
  Basis Set: (AUG-CC-PVTZ AUX)
    Blend: AUG-CC-PVTZ-JKFIT

    Orbital Energies [Eh]
    ---------------------

    Doubly Occupied:

       1A    -11.216757     2A    -11.212500     3A    -11.212191
       4A    -11.212139     5A    -11.209194     6A    -11.209167
       7A    -11.208492     8A     -1.100930     9A     -1.013408
      10A     -1.003016    11A     -0.919248    12A     -0.848492
      13A     -0.817522    14A     -0.736682    15A     -0.646126
      16A     -0.632020    17A     -0.595894    18A     -0.560301
      19A     -0.558463    20A     -0.557492    21A     -0.546401
      22A     -0.516046    23A     -0.500513    24A     -0.495636
      25A     -0.483272    26A     -0.469742    27A     -0.445404
      28A     -0.437686    29A     -0.427737

  @DF-RHF Final Energy:  -274.49126529698566

   => Energetics <=

    Nuclear Repulsion Energy =            333.5223673997045353
    One-Electron Energy =               -1030.4423265065724991
    Two-Electron Energy =                 422.4286938098823043
    Total Energy =                       -274.4912652969856595
  Basis Set: (AUG-CC-PVTZ AUX)
    Blend: AUG-CC-PVTZ-RI
    Molecular point group: c1

    Geometry (in Angstrom), charge = 0, multiplicity = 1:

       Center              X                  Y                   Z               Mass
    ------------   -----------------  -----------------  -----------------  -----------------
         C           -0.007593951973    -0.439673781488     0.305171672605    12.000000000000
         C            1.255533048027    -0.839845281488    -0.469010627395    12.000000000000
         C            0.001082048027     1.075733718512     0.678827372605    12.000000000000
         C           -1.253431951973    -0.839826281488    -0.469013627395    12.000000000000
         C            2.574727048027    -0.543098281488     0.240879372605    12.000000000000
         C            0.000926048027     2.039033718512    -0.507295627395    12.000000000000
         C           -2.572628951973    -0.543190281488     0.240918372605    12.000000000000
         H            0.001058048027    -0.976021281488     1.254055372605     1.007825032230
         H            1.186552048027    -1.919222281488    -0.656124627395     1.007825032230
         H            1.254057048027    -0.364038281488    -1.457759627395     1.007825032230
         H            0.872859048027     1.283251718512     1.309689372605     1.007825032230
         H           -0.870548951973     1.283232718512     1.309894372605     1.007825032230
         H           -1.251995951973    -0.363950281488    -1.457729627395     1.007825032230
         H           -1.184416951973    -1.919188281488    -0.656205627395     1.007825032230
         H            2.761198048027     0.530930718512     0.321821372605     1.007825032230
         H            3.416191048027    -0.982886281488    -0.303071627395     1.007825032230
         H            2.575204048027    -0.961559281488     1.252806372605     1.007825032230
         H            0.884505048027     1.904701718512    -1.137720627395     1.007825032230
         H            0.000932048027     3.075913718512    -0.157640627395     1.007825032230
         H           -0.882779951973     1.904647718512    -1.137531627395     1.007825032230
         H           -3.414078951973    -0.982986281488    -0.303047627395     1.007825032230
         H           -2.759155951973     0.530822718512     0.321931372605     1.007825032230
         H           -2.573068951973    -0.961717281488     1.252818372605     1.007825032230

  Basis Set: AUG-CC-PVTZ
    Blend: AUG-CC-PVTZ
  Basis Set: (AUG-CC-PVTZ AUX)
    Blend: AUG-CC-PVTZ-JKFIT
	 Reference Energy          =    -274.4912652969856595 [Eh]
	 Singles Energy            =      -0.0000000000000000 [Eh]
	 Same-Spin Energy          =      -0.2967974974217926 [Eh]
	 Opposite-Spin Energy      =      -1.1071926069292111 [Eh]
	 Correlation Energy        =      -1.4039901043510037 [Eh]
	 Total Energy              =    -275.8952554013366694 [Eh]

	 ================> DF-SCS-MP2 Energies <==================
	-----------------------------------------------------------
	 SCS Same-Spin Scale       =       0.3333333333333333 [-]
	 SCS Opposite-Spin Scale   =       1.2000000000000000 [-]
	 SCS Same-Spin Energy      =      -0.0989324991405975 [Eh]
	 SCS Opposite-Spin Energy  =      -1.3286311283150531 [Eh]
	 SCS Correlation Energy    =      -1.4275636274556507 [Eh]
	 SCS Total Energy          =    -275.9188289244412999 [Eh]
	-----------------------------------------------------------

  Dipole Moment: [D]
     X:    -0.0034      Y:    -0.0801      Z:     0.0323     Total:     0.0864

*** Psi4 exiting successfully. Buy a developer a beer!
