                               Psi4 1.3.2 release

  ==> Input File <==

--------------------------------------------------------------------------
#psi4
#
memory 32 gb

molecule  {
0 1
  C        0.0000190    -0.4262070     0.3077490
  C        1.2544970    -0.8517210    -0.4669820
  C        0.0000460     1.0638580     0.6808560
  C       -1.2544680    -0.8517020    -0.4669850
  C        2.5736910    -0.5549740     0.2429080
  C       -0.0001100     2.0271580    -0.5052670
  C       -2.5736650    -0.5550660     0.2429470
  H        0.0000220    -0.9878970     1.2560840
  H        1.1880982    -1.9449157    -0.5400665
  H        1.2530210    -0.3759140    -1.4557310
  H        0.8718230     1.2713760     1.3117180
  H       -0.8715850     1.2713570     1.3119230
  H       -1.2530320    -0.3758260    -1.4557010
  H       -1.1854530    -1.9310640    -0.6541770
  H        2.7601620     0.5190550     0.3238500
  H        3.4151550    -0.9947620    -0.3010430
  H        2.5741680    -0.9734350     1.2548350
  H        0.8834690     1.8928260    -1.1356920
  H       -0.0001040     3.0640380    -0.1556120
  H       -0.8838160     1.8927720    -1.1355030
  H       -3.4151150    -0.9948620    -0.3010190
  H       -2.7601920     0.5189470     0.3239600
  H       -2.5741050    -0.9735930     1.2548470
units angstrom
no_reorient  #important for SAPT in psi4, default
symmetry c1  #important for SAPT in psi4, default
}

set PROPERTIES_ORIGIN ["COM"]
properties('MP2/aug-cc-pvtz', properties = ['dipole'])
--------------------------------------------------------------------------

    Molecular point group: c1
  Charge       = 0
  Multiplicity = 1
  Basis Set: AUG-CC-PVTZ
    Blend: AUG-CC-PVTZ
  Basis Set: (AUG-CC-PVTZ AUX)
    Blend: AUG-CC-PVTZ-JKFIT

    Orbital Energies [Eh]
    ---------------------

    Doubly Occupied:

       1A    -11.216775     2A    -11.212880     3A    -11.212573
       4A    -11.211343     5A    -11.208981     6A    -11.208896
       7A    -11.208399     8A     -1.101979     9A     -1.013355
      10A     -1.004161    11A     -0.918789    12A     -0.849830
      13A     -0.815988    14A     -0.733194    15A     -0.649803
      16A     -0.632759    17A     -0.596704    18A     -0.561675
      19A     -0.557797    20A     -0.557288    21A     -0.545810
      22A     -0.515883    23A     -0.501865    24A     -0.495046
      25A     -0.481406    26A     -0.472646    27A     -0.443492
      28A     -0.434335    29A     -0.430430

  @DF-RHF Final Energy:  -274.49043638809462

   => Energetics <=

    Nuclear Repulsion Energy =            333.7217808822944107
    One-Electron Energy =               -1030.8362750500164111
    Two-Electron Energy =                 422.6240577796273783
    Total Energy =                       -274.4904363880946221
  Basis Set: (AUG-CC-PVTZ AUX)
    Blend: AUG-CC-PVTZ-RI
    Molecular point group: c1

    Geometry (in Angstrom), charge = 0, multiplicity = 1:

       Center              X                  Y                   Z               Mass
    ------------   -----------------  -----------------  -----------------  -----------------
         C           -0.000007525683    -0.417229494671     0.304506830122    12.000000000000
         C            1.254470474317    -0.842743494671    -0.470224169878    12.000000000000
         C            0.000019474317     1.072835505329     0.677613830122    12.000000000000
         C           -1.254494525683    -0.842724494671    -0.470227169878    12.000000000000
         C            2.573664474317    -0.545996494671     0.239665830122    12.000000000000
         C           -0.000136525683     2.036135505329    -0.508509169878    12.000000000000
         C           -2.573691525683    -0.546088494671     0.239704830122    12.000000000000
         H           -0.000004525683    -0.978919494671     1.252841830122     1.007825032230
         H            1.188071674317    -1.935938194671    -0.543308669878     1.007825032230
         H            1.252994474317    -0.366936494671    -1.458973169878     1.007825032230
         H            0.871796474317     1.280353505329     1.308475830122     1.007825032230
         H           -0.871611525683     1.280334505329     1.308680830122     1.007825032230
         H           -1.253058525683    -0.366848494671    -1.458943169878     1.007825032230
         H           -1.185479525683    -1.922086494671    -0.657419169878     1.007825032230
         H            2.760135474317     0.528032505329     0.320607830122     1.007825032230
         H            3.415128474317    -0.985784494671    -0.304285169878     1.007825032230
         H            2.574141474317    -0.964457494671     1.251592830122     1.007825032230
         H            0.883442474317     1.901803505329    -1.138934169878     1.007825032230
         H           -0.000130525683     3.073015505329    -0.158854169878     1.007825032230
         H           -0.883842525683     1.901749505329    -1.138745169878     1.007825032230
         H           -3.415141525683    -0.985884494671    -0.304261169878     1.007825032230
         H           -2.760218525683     0.527924505329     0.320717830122     1.007825032230
         H           -2.574131525683    -0.964615494671     1.251604830122     1.007825032230

  Basis Set: AUG-CC-PVTZ
    Blend: AUG-CC-PVTZ
  Basis Set: (AUG-CC-PVTZ AUX)
    Blend: AUG-CC-PVTZ-JKFIT
	 Reference Energy          =    -274.4904363880946221 [Eh]
	 Singles Energy            =      -0.0000000000000000 [Eh]
	 Same-Spin Energy          =      -0.2969060174646949 [Eh]
	 Opposite-Spin Energy      =      -1.1074225267520248 [Eh]
	 Correlation Energy        =      -1.4043285442167197 [Eh]
	 Total Energy              =    -275.8947649323113183 [Eh]

	 ================> DF-SCS-MP2 Energies <==================
	-----------------------------------------------------------
	 SCS Same-Spin Scale       =       0.3333333333333333 [-]
	 SCS Opposite-Spin Scale   =       1.2000000000000000 [-]
	 SCS Same-Spin Energy      =      -0.0989686724882316 [Eh]
	 SCS Opposite-Spin Energy  =      -1.3289070321024297 [Eh]
	 SCS Correlation Energy    =      -1.4278757045906614 [Eh]
	 SCS Total Energy          =    -275.9183120926852553 [Eh]
	-----------------------------------------------------------

  Dipole Moment: [D]
     X:    -0.0047      Y:    -0.0659      Z:     0.0514     Total:     0.0837

*** Psi4 exiting successfully. Buy a developer a beer!
