                               Psi4 1.4a3.dev225

  ==> Input File <==

--------------------------------------------------------------------------
#psi4
#
memory 32 gb

molecule  {
0 1
  C        0.0000000    -0.4260750     0.3076100
  C        1.2544720    -0.8514380    -0.4671590
  C        0.0000000     1.0639900     0.6808960
  C       -1.2544720    -0.8514380    -0.4671590
  C        2.6168628    -0.5458068     0.2663065
  C        0.0000000     2.0274100    -0.5051140
  C       -2.5736720    -0.5554960     0.2430540
  H        0.0000000    -0.9878700     1.2558670
  H        1.1852130    -1.9306880    -0.6549460
  H        1.2532300    -0.3750670    -1.4556400
  H        0.8717050     1.2713650     1.3118990
  H       -0.8717030     1.2713660     1.3119000
  H       -1.2532300    -0.3750660    -1.4556400
  H       -1.1852130    -1.9306880    -0.6549460
  H        2.7605980     0.5184190     0.3244420
  H        3.4150690    -0.9954020    -0.3009240
  H        2.5738760    -0.9743250     1.2548280
  H        0.8836400     1.8931300    -1.1354610
  H        0.0000000     3.0642610    -0.1553580
  H       -0.8836410     1.8931290    -1.1354600
  H       -3.4150690    -0.9954020    -0.3009240
  H       -2.7605980     0.5184190     0.3244430
  H       -2.5738760    -0.9743270     1.2548280
units angstrom
no_reorient  #important for SAPT in psi4, default
symmetry c1  #important for SAPT in psi4, default
}

set PROPERTIES_ORIGIN ["COM"]
properties('MP2/aug-cc-pvtz', properties = ['dipole'])
--------------------------------------------------------------------------

    Molecular point group: c1
  Charge       = 0
  Multiplicity = 1
  Basis Set: AUG-CC-PVTZ
    Blend: AUG-CC-PVTZ
  Basis Set: (AUG-CC-PVTZ AUX)
    Blend: AUG-CC-PVTZ-JKFIT

    Orbital Energies [Eh]
    ---------------------

    Doubly Occupied:

       1A    -11.217162     2A    -11.214528     3A    -11.212514
       4A    -11.211847     5A    -11.208899     6A    -11.208695
       7A    -11.206831     8A     -1.099775     9A     -1.009438
      10A     -1.001979    11A     -0.919532    12A     -0.850759
      13A     -0.818395    14A     -0.734169    15A     -0.646249
      16A     -0.633090    17A     -0.594898    18A     -0.563217
      19A     -0.558452    20A     -0.555401    21A     -0.545843
      22A     -0.516290    23A     -0.502870    24A     -0.497307
      25A     -0.480638    26A     -0.471063    27A     -0.442281
      28A     -0.435309    29A     -0.430586

  @DF-RHF Final Energy:  -274.49009091528018

   => Energetics <=

    Nuclear Repulsion Energy =            332.9630768163911512
    One-Electron Energy =               -1029.3303072941389473
    Two-Electron Energy =                 421.8771395624676757
    Total Energy =                       -274.4900909152801773
  Basis Set: (AUG-CC-PVTZ AUX)
    Blend: AUG-CC-PVTZ-RI
    Molecular point group: c1

    Geometry (in Angstrom), charge = 0, multiplicity = 1:

       Center              X                  Y                   Z               Mass
    ------------   -----------------  -----------------  -----------------  -----------------
         C           -0.005176425167    -0.418404428508     0.302731406042    12.000000000000
         C            1.249295574833    -0.843767428508    -0.472037593958    12.000000000000
         C           -0.005176425167     1.071660571492     0.676017406042    12.000000000000
         C           -1.259648425167    -0.843767428508    -0.472037593958    12.000000000000
         C            2.611686374833    -0.538136228508     0.261427906042    12.000000000000
         C           -0.005176425167     2.035080571492    -0.509992593958    12.000000000000
         C           -2.578848425167    -0.547825428508     0.238175406042    12.000000000000
         H           -0.005176425167    -0.980199428508     1.250988406042     1.007825032230
         H            1.180036574833    -1.923017428508    -0.659824593958     1.007825032230
         H            1.248053574833    -0.367396428508    -1.460518593958     1.007825032230
         H            0.866528574833     1.279035571492     1.307020406042     1.007825032230
         H           -0.876879425167     1.279036571492     1.307021406042     1.007825032230
         H           -1.258406425167    -0.367395428508    -1.460518593958     1.007825032230
         H           -1.190389425167    -1.923017428508    -0.659824593958     1.007825032230
         H            2.755421574833     0.526089571492     0.319563406042     1.007825032230
         H            3.409892574833    -0.987731428508    -0.305802593958     1.007825032230
         H            2.568699574833    -0.966654428508     1.249949406042     1.007825032230
         H            0.878463574833     1.900800571492    -1.140339593958     1.007825032230
         H           -0.005176425167     3.071931571492    -0.160236593958     1.007825032230
         H           -0.888817425167     1.900799571492    -1.140338593958     1.007825032230
         H           -3.420245425167    -0.987731428508    -0.305802593958     1.007825032230
         H           -2.765774425167     0.526089571492     0.319564406042     1.007825032230
         H           -2.579052425167    -0.966656428508     1.249949406042     1.007825032230

  Basis Set: AUG-CC-PVTZ
    Blend: AUG-CC-PVTZ
  Basis Set: (AUG-CC-PVTZ AUX)
    Blend: AUG-CC-PVTZ-JKFIT
	 Reference Energy          =    -274.4900909152801773 [Eh]
	 Singles Energy            =      -0.0000000000000000 [Eh]
	 Same-Spin Energy          =      -0.2966123426658058 [Eh]
	 Opposite-Spin Energy      =      -1.1071538945848058 [Eh]
	 Correlation Energy        =      -1.4037662372506117 [Eh]
	 Total Energy              =    -275.8938571525308134 [Eh]

	 ================> DF-SCS-MP2 Energies <==================
	-----------------------------------------------------------
	 SCS Same-Spin Scale       =       0.3333333333333333 [-]
	 SCS Opposite-Spin Scale   =       1.2000000000000000 [-]
	 SCS Same-Spin Energy      =      -0.0988707808886019 [Eh]
	 SCS Opposite-Spin Energy  =      -1.3285846735017670 [Eh]
	 SCS Correlation Energy    =      -1.4274554543903690 [Eh]
	 SCS Total Energy          =    -275.9175463696705606 [Eh]
	-----------------------------------------------------------

  Dipole Moment: [D]
     X:    -0.0103      Y:    -0.0676      Z:     0.0279     Total:     0.0739

*** Psi4 exiting successfully. Buy a developer a beer!
