                               Psi4 1.3.2 release

  ==> Input File <==

--------------------------------------------------------------------------
#psi4
#
memory 32 gb

molecule  {
0 1
  C        0.0000190    -0.4262070     0.3077490
  C        1.2544970    -0.8517210    -0.4669820
  C        0.0000460     1.0638580     0.6808560
  C       -1.2544680    -0.8517020    -0.4669850
  C        2.5736910    -0.5549740     0.2429080
  C       -0.0001100     2.0271580    -0.5052670
  C       -2.5736650    -0.5550660     0.2429470
  H        0.0000220    -0.9878970     1.2560840
  H        1.1855160    -1.9310980    -0.6540960
  H        1.2530210    -0.3759140    -1.4557310
  H        0.8718230     1.2713760     1.3117180
  H       -0.8715850     1.2713570     1.3119230
  H       -1.2530320    -0.3758260    -1.4557010
  H       -1.1854530    -1.9310640    -0.6541770
  H        2.7260441     0.3225438     0.3090403
  H        3.4151550    -0.9947620    -0.3010430
  H        2.5741680    -0.9734350     1.2548350
  H        0.8834690     1.8928260    -1.1356920
  H       -0.0001040     3.0640380    -0.1556120
  H       -0.8838160     1.8927720    -1.1355030
  H       -3.4151150    -0.9948620    -0.3010190
  H       -2.7601920     0.5189470     0.3239600
  H       -2.5741050    -0.9735930     1.2548470
units angstrom
no_reorient  #important for SAPT in psi4, default
symmetry c1  #important for SAPT in psi4, default
}

set PROPERTIES_ORIGIN ["COM"]
properties('MP2/aug-cc-pvtz', properties = ['dipole'])
--------------------------------------------------------------------------

    Molecular point group: c1
  Charge       = 0
  Multiplicity = 1
  Basis Set: AUG-CC-PVTZ
    Blend: AUG-CC-PVTZ
  Basis Set: (AUG-CC-PVTZ AUX)
    Blend: AUG-CC-PVTZ-JKFIT

    Orbital Energies [Eh]
    ---------------------

    Doubly Occupied:

       1A    -11.216814     2A    -11.212532     3A    -11.212209
       4A    -11.210590     5A    -11.209156     6A    -11.208746
       7A    -11.183544     8A     -1.102652     9A     -1.021471
      10A     -1.005235    11A     -0.927878    12A     -0.853606
      13A     -0.824802    14A     -0.735540    15A     -0.651456
      16A     -0.635217    17A     -0.599837    18A     -0.574677
      19A     -0.559325    20A     -0.556767    21A     -0.544791
      22A     -0.520204    23A     -0.504110    24A     -0.495727
      25A     -0.485066    26A     -0.472662    27A     -0.442080
      28A     -0.434831    29A     -0.433454

  @DF-RHF Final Energy:  -274.45760402225778

   => Energetics <=

    Nuclear Repulsion Energy =            334.5225159945426299
    One-Electron Energy =               -1032.2902805522394374
    Two-Electron Energy =                 423.3101605354390813
    Total Energy =                       -274.4576040222577831
  Basis Set: (AUG-CC-PVTZ AUX)
    Blend: AUG-CC-PVTZ-RI
    Molecular point group: c1

    Geometry (in Angstrom), charge = 0, multiplicity = 1:

       Center              X                  Y                   Z               Mass
    ------------   -----------------  -----------------  -----------------  -----------------
         C            0.000361884608    -0.415390566194     0.305803680168    12.000000000000
         C            1.254839884608    -0.840904566194    -0.468927319832    12.000000000000
         C            0.000388884608     1.074674433806     0.678910680168    12.000000000000
         C           -1.254125115392    -0.840885566194    -0.468930319832    12.000000000000
         C            2.574033884608    -0.544157566194     0.240962680168    12.000000000000
         C            0.000232884608     2.037974433806    -0.507212319832    12.000000000000
         C           -2.573322115392    -0.544249566194     0.241001680168    12.000000000000
         H            0.000364884608    -0.977080566194     1.254138680168     1.007825032230
         H            1.185858884608    -1.920281566194    -0.656041319832     1.007825032230
         H            1.253363884608    -0.365097566194    -1.457676319832     1.007825032230
         H            0.872165884608     1.282192433806     1.309772680168     1.007825032230
         H           -0.871242115392     1.282173433806     1.309977680168     1.007825032230
         H           -1.252689115392    -0.365009566194    -1.457646319832     1.007825032230
         H           -1.185110115392    -1.920247566194    -0.656122319832     1.007825032230
         H            2.726386984608     0.333360233806     0.307094980168     1.007825032230
         H            3.415497884608    -0.983945566194    -0.302988319832     1.007825032230
         H            2.574510884608    -0.962618566194     1.252889680168     1.007825032230
         H            0.883811884608     1.903642433806    -1.137637319832     1.007825032230
         H            0.000238884608     3.074854433806    -0.157557319832     1.007825032230
         H           -0.883473115392     1.903588433806    -1.137448319832     1.007825032230
         H           -3.414772115392    -0.984045566194    -0.302964319832     1.007825032230
         H           -2.759849115392     0.529763433806     0.322014680168     1.007825032230
         H           -2.573762115392    -0.962776566194     1.252901680168     1.007825032230

  Basis Set: AUG-CC-PVTZ
    Blend: AUG-CC-PVTZ
  Basis Set: (AUG-CC-PVTZ AUX)
    Blend: AUG-CC-PVTZ-JKFIT
	 Reference Energy          =    -274.4576040222577831 [Eh]
	 Singles Energy            =      -0.0000000000000000 [Eh]
	 Same-Spin Energy          =      -0.2968827159135289 [Eh]
	 Opposite-Spin Energy      =      -1.1065943577524555 [Eh]
	 Correlation Energy        =      -1.4034770736659845 [Eh]
	 Total Energy              =    -275.8610810959237938 [Eh]

	 ================> DF-SCS-MP2 Energies <==================
	-----------------------------------------------------------
	 SCS Same-Spin Scale       =       0.3333333333333333 [-]
	 SCS Opposite-Spin Scale   =       1.2000000000000000 [-]
	 SCS Same-Spin Energy      =      -0.0989609053045096 [Eh]
	 SCS Opposite-Spin Energy  =      -1.3279132293029465 [Eh]
	 SCS Correlation Energy    =      -1.4268741346074563 [Eh]
	 SCS Total Energy          =    -275.8844781568652138 [Eh]
	-----------------------------------------------------------

  Dipole Moment: [D]
     X:     0.0389      Y:     0.0236      Z:     0.0442     Total:     0.0635

*** Psi4 exiting successfully. Buy a developer a beer!
