                               Psi4 1.4a3.dev225

  ==> Input File <==

--------------------------------------------------------------------------
#psi4
#
memory 32 gb

molecule  {
0 1
  C        0.0000000    -0.4260750     0.3076100
  C        1.2544720    -0.8514380    -0.4671590
  C        0.0000000     1.0639900     0.6808960
  C       -1.2544720    -0.8514380    -0.4671590
  C        2.5304812    -0.5651852     0.2198015
  C        0.0000000     2.0274100    -0.5051140
  C       -2.5736720    -0.5554960     0.2430540
  H        0.0000000    -0.9878700     1.2558670
  H        1.1852130    -1.9306880    -0.6549460
  H        1.2532300    -0.3750670    -1.4556400
  H        0.8717050     1.2713650     1.3118990
  H       -0.8717030     1.2713660     1.3119000
  H       -1.2532300    -0.3750660    -1.4556400
  H       -1.1852130    -1.9306880    -0.6549460
  H        2.7605980     0.5184190     0.3244420
  H        3.4150690    -0.9954020    -0.3009240
  H        2.5738760    -0.9743250     1.2548280
  H        0.8836400     1.8931300    -1.1354610
  H        0.0000000     3.0642610    -0.1553580
  H       -0.8836410     1.8931290    -1.1354600
  H       -3.4150690    -0.9954020    -0.3009240
  H       -2.7605980     0.5184190     0.3244430
  H       -2.5738760    -0.9743270     1.2548280
units angstrom
no_reorient  #important for SAPT in psi4, default
symmetry c1  #important for SAPT in psi4, default
}

set PROPERTIES_ORIGIN ["COM"]
properties('MP2/aug-cc-pvtz', properties = ['dipole'])
--------------------------------------------------------------------------

    Molecular point group: c1
  Charge       = 0
  Multiplicity = 1
  Basis Set: AUG-CC-PVTZ
    Blend: AUG-CC-PVTZ
  Basis Set: (AUG-CC-PVTZ AUX)
    Blend: AUG-CC-PVTZ-JKFIT

    Orbital Energies [Eh]
    ---------------------

    Doubly Occupied:

       1A    -11.217430     2A    -11.212684     3A    -11.211909
       4A    -11.211837     5A    -11.210305     6A    -11.209007
       7A    -11.208723     8A     -1.104171     9A     -1.018345
      10A     -1.004967    11A     -0.918175    12A     -0.849905
      13A     -0.814460    14A     -0.735588    15A     -0.648024
      16A     -0.633899    17A     -0.595118    18A     -0.563168
      19A     -0.560339    20A     -0.557077    21A     -0.545728
      22A     -0.516838    23A     -0.498279    24A     -0.494393
      25A     -0.485523    26A     -0.466535    27A     -0.442173
      28A     -0.436015    29A     -0.431992

  @DF-RHF Final Energy:  -274.48877371410265

   => Energetics <=

    Nuclear Repulsion Energy =            334.3637173039817867
    One-Electron Energy =               -1032.0997659984825532
    Two-Electron Energy =                 423.2472749803981742
    Total Energy =                       -274.4887737141026491
  Basis Set: (AUG-CC-PVTZ AUX)
    Blend: AUG-CC-PVTZ-RI
    Molecular point group: c1

    Geometry (in Angstrom), charge = 0, multiplicity = 1:

       Center              X                  Y                   Z               Mass
    ------------   -----------------  -----------------  -----------------  -----------------
         C            0.005176405036    -0.416081928290     0.308305027839    12.000000000000
         C            1.259648405036    -0.841444928290    -0.466463972161    12.000000000000
         C            0.005176405036     1.073983071710     0.681591027839    12.000000000000
         C           -1.249295594964    -0.841444928290    -0.466463972161    12.000000000000
         C            2.535657605036    -0.555192128290     0.220496527839    12.000000000000
         C            0.005176405036     2.037403071710    -0.504418972161    12.000000000000
         C           -2.568495594964    -0.545502928290     0.243749027839    12.000000000000
         H            0.005176405036    -0.977876928290     1.256562027839     1.007825032230
         H            1.190389405036    -1.920694928290    -0.654250972161     1.007825032230
         H            1.258406405036    -0.365073928290    -1.454944972161     1.007825032230
         H            0.876881405036     1.281358071710     1.312594027839     1.007825032230
         H           -0.866526594964     1.281359071710     1.312595027839     1.007825032230
         H           -1.248053594964    -0.365072928290    -1.454944972161     1.007825032230
         H           -1.180036594964    -1.920694928290    -0.654250972161     1.007825032230
         H            2.765774405036     0.528412071710     0.325137027839     1.007825032230
         H            3.420245405036    -0.985408928290    -0.300228972161     1.007825032230
         H            2.579052405036    -0.964331928290     1.255523027839     1.007825032230
         H            0.888816405036     1.903123071710    -1.134765972161     1.007825032230
         H            0.005176405036     3.074254071710    -0.154662972161     1.007825032230
         H           -0.878464594964     1.903122071710    -1.134764972161     1.007825032230
         H           -3.409892594964    -0.985408928290    -0.300228972161     1.007825032230
         H           -2.755421594964     0.528412071710     0.325138027839     1.007825032230
         H           -2.568699594964    -0.964333928290     1.255523027839     1.007825032230

  Basis Set: AUG-CC-PVTZ
    Blend: AUG-CC-PVTZ
  Basis Set: (AUG-CC-PVTZ AUX)
    Blend: AUG-CC-PVTZ-JKFIT
	 Reference Energy          =    -274.4887737141026491 [Eh]
	 Singles Energy            =      -0.0000000000000000 [Eh]
	 Same-Spin Energy          =      -0.2972548064318461 [Eh]
	 Opposite-Spin Energy      =      -1.1076462407860654 [Eh]
	 Correlation Energy        =      -1.4049010472179115 [Eh]
	 Total Energy              =    -275.8936747613205398 [Eh]

	 ================> DF-SCS-MP2 Energies <==================
	-----------------------------------------------------------
	 SCS Same-Spin Scale       =       0.3333333333333333 [-]
	 SCS Opposite-Spin Scale   =       1.2000000000000000 [-]
	 SCS Same-Spin Energy      =      -0.0990849354772820 [Eh]
	 SCS Opposite-Spin Energy  =      -1.3291754889432785 [Eh]
	 SCS Correlation Energy    =      -1.4282604244205606 [Eh]
	 SCS Total Energy          =    -275.9170341385232064 [Eh]
	-----------------------------------------------------------

  Dipole Moment: [D]
     X:     0.0006      Y:    -0.0656      Z:     0.0232     Total:     0.0696

*** Psi4 exiting successfully. Buy a developer a beer!
