                               Psi4 1.4a3.dev225

  ==> Input File <==

--------------------------------------------------------------------------
#psi4
#
memory 32 gb

molecule  {
0 1
  C        0.0000000    -0.4260750     0.3076100
  C        1.2544720    -0.8514380    -0.4671590
  C        0.0000000     1.0639900     0.6808960
  C       -1.2544720    -0.8514380    -0.4671590
  C        2.5736720    -0.5554960     0.2430540
  C        0.0000000     2.0274100    -0.5051140
  C       -2.5736720    -0.5554960     0.2430540
  H        0.0000000    -0.9878700     1.2558670
  H        1.1852130    -1.9306880    -0.6549460
  H        1.2532300    -0.3750670    -1.4556400
  H        0.8717050     1.2713650     1.3118990
  H       -0.8717030     1.2713660     1.3119000
  H       -1.2532300    -0.3750660    -1.4556400
  H       -1.1852130    -1.9306880    -0.6549460
  H        2.7640181     0.5380681     0.3259311
  H        3.4150690    -0.9954020    -0.3009240
  H        2.5738760    -0.9743250     1.2548280
  H        0.8836400     1.8931300    -1.1354610
  H        0.0000000     3.0642610    -0.1553580
  H       -0.8836410     1.8931290    -1.1354600
  H       -3.4150690    -0.9954020    -0.3009240
  H       -2.7605980     0.5184190     0.3244430
  H       -2.5738760    -0.9743270     1.2548280
units angstrom
no_reorient  #important for SAPT in psi4, default
symmetry c1  #important for SAPT in psi4, default
}

set PROPERTIES_ORIGIN ["COM"]
properties('MP2/aug-cc-pvtz', properties = ['dipole'])
--------------------------------------------------------------------------

    Molecular point group: c1
  Charge       = 0
  Multiplicity = 1
  Basis Set: AUG-CC-PVTZ
    Blend: AUG-CC-PVTZ
  Basis Set: (AUG-CC-PVTZ AUX)
    Blend: AUG-CC-PVTZ-JKFIT

    Orbital Energies [Eh]
    ---------------------

    Doubly Occupied:

       1A    -11.217295     2A    -11.212875     3A    -11.212620
       4A    -11.211743     5A    -11.211396     6A    -11.208961
       7A    -11.208635     8A     -1.101626     9A     -1.012537
      10A     -1.003871    11A     -0.918142    12A     -0.850119
      13A     -0.815980    14A     -0.734783    15A     -0.646765
      16A     -0.633243    17A     -0.594506    18A     -0.560761
      19A     -0.557547    20A     -0.556748    21A     -0.546103
      22A     -0.516262    23A     -0.500071    24A     -0.495801
      25A     -0.483191    26A     -0.469611    27A     -0.442203
      28A     -0.434381    29A     -0.433742

  @DF-RHF Final Energy:  -274.49126958363649

   => Energetics <=

    Nuclear Repulsion Energy =            333.5784395076336182
    One-Electron Energy =               -1030.5563913798027897
    Two-Electron Energy =                 422.4866822885326201
    Total Energy =                       -274.4912695836364946
  Basis Set: (AUG-CC-PVTZ AUX)
    Blend: AUG-CC-PVTZ-RI
    Molecular point group: c1

    Geometry (in Angstrom), charge = 0, multiplicity = 1:

       Center              X                  Y                   Z               Mass
    ------------   -----------------  -----------------  -----------------  -----------------
         C           -0.000034435589    -0.417440959325     0.305503228184    12.000000000000
         C            1.254437564411    -0.842803959325    -0.469265771816    12.000000000000
         C           -0.000034435589     1.072624040675     0.678789228184    12.000000000000
         C           -1.254506435589    -0.842803959325    -0.469265771816    12.000000000000
         C            2.573637564411    -0.546861959325     0.240947228184    12.000000000000
         C           -0.000034435589     2.036044040675    -0.507220771816    12.000000000000
         C           -2.573706435589    -0.546861959325     0.240947228184    12.000000000000
         H           -0.000034435589    -0.979235959325     1.253760228184     1.007825032230
         H            1.185178564411    -1.922053959325    -0.657052771816     1.007825032230
         H            1.253195564411    -0.366432959325    -1.457746771816     1.007825032230
         H            0.871670564411     1.279999040675     1.309792228184     1.007825032230
         H           -0.871737435589     1.280000040675     1.309793228184     1.007825032230
         H           -1.253264435589    -0.366431959325    -1.457746771816     1.007825032230
         H           -1.185247435589    -1.922053959325    -0.657052771816     1.007825032230
         H            2.763983664411     0.546702140675     0.323824328184     1.007825032230
         H            3.415034564411    -0.986767959325    -0.303030771816     1.007825032230
         H            2.573841564411    -0.965690959325     1.252721228184     1.007825032230
         H            0.883605564411     1.901764040675    -1.137567771816     1.007825032230
         H           -0.000034435589     3.072895040675    -0.157464771816     1.007825032230
         H           -0.883675435589     1.901763040675    -1.137566771816     1.007825032230
         H           -3.415103435589    -0.986767959325    -0.303030771816     1.007825032230
         H           -2.760632435589     0.527053040675     0.322336228184     1.007825032230
         H           -2.573910435589    -0.965692959325     1.252721228184     1.007825032230

  Basis Set: AUG-CC-PVTZ
    Blend: AUG-CC-PVTZ
  Basis Set: (AUG-CC-PVTZ AUX)
    Blend: AUG-CC-PVTZ-JKFIT
	 Reference Energy          =    -274.4912695836364946 [Eh]
	 Singles Energy            =      -0.0000000000000000 [Eh]
	 Same-Spin Energy          =      -0.2968499502811485 [Eh]
	 Opposite-Spin Energy      =      -1.1073716700890268 [Eh]
	 Correlation Energy        =      -1.4042216203701754 [Eh]
	 Total Energy              =    -275.8954912040066461 [Eh]

	 ================> DF-SCS-MP2 Energies <==================
	-----------------------------------------------------------
	 SCS Same-Spin Scale       =       0.3333333333333333 [-]
	 SCS Opposite-Spin Scale   =       1.2000000000000000 [-]
	 SCS Same-Spin Energy      =      -0.0989499834270495 [Eh]
	 SCS Opposite-Spin Energy  =      -1.3288460041068322 [Eh]
	 SCS Correlation Energy    =      -1.4277959875338817 [Eh]
	 SCS Total Energy          =    -275.9190655711703926 [Eh]
	-----------------------------------------------------------

  Dipole Moment: [D]
     X:    -0.0051      Y:    -0.0785      Z:     0.0255     Total:     0.0827

*** Psi4 exiting successfully. Buy a developer a beer!
