                               Psi4 1.3.2 release

  ==> Input File <==

--------------------------------------------------------------------------
#psi4
#
memory 32 gb

molecule  {
0 1
  C        0.0000190    -0.4262070     0.3077490
  C        1.2074307    -0.7502564    -0.5822703
  C        0.0000460     1.0638580     0.6808560
  C       -1.2544680    -0.8517020    -0.4669850
  C        2.5736910    -0.5549740     0.2429080
  C       -0.0001100     2.0271580    -0.5052670
  C       -2.5736650    -0.5550660     0.2429470
  H        0.0000220    -0.9878970     1.2560840
  H        1.1855160    -1.9310980    -0.6540960
  H        1.2530210    -0.3759140    -1.4557310
  H        0.8718230     1.2713760     1.3117180
  H       -0.8715850     1.2713570     1.3119230
  H       -1.2530320    -0.3758260    -1.4557010
  H       -1.1854530    -1.9310640    -0.6541770
  H        2.7601620     0.5190550     0.3238500
  H        3.4151550    -0.9947620    -0.3010430
  H        2.5741680    -0.9734350     1.2548350
  H        0.8834690     1.8928260    -1.1356920
  H       -0.0001040     3.0640380    -0.1556120
  H       -0.8838160     1.8927720    -1.1355030
  H       -3.4151150    -0.9948620    -0.3010190
  H       -2.7601920     0.5189470     0.3239600
  H       -2.5741050    -0.9735930     1.2548470
units angstrom
no_reorient  #important for SAPT in psi4, default
symmetry c1  #important for SAPT in psi4, default
}

set PROPERTIES_ORIGIN ["COM"]
properties('MP2/aug-cc-pvtz', properties = ['dipole'])
--------------------------------------------------------------------------

    Molecular point group: c1
  Charge       = 0
  Multiplicity = 1
  Basis Set: AUG-CC-PVTZ
    Blend: AUG-CC-PVTZ
  Basis Set: (AUG-CC-PVTZ AUX)
    Blend: AUG-CC-PVTZ-JKFIT

    Orbital Energies [Eh]
    ---------------------

    Doubly Occupied:

       1A    -11.219300     2A    -11.212991     3A    -11.211880
       4A    -11.211472     5A    -11.211050     6A    -11.209742
       7A    -11.208198     8A     -1.102274     9A     -1.008616
      10A     -0.999690    11A     -0.915785    12A     -0.855330
      13A     -0.823418    14A     -0.743267    15A     -0.645609
      16A     -0.629884    17A     -0.603249    18A     -0.562301
      19A     -0.557901    20A     -0.551893    21A     -0.539281
      22A     -0.521305    23A     -0.513088    24A     -0.497237
      25A     -0.477978    26A     -0.465698    27A     -0.454081
      28A     -0.424665    29A     -0.419737

  @DF-RHF Final Energy:  -274.46016439084315

   => Energetics <=

    Nuclear Repulsion Energy =            333.7661493686710514
    One-Electron Energy =               -1030.8587826300522465
    Two-Electron Energy =                 422.6324688705381050
    Total Energy =                       -274.4601643908431470
  Basis Set: (AUG-CC-PVTZ AUX)
    Blend: AUG-CC-PVTZ-RI
    Molecular point group: c1

    Geometry (in Angstrom), charge = 0, multiplicity = 1:

       Center              X                  Y                   Z               Mass
    ------------   -----------------  -----------------  -----------------  -----------------
         C            0.005659359405    -0.429529105734     0.319471907613    12.000000000000
         C            1.213071059405    -0.753578505734    -0.570547392387    12.000000000000
         C            0.005686359405     1.060535894266     0.692578907613    12.000000000000
         C           -1.248827640595    -0.855024105734    -0.455262092387    12.000000000000
         C            2.579331359405    -0.558296105734     0.254630907613    12.000000000000
         C            0.005530359405     2.023835894266    -0.493544092387    12.000000000000
         C           -2.568024640595    -0.558388105734     0.254669907613    12.000000000000
         H            0.005662359405    -0.991219105734     1.267806907613     1.007825032230
         H            1.191156359405    -1.934420105734    -0.642373092387     1.007825032230
         H            1.258661359405    -0.379236105734    -1.444008092387     1.007825032230
         H            0.877463359405     1.268053894266     1.323440907613     1.007825032230
         H           -0.865944640595     1.268034894266     1.323645907613     1.007825032230
         H           -1.247391640595    -0.379148105734    -1.443978092387     1.007825032230
         H           -1.179812640595    -1.934386105734    -0.642454092387     1.007825032230
         H            2.765802359405     0.515732894266     0.335572907613     1.007825032230
         H            3.420795359405    -0.998084105734    -0.289320092387     1.007825032230
         H            2.579808359405    -0.976757105734     1.266557907613     1.007825032230
         H            0.889109359405     1.889503894266    -1.123969092387     1.007825032230
         H            0.005536359405     3.060715894266    -0.143889092387     1.007825032230
         H           -0.878175640595     1.889449894266    -1.123780092387     1.007825032230
         H           -3.409474640595    -0.998184105734    -0.289296092387     1.007825032230
         H           -2.754551640595     0.515624894266     0.335682907613     1.007825032230
         H           -2.568464640595    -0.976915105734     1.266569907613     1.007825032230

  Basis Set: AUG-CC-PVTZ
    Blend: AUG-CC-PVTZ
  Basis Set: (AUG-CC-PVTZ AUX)
    Blend: AUG-CC-PVTZ-JKFIT
	 Reference Energy          =    -274.4601643908431470 [Eh]
	 Singles Energy            =      -0.0000000000000000 [Eh]
	 Same-Spin Energy          =      -0.2970591975520023 [Eh]
	 Opposite-Spin Energy      =      -1.1086789433894189 [Eh]
	 Correlation Energy        =      -1.4057381409414211 [Eh]
	 Total Energy              =    -275.8659025317845703 [Eh]

	 ================> DF-SCS-MP2 Energies <==================
	-----------------------------------------------------------
	 SCS Same-Spin Scale       =       0.3333333333333333 [-]
	 SCS Opposite-Spin Scale   =       1.2000000000000000 [-]
	 SCS Same-Spin Energy      =      -0.0990197325173341 [Eh]
	 SCS Opposite-Spin Energy  =      -1.3304147320673025 [Eh]
	 SCS Correlation Energy    =      -1.4294344645846366 [Eh]
	 SCS Total Energy          =    -275.8895988554277778 [Eh]
	-----------------------------------------------------------

  Dipole Moment: [D]
     X:    -0.0268      Y:    -0.0042      Z:     0.0111     Total:     0.0293

*** Psi4 exiting successfully. Buy a developer a beer!
