                               Psi4 1.3.2 release

  ==> Input File <==

--------------------------------------------------------------------------
#psi4
#
memory 32 gb

molecule  {
0 1
  C        0.0000190    -0.4262070     0.3077490
  C        1.2475950    -0.8351045    -0.4868215
  C        0.0000460     1.0638580     0.6808560
  C       -1.2544680    -0.8517020    -0.4669850
  C        2.5736910    -0.5549740     0.2429080
  C       -0.0001100     2.0271580    -0.5052670
  C       -2.5736650    -0.5550660     0.2429470
  H        0.0000220    -0.9878970     1.2560840
  H        1.1855160    -1.9310980    -0.6540960
  H        1.2530210    -0.3759140    -1.4557310
  H        0.8718230     1.2713760     1.3117180
  H       -0.8715850     1.2713570     1.3119230
  H       -1.2530320    -0.3758260    -1.4557010
  H       -1.1854530    -1.9310640    -0.6541770
  H        2.7601620     0.5190550     0.3238500
  H        3.4151550    -0.9947620    -0.3010430
  H        2.5741680    -0.9734350     1.2548350
  H        0.8834690     1.8928260    -1.1356920
  H       -0.0001040     3.0640380    -0.1556120
  H       -0.8838160     1.8927720    -1.1355030
  H       -3.4151150    -0.9948620    -0.3010190
  H       -2.7601920     0.5189470     0.3239600
  H       -2.5741050    -0.9735930     1.2548470
units angstrom
no_reorient  #important for SAPT in psi4, default
symmetry c1  #important for SAPT in psi4, default
}

set PROPERTIES_ORIGIN ["COM"]
properties('MP2/aug-cc-pvtz', properties = ['dipole'])
--------------------------------------------------------------------------

    Molecular point group: c1
  Charge       = 0
  Multiplicity = 1
  Basis Set: AUG-CC-PVTZ
    Blend: AUG-CC-PVTZ
  Basis Set: (AUG-CC-PVTZ AUX)
    Blend: AUG-CC-PVTZ-JKFIT

    Orbital Energies [Eh]
    ---------------------

    Doubly Occupied:

       1A    -11.217285     2A    -11.212344     3A    -11.212131
       4A    -11.211619     5A    -11.209216     6A    -11.208853
       7A    -11.208787     8A     -1.101569     9A     -1.011700
      10A     -1.003511    11A     -0.918189    12A     -0.850770
      13A     -0.817261    14A     -0.735770    15A     -0.646879
      16A     -0.632678    17A     -0.595727    18A     -0.561136
      19A     -0.557211    20A     -0.556980    21A     -0.544675
      22A     -0.516040    23A     -0.502480    24A     -0.496495
      25A     -0.480999    26A     -0.471588    27A     -0.444828
      28A     -0.433120    29A     -0.432460

  @DF-RHF Final Energy:  -274.49108927635683

   => Energetics <=

    Nuclear Repulsion Energy =            333.6701423450554671
    One-Electron Energy =               -1030.7378623451902513
    Two-Electron Energy =                 422.5766307237780097
    Total Energy =                       -274.4910892763568313
  Basis Set: (AUG-CC-PVTZ AUX)
    Blend: AUG-CC-PVTZ-RI
    Molecular point group: c1

    Geometry (in Angstrom), charge = 0, multiplicity = 1:

       Center              X                  Y                   Z               Mass
    ------------   -----------------  -----------------  -----------------  -----------------
         C            0.000845670169    -0.419360065425     0.308032373968    12.000000000000
         C            1.248421670169    -0.828257565425    -0.486538126032    12.000000000000
         C            0.000872670169     1.070704934575     0.681139373968    12.000000000000
         C           -1.253641329831    -0.844855065425    -0.466701626032    12.000000000000
         C            2.574517670169    -0.548127065425     0.243191373968    12.000000000000
         C            0.000716670169     2.034004934575    -0.504983626032    12.000000000000
         C           -2.572838329831    -0.548219065425     0.243230373968    12.000000000000
         H            0.000848670169    -0.981050065425     1.256367373968     1.007825032230
         H            1.186342670169    -1.924251065425    -0.653812626032     1.007825032230
         H            1.253847670169    -0.369067065425    -1.455447626032     1.007825032230
         H            0.872649670169     1.278222934575     1.312001373968     1.007825032230
         H           -0.870758329831     1.278203934575     1.312206373968     1.007825032230
         H           -1.252205329831    -0.368979065425    -1.455417626032     1.007825032230
         H           -1.184626329831    -1.924217065425    -0.653893626032     1.007825032230
         H            2.760988670169     0.525901934575     0.324133373968     1.007825032230
         H            3.415981670169    -0.987915065425    -0.300759626032     1.007825032230
         H            2.574994670169    -0.966588065425     1.255118373968     1.007825032230
         H            0.884295670169     1.899672934575    -1.135408626032     1.007825032230
         H            0.000722670169     3.070884934575    -0.155328626032     1.007825032230
         H           -0.882989329831     1.899618934575    -1.135219626032     1.007825032230
         H           -3.414288329831    -0.988015065425    -0.300735626032     1.007825032230
         H           -2.759365329831     0.525793934575     0.324243373968     1.007825032230
         H           -2.573278329831    -0.966746065425     1.255130373968     1.007825032230

  Basis Set: AUG-CC-PVTZ
    Blend: AUG-CC-PVTZ
  Basis Set: (AUG-CC-PVTZ AUX)
    Blend: AUG-CC-PVTZ-JKFIT
	 Reference Energy          =    -274.4910892763568313 [Eh]
	 Singles Energy            =      -0.0000000000000000 [Eh]
	 Same-Spin Energy          =      -0.2967993168429365 [Eh]
	 Opposite-Spin Energy      =      -1.1072476742854187 [Eh]
	 Correlation Energy        =      -1.4040469911283551 [Eh]
	 Total Energy              =    -275.8951362674852135 [Eh]

	 ================> DF-SCS-MP2 Energies <==================
	-----------------------------------------------------------
	 SCS Same-Spin Scale       =       0.3333333333333333 [-]
	 SCS Opposite-Spin Scale   =       1.2000000000000000 [-]
	 SCS Same-Spin Energy      =      -0.0989331056143122 [Eh]
	 SCS Opposite-Spin Energy  =      -1.3286972091425024 [Eh]
	 SCS Correlation Energy    =      -1.4276303147568146 [Eh]
	 SCS Total Energy          =    -275.9187195911136428 [Eh]
	-----------------------------------------------------------

  Dipole Moment: [D]
     X:    -0.0032      Y:    -0.0569      Z:     0.0181     Total:     0.0598

*** Psi4 exiting successfully. Buy a developer a beer!
