                               Psi4 1.3.2 release

  ==> Input File <==

--------------------------------------------------------------------------
#psi4
#
memory 32 gb

molecule  {
0 1
  C       -0.0460553    -0.5799350     0.3009253
  C        1.2544970    -0.8517210    -0.4669820
  C        0.0000460     1.0638580     0.6808560
  C       -1.2544680    -0.8517020    -0.4669850
  C        2.5736910    -0.5549740     0.2429080
  C       -0.0001100     2.0271580    -0.5052670
  C       -2.5736650    -0.5550660     0.2429470
  H        0.0000220    -0.9878970     1.2560840
  H        1.1855160    -1.9310980    -0.6540960
  H        1.2530210    -0.3759140    -1.4557310
  H        0.8718230     1.2713760     1.3117180
  H       -0.8715850     1.2713570     1.3119230
  H       -1.2530320    -0.3758260    -1.4557010
  H       -1.1854530    -1.9310640    -0.6541770
  H        2.7601620     0.5190550     0.3238500
  H        3.4151550    -0.9947620    -0.3010430
  H        2.5741680    -0.9734350     1.2548350
  H        0.8834690     1.8928260    -1.1356920
  H       -0.0001040     3.0640380    -0.1556120
  H       -0.8838160     1.8927720    -1.1355030
  H       -3.4151150    -0.9948620    -0.3010190
  H       -2.7601920     0.5189470     0.3239600
  H       -2.5741050    -0.9735930     1.2548470
units angstrom
no_reorient  #important for SAPT in psi4, default
symmetry c1  #important for SAPT in psi4, default
}

set PROPERTIES_ORIGIN ["COM"]
properties('MP2/aug-cc-pvtz', properties = ['dipole'])
--------------------------------------------------------------------------

    Molecular point group: c1
  Charge       = 0
  Multiplicity = 1
  Basis Set: AUG-CC-PVTZ
    Blend: AUG-CC-PVTZ
  Basis Set: (AUG-CC-PVTZ AUX)
    Blend: AUG-CC-PVTZ-JKFIT

    Orbital Energies [Eh]
    ---------------------

    Doubly Occupied:

       1A    -11.217296     2A    -11.213559     3A    -11.212195
       4A    -11.211290     5A    -11.210787     6A    -11.210523
       7A    -11.207357     8A     -1.101125     9A     -1.016168
      10A     -0.998319    11A     -0.922757    12A     -0.839852
      13A     -0.822494    14A     -0.746068    15A     -0.642058
      16A     -0.625573    17A     -0.603043    18A     -0.569650
      19A     -0.556916    20A     -0.553759    21A     -0.548814
      22A     -0.513548    23A     -0.500605    24A     -0.495362
      25A     -0.483734    26A     -0.468031    27A     -0.464899
      28A     -0.446652    29A     -0.388912

  @DF-RHF Final Energy:  -274.46985727276933

   => Energetics <=

    Nuclear Repulsion Energy =            332.8611979000461361
    One-Electron Energy =               -1029.0794165965619413
    Two-Electron Energy =                 421.7483614237464735
    Total Energy =                       -274.4698572727693318
  Basis Set: (AUG-CC-PVTZ AUX)
    Blend: AUG-CC-PVTZ-RI
    Molecular point group: c1

    Geometry (in Angstrom), charge = 0, multiplicity = 1:

       Center              X                  Y                   Z               Mass
    ------------   -----------------  -----------------  -----------------  -----------------
         C           -0.040533831742    -0.552672286086     0.299648731024    12.000000000000
         C            1.260018468258    -0.824458286086    -0.468258568976    12.000000000000
         C            0.005567468258     1.091120713914     0.679579431024    12.000000000000
         C           -1.248946531742    -0.824439286086    -0.468261568976    12.000000000000
         C            2.579212468258    -0.527711286086     0.241631431024    12.000000000000
         C            0.005411468258     2.054420713914    -0.506543568976    12.000000000000
         C           -2.568143531742    -0.527803286086     0.241670431024    12.000000000000
         H            0.005543468258    -0.960634286086     1.254807431024     1.007825032230
         H            1.191037468258    -1.903835286086    -0.655372568976     1.007825032230
         H            1.258542468258    -0.348651286086    -1.457007568976     1.007825032230
         H            0.877344468258     1.298638713914     1.310441431024     1.007825032230
         H           -0.866063531742     1.298619713914     1.310646431024     1.007825032230
         H           -1.247510531742    -0.348563286086    -1.456977568976     1.007825032230
         H           -1.179931531742    -1.903801286086    -0.655453568976     1.007825032230
         H            2.765683468258     0.546317713914     0.322573431024     1.007825032230
         H            3.420676468258    -0.967499286086    -0.302319568976     1.007825032230
         H            2.579689468258    -0.946172286086     1.253558431024     1.007825032230
         H            0.888990468258     1.920088713914    -1.136968568976     1.007825032230
         H            0.005417468258     3.091300713914    -0.156888568976     1.007825032230
         H           -0.878294531742     1.920034713914    -1.136779568976     1.007825032230
         H           -3.409593531742    -0.967599286086    -0.302295568976     1.007825032230
         H           -2.754670531742     0.546209713914     0.322683431024     1.007825032230
         H           -2.568583531742    -0.946330286086     1.253570431024     1.007825032230

  Basis Set: AUG-CC-PVTZ
    Blend: AUG-CC-PVTZ
  Basis Set: (AUG-CC-PVTZ AUX)
    Blend: AUG-CC-PVTZ-JKFIT
	 Reference Energy          =    -274.4698572727693318 [Eh]
	 Singles Energy            =      -0.0000000000000000 [Eh]
	 Same-Spin Energy          =      -0.2974393652204131 [Eh]
	 Opposite-Spin Energy      =      -1.1085868357333053 [Eh]
	 Correlation Energy        =      -1.4060262009537183 [Eh]
	 Total Energy              =    -275.8758834737230359 [Eh]

	 ================> DF-SCS-MP2 Energies <==================
	-----------------------------------------------------------
	 SCS Same-Spin Scale       =       0.3333333333333333 [-]
	 SCS Opposite-Spin Scale   =       1.2000000000000000 [-]
	 SCS Same-Spin Energy      =      -0.0991464550734710 [Eh]
	 SCS Opposite-Spin Energy  =      -1.3303042028799663 [Eh]
	 SCS Correlation Energy    =      -1.4294506579534374 [Eh]
	 SCS Total Energy          =    -275.8993079307227845 [Eh]
	-----------------------------------------------------------

  Dipole Moment: [D]
     X:    -0.0205      Y:    -0.1517      Z:     0.0436     Total:     0.1592

*** Psi4 exiting successfully. Buy a developer a beer!
