                               Psi4 1.3.2 release

  ==> Input File <==

--------------------------------------------------------------------------
#psi4
#
memory 32 gb

molecule  {
0 1
  C        0.0000190    -0.4262070     0.3077490
  C        1.2610169    -0.8682079    -0.4469065
  C        0.0000460     1.0638580     0.6808560
  C       -1.2544680    -0.8517020    -0.4669850
  C        2.5736910    -0.5549740     0.2429080
  C       -0.0001100     2.0271580    -0.5052670
  C       -2.5736650    -0.5550660     0.2429470
  H        0.0000220    -0.9878970     1.2560840
  H        1.1855160    -1.9310980    -0.6540960
  H        1.2530210    -0.3759140    -1.4557310
  H        0.8718230     1.2713760     1.3117180
  H       -0.8715850     1.2713570     1.3119230
  H       -1.2530320    -0.3758260    -1.4557010
  H       -1.1854530    -1.9310640    -0.6541770
  H        2.7601620     0.5190550     0.3238500
  H        3.4151550    -0.9947620    -0.3010430
  H        2.5741680    -0.9734350     1.2548350
  H        0.8834690     1.8928260    -1.1356920
  H       -0.0001040     3.0640380    -0.1556120
  H       -0.8838160     1.8927720    -1.1355030
  H       -3.4151150    -0.9948620    -0.3010190
  H       -2.7601920     0.5189470     0.3239600
  H       -2.5741050    -0.9735930     1.2548470
units angstrom
no_reorient  #important for SAPT in psi4, default
symmetry c1  #important for SAPT in psi4, default
}

set PROPERTIES_ORIGIN ["COM"]
properties('MP2/aug-cc-pvtz', properties = ['dipole'])
--------------------------------------------------------------------------

    Molecular point group: c1
  Charge       = 0
  Multiplicity = 1
  Basis Set: AUG-CC-PVTZ
    Blend: AUG-CC-PVTZ
  Basis Set: (AUG-CC-PVTZ AUX)
    Blend: AUG-CC-PVTZ-JKFIT

    Orbital Energies [Eh]
    ---------------------

    Doubly Occupied:

       1A    -11.217300     2A    -11.213222     3A    -11.212818
       4A    -11.212058     5A    -11.209081     6A    -11.208741
       7A    -11.208547     8A     -1.101810     9A     -1.014327
      10A     -1.004399    11A     -0.919319    12A     -0.850002
      13A     -0.816220    14A     -0.734064    15A     -0.647083
      16A     -0.634173    17A     -0.593896    18A     -0.561740
      19A     -0.558367    20A     -0.557608    21A     -0.547231
      22A     -0.517380    23A     -0.499645    24A     -0.494801
      25A     -0.485630    26A     -0.468271    27A     -0.440242
      28A     -0.435618    29A     -0.433492

  @DF-RHF Final Energy:  -274.49090068982190

   => Energetics <=

    Nuclear Repulsion Energy =            333.6434152694152431
    One-Electron Energy =               -1030.6744581750463112
    Two-Electron Energy =                 422.5401422158091123
    Total Energy =                       -274.4909006898218991
  Basis Set: (AUG-CC-PVTZ AUX)
    Blend: AUG-CC-PVTZ-RI
    Molecular point group: c1

    Geometry (in Angstrom), charge = 0, multiplicity = 1:

       Center              X                  Y                   Z               Mass
    ------------   -----------------  -----------------  -----------------  -----------------
         C           -0.000762943838    -0.415392624681     0.303248563323    12.000000000000
         C            1.260234956162    -0.857393524681    -0.451406936677    12.000000000000
         C           -0.000735943838     1.074672375319     0.676355563323    12.000000000000
         C           -1.255249943838    -0.840887624681    -0.471485436677    12.000000000000
         C            2.572909056162    -0.544159624681     0.238407563323    12.000000000000
         C           -0.000891943838     2.037972375319    -0.509767436677    12.000000000000
         C           -2.574446943838    -0.544251624681     0.238446563323    12.000000000000
         H           -0.000759943838    -0.977082624681     1.251583563323     1.007825032230
         H            1.184734056162    -1.920283624681    -0.658596436677     1.007825032230
         H            1.252239056162    -0.365099624681    -1.460231436677     1.007825032230
         H            0.871041056162     1.282190375319     1.307217563323     1.007825032230
         H           -0.872366943838     1.282171375319     1.307422563323     1.007825032230
         H           -1.253813943838    -0.365011624681    -1.460201436677     1.007825032230
         H           -1.186234943838    -1.920249624681    -0.658677436677     1.007825032230
         H            2.759380056162     0.529869375319     0.319349563323     1.007825032230
         H            3.414373056162    -0.983947624681    -0.305543436677     1.007825032230
         H            2.573386056162    -0.962620624681     1.250334563323     1.007825032230
         H            0.882687056162     1.903640375319    -1.140192436677     1.007825032230
         H           -0.000885943838     3.074852375319    -0.160112436677     1.007825032230
         H           -0.884597943838     1.903586375319    -1.140003436677     1.007825032230
         H           -3.415896943838    -0.984047624681    -0.305519436677     1.007825032230
         H           -2.760973943838     0.529761375319     0.319459563323     1.007825032230
         H           -2.574886943838    -0.962778624681     1.250346563323     1.007825032230

  Basis Set: AUG-CC-PVTZ
    Blend: AUG-CC-PVTZ
  Basis Set: (AUG-CC-PVTZ AUX)
    Blend: AUG-CC-PVTZ-JKFIT
	 Reference Energy          =    -274.4909006898218991 [Eh]
	 Singles Energy            =      -0.0000000000000000 [Eh]
	 Same-Spin Energy          =      -0.2969193048984921 [Eh]
	 Opposite-Spin Energy      =      -1.1073235357927693 [Eh]
	 Correlation Energy        =      -1.4042428406912615 [Eh]
	 Total Energy              =    -275.8951435305131668 [Eh]

	 ================> DF-SCS-MP2 Energies <==================
	-----------------------------------------------------------
	 SCS Same-Spin Scale       =       0.3333333333333333 [-]
	 SCS Opposite-Spin Scale   =       1.2000000000000000 [-]
	 SCS Same-Spin Energy      =      -0.0989731016328307 [Eh]
	 SCS Opposite-Spin Energy  =      -1.3287882429513231 [Eh]
	 SCS Correlation Energy    =      -1.4277613445841539 [Eh]
	 SCS Total Energy          =    -275.9186620344060543 [Eh]
	-----------------------------------------------------------

  Dipole Moment: [D]
     X:     0.0029      Y:    -0.0751      Z:     0.0400     Total:     0.0852

*** Psi4 exiting successfully. Buy a developer a beer!
