                               Psi4 1.4a3.dev225

  ==> Input File <==

--------------------------------------------------------------------------
#psi4
#
memory 32 gb

molecule  {
0 1
  C        0.0000000    -0.4260750     0.3076100
  C        1.2544720    -0.8514380    -0.4671590
  C        0.0000000     1.0639900     0.6808960
  C       -1.2544720    -0.8514380    -0.4671590
  C        2.5909483    -0.5516203     0.2523550
  C        0.0000000     2.0274100    -0.5051140
  C       -2.5736720    -0.5554960     0.2430540
  H        0.0000000    -0.9878700     1.2558670
  H        1.1852130    -1.9306880    -0.6549460
  H        1.2532300    -0.3750670    -1.4556400
  H        0.8717050     1.2713650     1.3118990
  H       -0.8717030     1.2713660     1.3119000
  H       -1.2532300    -0.3750660    -1.4556400
  H       -1.1852130    -1.9306880    -0.6549460
  H        2.7605980     0.5184190     0.3244420
  H        3.4150690    -0.9954020    -0.3009240
  H        2.5738760    -0.9743250     1.2548280
  H        0.8836400     1.8931300    -1.1354610
  H        0.0000000     3.0642610    -0.1553580
  H       -0.8836410     1.8931290    -1.1354600
  H       -3.4150690    -0.9954020    -0.3009240
  H       -2.7605980     0.5184190     0.3244430
  H       -2.5738760    -0.9743270     1.2548280
units angstrom
no_reorient  #important for SAPT in psi4, default
symmetry c1  #important for SAPT in psi4, default
}

set PROPERTIES_ORIGIN ["COM"]
properties('MP2/aug-cc-pvtz', properties = ['dipole'])
--------------------------------------------------------------------------

    Molecular point group: c1
  Charge       = 0
  Multiplicity = 1
  Basis Set: AUG-CC-PVTZ
    Blend: AUG-CC-PVTZ
  Basis Set: (AUG-CC-PVTZ AUX)
    Blend: AUG-CC-PVTZ-JKFIT

    Orbital Energies [Eh]
    ---------------------

    Doubly Occupied:

       1A    -11.217188     2A    -11.213370     3A    -11.212541
       4A    -11.211832     5A    -11.208915     6A    -11.208693
       7A    -11.208004     8A     -1.100836     9A     -1.011262
      10A     -1.003361    11A     -0.919035    12A     -0.850504
      13A     -0.817394    14A     -0.734541    15A     -0.646673
      16A     -0.633256    17A     -0.594714    18A     -0.561944
      19A     -0.558018    20A     -0.556144    21A     -0.545986
      22A     -0.516473    23A     -0.501431    24A     -0.496491
      25A     -0.482240    26A     -0.470887    27A     -0.442217
      28A     -0.434612    29A     -0.432939

  @DF-RHF Final Energy:  -274.49162124647296

   => Energetics <=

    Nuclear Repulsion Energy =            333.3739957370571574
    One-Electron Energy =               -1030.1482391972215282
    Two-Electron Energy =                 422.2826222136914112
    Total Energy =                       -274.4916212464729597
  Basis Set: (AUG-CC-PVTZ AUX)
    Blend: AUG-CC-PVTZ-RI
    Molecular point group: c1

    Geometry (in Angstrom), charge = 0, multiplicity = 1:

       Center              X                  Y                   Z               Mass
    ------------   -----------------  -----------------  -----------------  -----------------
         C           -0.002070573709    -0.417707680839     0.304403492581    12.000000000000
         C            1.252401426291    -0.843070680839    -0.470365507419    12.000000000000
         C           -0.002070573709     1.072357319161     0.677689492581    12.000000000000
         C           -1.256542573709    -0.843070680839    -0.470365507419    12.000000000000
         C            2.588877726291    -0.543252980839     0.249148492581    12.000000000000
         C           -0.002070573709     2.035777319161    -0.508320507419    12.000000000000
         C           -2.575742573709    -0.547128680839     0.239847492581    12.000000000000
         H           -0.002070573709    -0.979502680839     1.252660492581     1.007825032230
         H            1.183142426291    -1.922320680839    -0.658152507419     1.007825032230
         H            1.251159426291    -0.366699680839    -1.458846507419     1.007825032230
         H            0.869634426291     1.279732319161     1.308692492581     1.007825032230
         H           -0.873773573709     1.279733319161     1.308693492581     1.007825032230
         H           -1.255300573709    -0.366698680839    -1.458846507419     1.007825032230
         H           -1.187283573709    -1.922320680839    -0.658152507419     1.007825032230
         H            2.758527426291     0.526786319161     0.321235492581     1.007825032230
         H            3.412998426291    -0.987034680839    -0.304130507419     1.007825032230
         H            2.571805426291    -0.965957680839     1.251621492581     1.007825032230
         H            0.881569426291     1.901497319161    -1.138667507419     1.007825032230
         H           -0.002070573709     3.072628319161    -0.158564507419     1.007825032230
         H           -0.885711573709     1.901496319161    -1.138666507419     1.007825032230
         H           -3.417139573709    -0.987034680839    -0.304130507419     1.007825032230
         H           -2.762668573709     0.526786319161     0.321236492581     1.007825032230
         H           -2.575946573709    -0.965959680839     1.251621492581     1.007825032230

  Basis Set: AUG-CC-PVTZ
    Blend: AUG-CC-PVTZ
  Basis Set: (AUG-CC-PVTZ AUX)
    Blend: AUG-CC-PVTZ-JKFIT
	 Reference Energy          =    -274.4916212464729597 [Eh]
	 Singles Energy            =      -0.0000000000000000 [Eh]
	 Same-Spin Energy          =      -0.2967301591186922 [Eh]
	 Opposite-Spin Energy      =      -1.1071688710075260 [Eh]
	 Correlation Energy        =      -1.4038990301262182 [Eh]
	 Total Energy              =    -275.8955202765991999 [Eh]

	 ================> DF-SCS-MP2 Energies <==================
	-----------------------------------------------------------
	 SCS Same-Spin Scale       =       0.3333333333333333 [-]
	 SCS Opposite-Spin Scale   =       1.2000000000000000 [-]
	 SCS Same-Spin Energy      =      -0.0989100530395640 [Eh]
	 SCS Opposite-Spin Energy  =      -1.3286026452090312 [Eh]
	 SCS Correlation Energy    =      -1.4275126982485953 [Eh]
	 SCS Total Energy          =    -275.9191339447215796 [Eh]
	-----------------------------------------------------------

  Dipole Moment: [D]
     X:    -0.0030      Y:    -0.0666      Z:     0.0282     Total:     0.0724

*** Psi4 exiting successfully. Buy a developer a beer!
