                               Psi4 1.3.2 release

  ==> Input File <==

--------------------------------------------------------------------------
#psi4
#
memory 32 gb

molecule  {
0 1
  C       -0.0300109    -0.4447440     0.2674529
  C        1.2544970    -0.8517210    -0.4669820
  C        0.0000460     1.0638580     0.6808560
  C       -1.2544680    -0.8517020    -0.4669850
  C        2.5736910    -0.5549740     0.2429080
  C       -0.0001100     2.0271580    -0.5052670
  C       -2.5736650    -0.5550660     0.2429470
  H        0.0000220    -0.9878970     1.2560840
  H        1.1855160    -1.9310980    -0.6540960
  H        1.2530210    -0.3759140    -1.4557310
  H        0.8718230     1.2713760     1.3117180
  H       -0.8715850     1.2713570     1.3119230
  H       -1.2530320    -0.3758260    -1.4557010
  H       -1.1854530    -1.9310640    -0.6541770
  H        2.7601620     0.5190550     0.3238500
  H        3.4151550    -0.9947620    -0.3010430
  H        2.5741680    -0.9734350     1.2548350
  H        0.8834690     1.8928260    -1.1356920
  H       -0.0001040     3.0640380    -0.1556120
  H       -0.8838160     1.8927720    -1.1355030
  H       -3.4151150    -0.9948620    -0.3010190
  H       -2.7601920     0.5189470     0.3239600
  H       -2.5741050    -0.9735930     1.2548470
units angstrom
no_reorient  #important for SAPT in psi4, default
symmetry c1  #important for SAPT in psi4, default
}

set PROPERTIES_ORIGIN ["COM"]
properties('MP2/aug-cc-pvtz', properties = ['dipole'])
--------------------------------------------------------------------------

    Molecular point group: c1
  Charge       = 0
  Multiplicity = 1
  Basis Set: AUG-CC-PVTZ
    Blend: AUG-CC-PVTZ
  Basis Set: (AUG-CC-PVTZ AUX)
    Blend: AUG-CC-PVTZ-JKFIT

    Orbital Energies [Eh]
    ---------------------

    Doubly Occupied:

       1A    -11.218696     2A    -11.212900     3A    -11.212693
       4A    -11.211527     5A    -11.210072     6A    -11.209937
       7A    -11.207885     8A     -1.103911     9A     -1.015057
      10A     -1.003558    11A     -0.920000    12A     -0.848380
      13A     -0.820338    14A     -0.731952    15A     -0.647546
      16A     -0.633191    17A     -0.596198    18A     -0.561246
      19A     -0.559513    20A     -0.558143    21A     -0.545807
      22A     -0.516403    23A     -0.500289    24A     -0.495832
      25A     -0.483847    26A     -0.471218    27A     -0.448151
      28A     -0.433090    29A     -0.426314

  @DF-RHF Final Energy:  -274.48850587062554

   => Energetics <=

    Nuclear Repulsion Energy =            333.8116806335376623
    One-Electron Energy =               -1030.9929888035535441
    Two-Electron Energy =                 422.6928022993903369
    Total Energy =                       -274.4885058706255450
  Basis Set: (AUG-CC-PVTZ AUX)
    Blend: AUG-CC-PVTZ-RI
    Molecular point group: c1

    Geometry (in Angstrom), charge = 0, multiplicity = 1:

       Center              X                  Y                   Z               Mass
    ------------   -----------------  -----------------  -----------------  -----------------
         C           -0.026412352236    -0.433683920304     0.270187996399    12.000000000000
         C            1.258095547764    -0.840660920304    -0.464246903601    12.000000000000
         C            0.003644547764     1.074918079696     0.683591096399    12.000000000000
         C           -1.250869452236    -0.840641920304    -0.464249903601    12.000000000000
         C            2.577289547764    -0.543913920304     0.245643096399    12.000000000000
         C            0.003488547764     2.038218079696    -0.502531903601    12.000000000000
         C           -2.570066452236    -0.544005920304     0.245682096399    12.000000000000
         H            0.003620547764    -0.976836920304     1.258819096399     1.007825032230
         H            1.189114547764    -1.920037920304    -0.651360903601     1.007825032230
         H            1.256619547764    -0.364853920304    -1.452995903601     1.007825032230
         H            0.875421547764     1.282436079696     1.314453096399     1.007825032230
         H           -0.867986452236     1.282417079696     1.314658096399     1.007825032230
         H           -1.249433452236    -0.364765920304    -1.452965903601     1.007825032230
         H           -1.181854452236    -1.920003920304    -0.651441903601     1.007825032230
         H            2.763760547764     0.530115079696     0.326585096399     1.007825032230
         H            3.418753547764    -0.983701920304    -0.298307903601     1.007825032230
         H            2.577766547764    -0.962374920304     1.257570096399     1.007825032230
         H            0.887067547764     1.903886079696    -1.132956903601     1.007825032230
         H            0.003494547764     3.075098079696    -0.152876903601     1.007825032230
         H           -0.880217452236     1.903832079696    -1.132767903601     1.007825032230
         H           -3.411516452236    -0.983801920304    -0.298283903601     1.007825032230
         H           -2.756593452236     0.530007079696     0.326695096399     1.007825032230
         H           -2.570506452236    -0.962532920304     1.257582096399     1.007825032230

  Basis Set: AUG-CC-PVTZ
    Blend: AUG-CC-PVTZ
  Basis Set: (AUG-CC-PVTZ AUX)
    Blend: AUG-CC-PVTZ-JKFIT
	 Reference Energy          =    -274.4885058706255450 [Eh]
	 Singles Energy            =      -0.0000000000000000 [Eh]
	 Same-Spin Energy          =      -0.2971223502392994 [Eh]
	 Opposite-Spin Energy      =      -1.1076401950524906 [Eh]
	 Correlation Energy        =      -1.4047625452917900 [Eh]
	 Total Energy              =    -275.8932684159173618 [Eh]

	 ================> DF-SCS-MP2 Energies <==================
	-----------------------------------------------------------
	 SCS Same-Spin Scale       =       0.3333333333333333 [-]
	 SCS Opposite-Spin Scale   =       1.2000000000000000 [-]
	 SCS Same-Spin Energy      =      -0.0990407834130998 [Eh]
	 SCS Opposite-Spin Energy  =      -1.3291682340629887 [Eh]
	 SCS Correlation Energy    =      -1.4282090174760884 [Eh]
	 SCS Total Energy          =    -275.9167148881016374 [Eh]
	-----------------------------------------------------------

  Dipole Moment: [D]
     X:    -0.0115      Y:    -0.0735      Z:     0.0199     Total:     0.0770

*** Psi4 exiting successfully. Buy a developer a beer!
