                               Psi4 1.3.2 release

  ==> Input File <==

--------------------------------------------------------------------------
#psi4
#
memory 32 gb

molecule  {
0 1
  C        0.0000190    -0.4262070     0.3077490
  C        1.2678774    -0.8651020    -0.4857530
  C        0.0000460     1.0638580     0.6808560
  C       -1.2544680    -0.8517020    -0.4669850
  C        2.5736910    -0.5549740     0.2429080
  C       -0.0001100     2.0271580    -0.5052670
  C       -2.5736650    -0.5550660     0.2429470
  H        0.0000220    -0.9878970     1.2560840
  H        1.1855160    -1.9310980    -0.6540960
  H        1.2530210    -0.3759140    -1.4557310
  H        0.8718230     1.2713760     1.3117180
  H       -0.8715850     1.2713570     1.3119230
  H       -1.2530320    -0.3758260    -1.4557010
  H       -1.1854530    -1.9310640    -0.6541770
  H        2.7601620     0.5190550     0.3238500
  H        3.4151550    -0.9947620    -0.3010430
  H        2.5741680    -0.9734350     1.2548350
  H        0.8834690     1.8928260    -1.1356920
  H       -0.0001040     3.0640380    -0.1556120
  H       -0.8838160     1.8927720    -1.1355030
  H       -3.4151150    -0.9948620    -0.3010190
  H       -2.7601920     0.5189470     0.3239600
  H       -2.5741050    -0.9735930     1.2548470
units angstrom
no_reorient  #important for SAPT in psi4, default
symmetry c1  #important for SAPT in psi4, default
}

set PROPERTIES_ORIGIN ["COM"]
properties('MP2/aug-cc-pvtz', properties = ['dipole'])
--------------------------------------------------------------------------

    Molecular point group: c1
  Charge       = 0
  Multiplicity = 1
  Basis Set: AUG-CC-PVTZ
    Blend: AUG-CC-PVTZ
  Basis Set: (AUG-CC-PVTZ AUX)
    Blend: AUG-CC-PVTZ-JKFIT

    Orbital Energies [Eh]
    ---------------------

    Doubly Occupied:

       1A    -11.217941     2A    -11.212246     3A    -11.211801
       4A    -11.211436     5A    -11.208726     6A    -11.208705
       7A    -11.208702     8A     -1.099321     9A     -1.012723
      10A     -1.003996    11A     -0.917345    12A     -0.850524
      13A     -0.817067    14A     -0.734897    15A     -0.647157
      16A     -0.632782    17A     -0.594780    18A     -0.561638
      19A     -0.557804    20A     -0.556196    21A     -0.544737
      22A     -0.517039    23A     -0.501038    24A     -0.496443
      25A     -0.484966    26A     -0.471788    27A     -0.443302
      28A     -0.435018    29A     -0.428468

  @DF-RHF Final Energy:  -274.49141616936106

   => Energetics <=

    Nuclear Repulsion Energy =            333.3087101299011010
    One-Electron Energy =               -1030.0230837970063931
    Two-Electron Energy =                 422.2229574977442326
    Total Energy =                       -274.4914161693610595
  Basis Set: (AUG-CC-PVTZ AUX)
    Blend: AUG-CC-PVTZ-RI
    Molecular point group: c1

    Geometry (in Angstrom), charge = 0, multiplicity = 1:

       Center              X                  Y                   Z               Mass
    ------------   -----------------  -----------------  -----------------  -----------------
         C           -0.001585174401    -0.415764866632     0.307904314299    12.000000000000
         C            1.266273225599    -0.854659866632    -0.485597685701    12.000000000000
         C           -0.001558174401     1.074300133368     0.681011314299    12.000000000000
         C           -1.256072174401    -0.841259866632    -0.466829685701    12.000000000000
         C            2.572086825599    -0.544531866632     0.243063314299    12.000000000000
         C           -0.001714174401     2.037600133368    -0.505111685701    12.000000000000
         C           -2.575269174401    -0.544623866632     0.243102314299    12.000000000000
         H           -0.001582174401    -0.977454866632     1.256239314299     1.007825032230
         H            1.183911825599    -1.920655866632    -0.653940685701     1.007825032230
         H            1.251416825599    -0.365471866632    -1.455575685701     1.007825032230
         H            0.870218825599     1.281818133368     1.311873314299     1.007825032230
         H           -0.873189174401     1.281799133368     1.312078314299     1.007825032230
         H           -1.254636174401    -0.365383866632    -1.455545685701     1.007825032230
         H           -1.187057174401    -1.920621866632    -0.654021685701     1.007825032230
         H            2.758557825599     0.529497133368     0.324005314299     1.007825032230
         H            3.413550825599    -0.984319866632    -0.300887685701     1.007825032230
         H            2.572563825599    -0.962992866632     1.254990314299     1.007825032230
         H            0.881864825599     1.903268133368    -1.135536685701     1.007825032230
         H           -0.001708174401     3.074480133368    -0.155456685701     1.007825032230
         H           -0.885420174401     1.903214133368    -1.135347685701     1.007825032230
         H           -3.416719174401    -0.984419866632    -0.300863685701     1.007825032230
         H           -2.761796174401     0.529389133368     0.324115314299     1.007825032230
         H           -2.575709174401    -0.963150866632     1.255002314299     1.007825032230

  Basis Set: AUG-CC-PVTZ
    Blend: AUG-CC-PVTZ
  Basis Set: (AUG-CC-PVTZ AUX)
    Blend: AUG-CC-PVTZ-JKFIT
	 Reference Energy          =    -274.4914161693610595 [Eh]
	 Singles Energy            =      -0.0000000000000000 [Eh]
	 Same-Spin Energy          =      -0.2966924693464523 [Eh]
	 Opposite-Spin Energy      =      -1.1071101066396087 [Eh]
	 Correlation Energy        =      -1.4038025759860611 [Eh]
	 Total Energy              =    -275.8952187453471083 [Eh]

	 ================> DF-SCS-MP2 Energies <==================
	-----------------------------------------------------------
	 SCS Same-Spin Scale       =       0.3333333333333333 [-]
	 SCS Opposite-Spin Scale   =       1.2000000000000000 [-]
	 SCS Same-Spin Energy      =      -0.0988974897821508 [Eh]
	 SCS Opposite-Spin Energy  =      -1.3285321279675304 [Eh]
	 SCS Correlation Energy    =      -1.4274296177496812 [Eh]
	 SCS Total Energy          =    -275.9188457871107403 [Eh]
	-----------------------------------------------------------

  Dipole Moment: [D]
     X:     0.0044      Y:    -0.0690      Z:     0.0234     Total:     0.0730

*** Psi4 exiting successfully. Buy a developer a beer!
