                               Psi4 1.3.2 release

  ==> Input File <==

--------------------------------------------------------------------------
#psi4
#
memory 32 gb

molecule  {
1 1
  N       -0.4170204    -0.0319134    -0.0181163
  C        0.8493700     0.8287480     0.0834240
  C       -0.4796340    -0.9931830     1.1295180
  C       -1.5938470     0.9107330     0.0921540
  C       -0.4800430    -0.7477380    -1.3048640
  C        2.1497460     0.0545660     0.0050420
  H        0.7750750     1.5510780    -0.7332340
  H        0.7754440     1.3733960     1.0279370
  H       -0.3924205    -0.4662115     2.0798812
  H       -1.4389040    -1.5086650     1.0841090
  H        0.3297530    -1.7131150     1.0308910
  H       -1.5511370     1.6195010    -0.7345430
  H       -2.5082090     0.3207370     0.0328800
  H       -1.5507480     1.4402480     1.0436560
  H       -0.3916640    -0.0274250    -2.1183980
  H        0.3293150    -1.4728840    -1.3521980
  H       -1.4393420    -1.2619000    -1.3629740
  H        2.9611190     0.7829970     0.0783990
  H        2.2763000    -0.6481610     0.8294170
  H        2.2759470    -0.4692660    -0.9431690
units angstrom
no_reorient  #important for SAPT in psi4, default
symmetry c1  #important for SAPT in psi4, default
}

set PROPERTIES_ORIGIN ["COM"]
properties('MP2/aug-cc-pvtz', properties = ['dipole'])
--------------------------------------------------------------------------

    Molecular point group: c1
  Charge       = 1
  Multiplicity = 1
  Basis Set: AUG-CC-PVTZ
    Blend: AUG-CC-PVTZ
  Basis Set: (AUG-CC-PVTZ AUX)
    Blend: AUG-CC-PVTZ-JKFIT

    Orbital Energies [Eh]
    ---------------------

    Doubly Occupied:

       1A    -15.861349     2A    -11.453789     3A    -11.449002
       4A    -11.446976     5A    -11.445184     6A    -11.382435
       7A     -1.500974     8A     -1.212160     9A     -1.170000
      10A     -1.165596    11A     -1.073942    12A     -0.990221
      13A     -0.872304    14A     -0.866127    15A     -0.846902
      16A     -0.796060    17A     -0.767281    18A     -0.742172
      19A     -0.732222    20A     -0.725860    21A     -0.722342
      22A     -0.719390    23A     -0.684479    24A     -0.678667
      25A     -0.671470

  @DF-RHF Final Energy:  -251.81152589711519

   => Energetics <=

    Nuclear Repulsion Energy =            284.0027846356376813
    One-Electron Energy =                -891.6748139576263839
    Two-Electron Energy =                 355.8605034248735137
    Total Energy =                       -251.8115258971151889
  Basis Set: (AUG-CC-PVTZ AUX)
    Blend: AUG-CC-PVTZ-RI
    Molecular point group: c1

    Geometry (in Angstrom), charge = 1, multiplicity = 1:

       Center              X                  Y                   Z               Mass
    ------------   -----------------  -----------------  -----------------  -----------------
         N           -0.416584484911    -0.028590406946    -0.015528317596    14.003074004430
         C            0.849805915089     0.832070993054     0.086011982404    12.000000000000
         C           -0.479198084911    -0.989860006946     1.132105982404    12.000000000000
         C           -1.593411084911     0.914055993054     0.094741982404    12.000000000000
         C           -0.479607084911    -0.744415006946    -1.302276017596    12.000000000000
         C            2.150181915089     0.057888993054     0.007629982404    12.000000000000
         H            0.775510915089     1.554400993054    -0.730646017596     1.007825032230
         H            0.775879915089     1.376718993054     1.030524982404     1.007825032230
         H           -0.391984584911    -0.462888506946     2.082469182404     1.007825032230
         H           -1.438468084911    -1.505342006946     1.086696982404     1.007825032230
         H            0.330188915089    -1.709792006946     1.033478982404     1.007825032230
         H           -1.550701084911     1.622823993054    -0.731955017596     1.007825032230
         H           -2.507773084911     0.324059993054     0.035467982404     1.007825032230
         H           -1.550312084911     1.443570993054     1.046243982404     1.007825032230
         H           -0.391228084911    -0.024102006946    -2.115810017596     1.007825032230
         H            0.329750915089    -1.469561006946    -1.349610017596     1.007825032230
         H           -1.438906084911    -1.258577006946    -1.360386017596     1.007825032230
         H            2.961554915089     0.786319993054     0.080986982404     1.007825032230
         H            2.276735915089    -0.644838006946     0.832004982404     1.007825032230
         H            2.276382915089    -0.465943006946    -0.940581017596     1.007825032230

  Basis Set: AUG-CC-PVTZ
    Blend: AUG-CC-PVTZ
  Basis Set: (AUG-CC-PVTZ AUX)
    Blend: AUG-CC-PVTZ-JKFIT
	 Reference Energy          =    -251.8115258971151889 [Eh]
	 Singles Energy            =      -0.0000000000000000 [Eh]
	 Same-Spin Energy          =      -0.2609941059960442 [Eh]
	 Opposite-Spin Energy      =      -0.9708447314382629 [Eh]
	 Correlation Energy        =      -1.2318388374343070 [Eh]
	 Total Energy              =    -253.0433647345494990 [Eh]

	 ================> DF-SCS-MP2 Energies <==================
	-----------------------------------------------------------
	 SCS Same-Spin Scale       =       0.3333333333333333 [-]
	 SCS Opposite-Spin Scale   =       1.2000000000000000 [-]
	 SCS Same-Spin Energy      =      -0.0869980353320147 [Eh]
	 SCS Opposite-Spin Energy  =      -1.1650136777259155 [Eh]
	 SCS Correlation Energy    =      -1.2520117130579302 [Eh]
	 SCS Total Energy          =    -253.0635376101731140 [Eh]
	-----------------------------------------------------------

  Dipole Moment: [D]
     X:    -1.1764      Y:     0.0091      Z:     0.0412     Total:     1.1772

*** Psi4 exiting successfully. Buy a developer a beer!
