                               Psi4 1.3.2 release

  ==> Input File <==

--------------------------------------------------------------------------
#psi4
#
memory 32 gb

molecule  {
1 1
  N       -0.4143790    -0.0121880    -0.0011520
  C        0.8493700     0.8287480     0.0834240
  C       -0.4839892    -1.0586551     1.2049795
  C       -1.5938470     0.9107330     0.0921540
  C       -0.4800430    -0.7477380    -1.3048640
  C        2.1497460     0.0545660     0.0050420
  H        0.7750750     1.5510780    -0.7332340
  H        0.7754440     1.3733960     1.0279370
  H       -0.3910070    -0.4497550     2.0704360
  H       -1.4389040    -1.5086650     1.0841090
  H        0.3297530    -1.7131150     1.0308910
  H       -1.5511370     1.6195010    -0.7345430
  H       -2.5082090     0.3207370     0.0328800
  H       -1.5507480     1.4402480     1.0436560
  H       -0.3916640    -0.0274250    -2.1183980
  H        0.3293150    -1.4728840    -1.3521980
  H       -1.4393420    -1.2619000    -1.3629740
  H        2.9611190     0.7829970     0.0783990
  H        2.2763000    -0.6481610     0.8294170
  H        2.2759470    -0.4692660    -0.9431690
units angstrom
no_reorient  #important for SAPT in psi4, default
symmetry c1  #important for SAPT in psi4, default
}

set PROPERTIES_ORIGIN ["COM"]
properties('MP2/aug-cc-pvtz', properties = ['dipole'])
--------------------------------------------------------------------------

    Molecular point group: c1
  Charge       = 1
  Multiplicity = 1
  Basis Set: AUG-CC-PVTZ
    Blend: AUG-CC-PVTZ
  Basis Set: (AUG-CC-PVTZ AUX)
    Blend: AUG-CC-PVTZ-JKFIT

    Orbital Energies [Eh]
    ---------------------

    Doubly Occupied:

       1A    -15.855629     2A    -11.452223     3A    -11.449791
       4A    -11.445332     5A    -11.444394     6A    -11.381521
       7A     -1.482672     8A     -1.208964     9A     -1.165970
      10A     -1.161971    11A     -1.074552    12A     -0.987055
      13A     -0.866617    14A     -0.860238    15A     -0.840495
      16A     -0.797056    17A     -0.773931    18A     -0.750826
      19A     -0.737977    20A     -0.732024    21A     -0.720117
      22A     -0.706290    23A     -0.684848    24A     -0.675518
      25A     -0.666858

  @DF-RHF Final Energy:  -251.80532069054169

   => Energetics <=

    Nuclear Repulsion Energy =            282.2390264022667452
    One-Electron Energy =                -888.2429536354308084
    Two-Electron Energy =                 354.1986065426223718
    Total Energy =                       -251.8053206905416914
  Basis Set: (AUG-CC-PVTZ AUX)
    Blend: AUG-CC-PVTZ-RI
    Molecular point group: c1

    Geometry (in Angstrom), charge = 1, multiplicity = 1:

       Center              X                  Y                   Z               Mass
    ------------   -----------------  -----------------  -----------------  -----------------
         N           -0.413785898359    -0.003271441955    -0.011429043991    14.003074004430
         C            0.849963101641     0.837664558045     0.073146956009    12.000000000000
         C           -0.483396098359    -1.049738541955     1.194702456009    12.000000000000
         C           -1.593253898359     0.919649558045     0.081876956009    12.000000000000
         C           -0.479449898359    -0.738821441955    -1.315141043991    12.000000000000
         C            2.150339101641     0.063482558045    -0.005235043991    12.000000000000
         H            0.775668101641     1.559994558045    -0.743511043991     1.007825032230
         H            0.776037101641     1.382312558045     1.017659956009     1.007825032230
         H           -0.390413898359    -0.440838441955     2.060158956009     1.007825032230
         H           -1.438310898359    -1.499748441955     1.073831956009     1.007825032230
         H            0.330346101641    -1.704198441955     1.020613956009     1.007825032230
         H           -1.550543898359     1.628417558045    -0.744820043991     1.007825032230
         H           -2.507615898359     0.329653558045     0.022602956009     1.007825032230
         H           -1.550154898359     1.449164558045     1.033378956009     1.007825032230
         H           -0.391070898359    -0.018508441955    -2.128675043991     1.007825032230
         H            0.329908101641    -1.463967441955    -1.362475043991     1.007825032230
         H           -1.438748898359    -1.252983441955    -1.373251043991     1.007825032230
         H            2.961712101641     0.791913558045     0.068121956009     1.007825032230
         H            2.276893101641    -0.639244441955     0.819139956009     1.007825032230
         H            2.276540101641    -0.460349441955    -0.953446043991     1.007825032230

  Basis Set: AUG-CC-PVTZ
    Blend: AUG-CC-PVTZ
  Basis Set: (AUG-CC-PVTZ AUX)
    Blend: AUG-CC-PVTZ-JKFIT
	 Reference Energy          =    -251.8053206905416914 [Eh]
	 Singles Energy            =      -0.0000000000000000 [Eh]
	 Same-Spin Energy          =      -0.2605116911471962 [Eh]
	 Opposite-Spin Energy      =      -0.9712745884306353 [Eh]
	 Correlation Energy        =      -1.2317862795778316 [Eh]
	 Total Energy              =    -253.0371069701195097 [Eh]

	 ================> DF-SCS-MP2 Energies <==================
	-----------------------------------------------------------
	 SCS Same-Spin Scale       =       0.3333333333333333 [-]
	 SCS Opposite-Spin Scale   =       1.2000000000000000 [-]
	 SCS Same-Spin Energy      =      -0.0868372303823987 [Eh]
	 SCS Opposite-Spin Energy  =      -1.1655295061167623 [Eh]
	 SCS Correlation Energy    =      -1.2523667364991611 [Eh]
	 SCS Total Energy          =    -253.0576874270408609 [Eh]
	-----------------------------------------------------------

  Dipole Moment: [D]
     X:    -1.1976      Y:    -0.1257      Z:     0.1007     Total:     1.2084

*** Psi4 exiting successfully. Buy a developer a beer!
