                               Psi4 1.3.2 release

  ==> Input File <==

--------------------------------------------------------------------------
#psi4
#
memory 32 gb

molecule  {
1 1
  N       -0.4143790    -0.0121880    -0.0011520
  C        0.6831228     0.7181222     0.0722980
  C       -0.4796340    -0.9931830     1.1295180
  C       -1.5938470     0.9107330     0.0921540
  C       -0.4800430    -0.7477380    -1.3048640
  C        2.1497460     0.0545660     0.0050420
  H        0.7750750     1.5510780    -0.7332340
  H        0.7754440     1.3733960     1.0279370
  H       -0.3910070    -0.4497550     2.0704360
  H       -1.4389040    -1.5086650     1.0841090
  H        0.3297530    -1.7131150     1.0308910
  H       -1.5511370     1.6195010    -0.7345430
  H       -2.5082090     0.3207370     0.0328800
  H       -1.5507480     1.4402480     1.0436560
  H       -0.3916640    -0.0274250    -2.1183980
  H        0.3293150    -1.4728840    -1.3521980
  H       -1.4393420    -1.2619000    -1.3629740
  H        2.9611190     0.7829970     0.0783990
  H        2.2763000    -0.6481610     0.8294170
  H        2.2759470    -0.4692660    -0.9431690
units angstrom
no_reorient  #important for SAPT in psi4, default
symmetry c1  #important for SAPT in psi4, default
}

set PROPERTIES_ORIGIN ["COM"]
properties('MP2/aug-cc-pvtz', properties = ['dipole'])
--------------------------------------------------------------------------

    Molecular point group: c1
  Charge       = 1
  Multiplicity = 1
  Basis Set: AUG-CC-PVTZ
    Blend: AUG-CC-PVTZ
  Basis Set: (AUG-CC-PVTZ AUX)
    Blend: AUG-CC-PVTZ-JKFIT

    Orbital Energies [Eh]
    ---------------------

    Doubly Occupied:

       1A    -15.869083     2A    -11.453592     3A    -11.453585
       4A    -11.453566     5A    -11.448399     6A    -11.383994
       7A     -1.552254     8A     -1.202086     9A     -1.178832
      10A     -1.178644    11A     -1.097115    12A     -0.982585
      13A     -0.885754    14A     -0.881584    15A     -0.856636
      16A     -0.787491    17A     -0.775671    18A     -0.750530
      19A     -0.735629    20A     -0.729029    21A     -0.727836
      22A     -0.721999    23A     -0.701232    24A     -0.642658
      25A     -0.633201

  @DF-RHF Final Energy:  -251.77124201180297

   => Energetics <=

    Nuclear Repulsion Energy =            287.0943625263439571
    One-Electron Energy =                -897.5652442467734318
    Two-Electron Energy =                 358.6996397086265347
    Total Energy =                       -251.7712420118029399
  Basis Set: (AUG-CC-PVTZ AUX)
    Blend: AUG-CC-PVTZ-RI
    Molecular point group: c1

    Geometry (in Angstrom), charge = 1, multiplicity = 1:

       Center              X                  Y                   Z               Mass
    ------------   -----------------  -----------------  -----------------  -----------------
         N           -0.391737934040     0.002878010559     0.000363250319    14.003074004430
         C            0.705763865960     0.733188210559     0.073813250319    12.000000000000
         C           -0.456992934040    -0.978116989441     1.131033250319    12.000000000000
         C           -1.571205934040     0.925799010559     0.093669250319    12.000000000000
         C           -0.457401934040    -0.732671989441    -1.303348749681    12.000000000000
         C            2.172387065960     0.069632010559     0.006557250319    12.000000000000
         H            0.797716065960     1.566144010559    -0.731718749681     1.007825032230
         H            0.798085065960     1.388462010559     1.029452250319     1.007825032230
         H           -0.368365934040    -0.434688989441     2.071951250319     1.007825032230
         H           -1.416262934040    -1.493598989441     1.085624250319     1.007825032230
         H            0.352394065960    -1.698048989441     1.032406250319     1.007825032230
         H           -1.528495934040     1.634567010559    -0.733027749681     1.007825032230
         H           -2.485567934040     0.335803010559     0.034395250319     1.007825032230
         H           -1.528106934040     1.455314010559     1.045171250319     1.007825032230
         H           -0.369022934040    -0.012358989441    -2.116882749681     1.007825032230
         H            0.351956065960    -1.457817989441    -1.350682749681     1.007825032230
         H           -1.416700934040    -1.246833989441    -1.361458749681     1.007825032230
         H            2.983760065960     0.798063010559     0.079914250319     1.007825032230
         H            2.298941065960    -0.633094989441     0.830932250319     1.007825032230
         H            2.298588065960    -0.454199989441    -0.941653749681     1.007825032230

  Basis Set: AUG-CC-PVTZ
    Blend: AUG-CC-PVTZ
  Basis Set: (AUG-CC-PVTZ AUX)
    Blend: AUG-CC-PVTZ-JKFIT
	 Reference Energy          =    -251.7712420118029684 [Eh]
	 Singles Energy            =      -0.0000000000000000 [Eh]
	 Same-Spin Energy          =      -0.2629979550465514 [Eh]
	 Opposite-Spin Energy      =      -0.9730524620917085 [Eh]
	 Correlation Energy        =      -1.2360504171382598 [Eh]
	 Total Energy              =    -253.0072924289412413 [Eh]

	 ================> DF-SCS-MP2 Energies <==================
	-----------------------------------------------------------
	 SCS Same-Spin Scale       =       0.3333333333333333 [-]
	 SCS Opposite-Spin Scale   =       1.2000000000000000 [-]
	 SCS Same-Spin Energy      =      -0.0876659850155171 [Eh]
	 SCS Opposite-Spin Energy  =      -1.1676629545100501 [Eh]
	 SCS Correlation Energy    =      -1.2553289395255671 [Eh]
	 SCS Total Energy          =    -253.0265709513285231 [Eh]
	-----------------------------------------------------------

  Dipole Moment: [D]
     X:    -1.4901      Y:    -0.1826      Z:    -0.0181     Total:     1.5013

*** Psi4 exiting successfully. Buy a developer a beer!
