                               Psi4 1.4a3.dev225

  ==> Input File <==

--------------------------------------------------------------------------
#psi4
#
memory 32 gb

molecule  {
1 1
  N        0.4178150    -0.0006520    -0.0000630
  C       -0.8570640     0.8239850    -0.0009520
  C        0.4748401    -0.9318564    -1.2361314
  C        1.5793660     0.9480380    -0.0539900
  C        0.5237060    -0.8216500     1.2493860
  C       -2.1433350     0.0208080     0.0021430
  H       -0.7927630     1.4633150     0.8819470
  H       -0.7964710     1.4567520    -0.8889780
  H        0.3340020    -0.2978660    -2.0924670
  H        1.4489560    -1.3852540    -1.2134470
  H       -0.3098240    -1.6525160    -1.1165640
  H        1.5295780     1.6068410     0.8121160
  H        2.5017250     0.3690020    -0.0365590
  H        1.5128670     1.5259610    -0.9748480
  H        0.4511560    -0.1564930     2.1092880
  H       -0.2781350    -1.5558310     1.2658670
  H        1.4885380    -1.3271890     1.2430600
  H       -2.9659450     0.7401210     0.0203810
  H       -2.2593290    -0.5863990    -0.8962730
  H       -2.2430950    -0.6122210     0.8847330
units angstrom
no_reorient  #important for SAPT in psi4, default
symmetry c1  #important for SAPT in psi4, default
}

set PROPERTIES_ORIGIN ["COM"]
properties('MP2/aug-cc-pvtz', properties = ['dipole'])
--------------------------------------------------------------------------

    Molecular point group: c1
  Charge       = 1
  Multiplicity = 1
  Basis Set: AUG-CC-PVTZ
    Blend: AUG-CC-PVTZ
  Basis Set: (AUG-CC-PVTZ AUX)
    Blend: AUG-CC-PVTZ-JKFIT

    Orbital Energies [Eh]
    ---------------------

    Doubly Occupied:

       1A    -15.858322     2A    -11.450640     3A    -11.449362
       4A    -11.446712     5A    -11.445929     6A    -11.382114
       7A     -1.491589     8A     -1.210840     9A     -1.166404
      10A     -1.164765    11A     -1.075505    12A     -0.988233
      13A     -0.869145    14A     -0.863755    15A     -0.842907
      16A     -0.796467    17A     -0.771198    18A     -0.744989
      19A     -0.734441    20A     -0.732235    21A     -0.721851
      22A     -0.713418    23A     -0.684914    24A     -0.678839
      25A     -0.669607

  @DF-RHF Final Energy:  -251.81039410647497

   => Energetics <=

    Nuclear Repulsion Energy =            283.3150767098197207
    One-Electron Energy =                -890.3425769209211467
    Two-Electron Energy =                 355.2171061046263958
    Total Energy =                       -251.8103941064749733
  Basis Set: (AUG-CC-PVTZ AUX)
    Blend: AUG-CC-PVTZ-RI
    Molecular point group: c1

    Geometry (in Angstrom), charge = 1, multiplicity = 1:

       Center              X                  Y                   Z               Mass
    ------------   -----------------  -----------------  -----------------  -----------------
         N            0.413285025834    -0.001194101972     0.005352485505    14.003074004430
         C           -0.861593974166     0.823442898028     0.004463485505    12.000000000000
         C            0.470310125834    -0.932398501972    -1.230715914495    12.000000000000
         C            1.574836025834     0.947495898028    -0.048574514495    12.000000000000
         C            0.519176025834    -0.822192101972     1.254801485505    12.000000000000
         C           -2.147864974166     0.020265898028     0.007558485505    12.000000000000
         H           -0.797292974166     1.462772898028     0.887362485505     1.007825032230
         H           -0.801000974166     1.456209898028    -0.883562514495     1.007825032230
         H            0.329472025834    -0.298408101972    -2.087051514495     1.007825032230
         H            1.444426025834    -1.385796101972    -1.208031514495     1.007825032230
         H           -0.314353974166    -1.653058101972    -1.111148514495     1.007825032230
         H            1.525048025834     1.606298898028     0.817531485505     1.007825032230
         H            2.497195025834     0.368459898028    -0.031143514495     1.007825032230
         H            1.508337025834     1.525418898028    -0.969432514495     1.007825032230
         H            0.446626025834    -0.157035101972     2.114703485505     1.007825032230
         H           -0.282664974166    -1.556373101972     1.271282485505     1.007825032230
         H            1.484008025834    -1.327731101972     1.248475485505     1.007825032230
         H           -2.970474974166     0.739578898028     0.025796485505     1.007825032230
         H           -2.263858974166    -0.586941101972    -0.890857514495     1.007825032230
         H           -2.247624974166    -0.612763101972     0.890148485505     1.007825032230

  Basis Set: AUG-CC-PVTZ
    Blend: AUG-CC-PVTZ
  Basis Set: (AUG-CC-PVTZ AUX)
    Blend: AUG-CC-PVTZ-JKFIT
	 Reference Energy          =    -251.8103941064749733 [Eh]
	 Singles Energy            =      -0.0000000000000000 [Eh]
	 Same-Spin Energy          =      -0.2607211106043116 [Eh]
	 Opposite-Spin Energy      =      -0.9710141491691179 [Eh]
	 Correlation Energy        =      -1.2317352597734295 [Eh]
	 Total Energy              =    -253.0421293662483890 [Eh]

	 ================> DF-SCS-MP2 Energies <==================
	-----------------------------------------------------------
	 SCS Same-Spin Scale       =       0.3333333333333333 [-]
	 SCS Opposite-Spin Scale   =       1.2000000000000000 [-]
	 SCS Same-Spin Energy      =      -0.0869070368681039 [Eh]
	 SCS Opposite-Spin Energy  =      -1.1652169790029414 [Eh]
	 SCS Correlation Energy    =      -1.2521240158710452 [Eh]
	 SCS Total Energy          =    -253.0625181223460061 [Eh]
	-----------------------------------------------------------

  Dipole Moment: [D]
     X:     1.1974      Y:    -0.0590      Z:    -0.0543     Total:     1.2001

*** Psi4 exiting successfully. Buy a developer a beer!
