                               Psi4 1.3.2 release

  ==> Input File <==

--------------------------------------------------------------------------
#psi4
#
memory 32 gb

molecule  {
1 1
  N       -0.4295983     0.0165737    -0.0430711
  C        0.8493700     0.8287480     0.0834240
  C       -0.4796340    -0.9931830     1.1295180
  C       -1.5938470     0.9107330     0.0921540
  C       -0.4800430    -0.7477380    -1.3048640
  C        2.1497460     0.0545660     0.0050420
  H        0.7414993     1.5357439    -0.7428516
  H        0.7754440     1.3733960     1.0279370
  H       -0.3910070    -0.4497550     2.0704360
  H       -1.4389040    -1.5086650     1.0841090
  H        0.3297530    -1.7131150     1.0308910
  H       -1.5511370     1.6195010    -0.7345430
  H       -2.5082090     0.3207370     0.0328800
  H       -1.5507480     1.4402480     1.0436560
  H       -0.3916640    -0.0274250    -2.1183980
  H        0.3293150    -1.4728840    -1.3521980
  H       -1.4393420    -1.2619000    -1.3629740
  H        2.9611190     0.7829970     0.0783990
  H        2.2763000    -0.6481610     0.8294170
  H        2.2759470    -0.4692660    -0.9431690
units angstrom
no_reorient  #important for SAPT in psi4, default
symmetry c1  #important for SAPT in psi4, default
}

set PROPERTIES_ORIGIN ["COM"]
properties('MP2/aug-cc-pvtz', properties = ['dipole'])
--------------------------------------------------------------------------

    Molecular point group: c1
  Charge       = 1
  Multiplicity = 1
  Basis Set: AUG-CC-PVTZ
    Blend: AUG-CC-PVTZ
  Basis Set: (AUG-CC-PVTZ AUX)
    Blend: AUG-CC-PVTZ-JKFIT

    Orbital Energies [Eh]
    ---------------------

    Doubly Occupied:

       1A    -15.860646     2A    -11.452923     3A    -11.450962
       4A    -11.445890     5A    -11.445435     6A    -11.383804
       7A     -1.501680     8A     -1.213285     9A     -1.172096
      10A     -1.161202    11A     -1.077492    12A     -0.989564
      13A     -0.870028    14A     -0.868651    15A     -0.845775
      16A     -0.796849    17A     -0.770120    18A     -0.741439
      19A     -0.733472    20A     -0.726180    21A     -0.723289
      22A     -0.709720    23A     -0.692319    24A     -0.679261
      25A     -0.669013

  @DF-RHF Final Energy:  -251.80880723637534

   => Energetics <=

    Nuclear Repulsion Energy =            284.0572702608353097
    One-Electron Energy =                -891.7699656921543010
    Two-Electron Energy =                 355.9038881949435904
    Total Energy =                       -251.8088072363753440
  Basis Set: (AUG-CC-PVTZ AUX)
    Blend: AUG-CC-PVTZ-RI
    Molecular point group: c1

    Geometry (in Angstrom), charge = 1, multiplicity = 1:

       Center              X                  Y                   Z               Mass
    ------------   -----------------  -----------------  -----------------  -----------------
         N           -0.426795605621     0.012178166491    -0.036299200927    14.003074004430
         C            0.852172694379     0.824352466491     0.090195899073    12.000000000000
         C           -0.476831305621    -0.997578533509     1.136289899073    12.000000000000
         C           -1.591044305621     0.906337466491     0.098925899073    12.000000000000
         C           -0.477240305621    -0.752133533509    -1.298092100927    12.000000000000
         C            2.152548694379     0.050170466491     0.011813899073    12.000000000000
         H            0.744301994379     1.531348366491    -0.736079700927     1.007825032230
         H            0.778246694379     1.369000466491     1.034708899073     1.007825032230
         H           -0.388204305621    -0.454150533509     2.077207899073     1.007825032230
         H           -1.436101305621    -1.513060533509     1.090880899073     1.007825032230
         H            0.332555694379    -1.717510533509     1.037662899073     1.007825032230
         H           -1.548334305621     1.615105466491    -0.727771100927     1.007825032230
         H           -2.505406305621     0.316341466491     0.039651899073     1.007825032230
         H           -1.547945305621     1.435852466491     1.050427899073     1.007825032230
         H           -0.388861305621    -0.031820533509    -2.111626100927     1.007825032230
         H            0.332117694379    -1.477279533509    -1.345426100927     1.007825032230
         H           -1.436539305621    -1.266295533509    -1.356202100927     1.007825032230
         H            2.963921694379     0.778601466491     0.085170899073     1.007825032230
         H            2.279102694379    -0.652556533509     0.836188899073     1.007825032230
         H            2.278749694379    -0.473661533509    -0.936397100927     1.007825032230

  Basis Set: AUG-CC-PVTZ
    Blend: AUG-CC-PVTZ
  Basis Set: (AUG-CC-PVTZ AUX)
    Blend: AUG-CC-PVTZ-JKFIT
	 Reference Energy          =    -251.8088072363753440 [Eh]
	 Singles Energy            =      -0.0000000000000000 [Eh]
	 Same-Spin Energy          =      -0.2611856080576942 [Eh]
	 Opposite-Spin Energy      =      -0.9712004146467504 [Eh]
	 Correlation Energy        =      -1.2323860227044445 [Eh]
	 Total Energy              =    -253.0411932590797903 [Eh]

	 ================> DF-SCS-MP2 Energies <==================
	-----------------------------------------------------------
	 SCS Same-Spin Scale       =       0.3333333333333333 [-]
	 SCS Opposite-Spin Scale   =       1.2000000000000000 [-]
	 SCS Same-Spin Energy      =      -0.0870618693525647 [Eh]
	 SCS Opposite-Spin Energy  =      -1.1654404975761006 [Eh]
	 SCS Correlation Energy    =      -1.2525023669286652 [Eh]
	 SCS Total Energy          =    -253.0613096033040108 [Eh]
	-----------------------------------------------------------

  Dipole Moment: [D]
     X:    -1.1423      Y:    -0.1184      Z:     0.0972     Total:     1.1525

*** Psi4 exiting successfully. Buy a developer a beer!
