                               Psi4 1.3.2 release

  ==> Input File <==

--------------------------------------------------------------------------
#psi4
#
memory 32 gb

molecule  {
1 1
  N       -0.4289369     0.0098838     0.0010779
  C        0.8493700     0.8287480     0.0834240
  C       -0.4796340    -0.9931830     1.1295180
  C       -1.5938470     0.9107330     0.0921540
  C       -0.4800430    -0.7477380    -1.3048640
  C        2.1631284     0.0772643     0.0073292
  H        0.7750750     1.5510780    -0.7332340
  H        0.7754440     1.3733960     1.0279370
  H       -0.3910070    -0.4497550     2.0704360
  H       -1.4389040    -1.5086650     1.0841090
  H        0.3297530    -1.7131150     1.0308910
  H       -1.5511370     1.6195010    -0.7345430
  H       -2.5082090     0.3207370     0.0328800
  H       -1.5507480     1.4402480     1.0436560
  H       -0.3916640    -0.0274250    -2.1183980
  H        0.3293150    -1.4728840    -1.3521980
  H       -1.4393420    -1.2619000    -1.3629740
  H        2.9611190     0.7829970     0.0783990
  H        2.2763000    -0.6481610     0.8294170
  H        2.2759470    -0.4692660    -0.9431690
units angstrom
no_reorient  #important for SAPT in psi4, default
symmetry c1  #important for SAPT in psi4, default
}

set PROPERTIES_ORIGIN ["COM"]
properties('MP2/aug-cc-pvtz', properties = ['dipole'])
--------------------------------------------------------------------------

    Molecular point group: c1
  Charge       = 1
  Multiplicity = 1
  Basis Set: AUG-CC-PVTZ
    Blend: AUG-CC-PVTZ
  Basis Set: (AUG-CC-PVTZ AUX)
    Blend: AUG-CC-PVTZ-JKFIT

    Orbital Energies [Eh]
    ---------------------

    Doubly Occupied:

       1A    -15.862163     2A    -11.452140     3A    -11.448472
       4A    -11.448460     5A    -11.446181     6A    -11.383310
       7A     -1.501465     8A     -1.213172     9A     -1.169026
      10A     -1.164579    11A     -1.077380    12A     -0.989610
      13A     -0.870783    14A     -0.867958    15A     -0.846364
      16A     -0.794873    17A     -0.769764    18A     -0.739237
      19A     -0.735609    20A     -0.726202    21A     -0.723568
      22A     -0.712999    23A     -0.694213    24A     -0.680190
      25A     -0.665810

  @DF-RHF Final Energy:  -251.81089959322964

   => Energetics <=

    Nuclear Repulsion Energy =            283.8509272897302367
    One-Electron Energy =                -891.3566026803570139
    Two-Electron Energy =                 355.6947757973970852
    Total Energy =                       -251.8108995932296352
  Basis Set: (AUG-CC-PVTZ AUX)
    Blend: AUG-CC-PVTZ-RI
    Molecular point group: c1

    Geometry (in Angstrom), charge = 1, multiplicity = 1:

       Center              X                  Y                   Z               Mass
    ------------   -----------------  -----------------  -----------------  -----------------
         N           -0.428445893252     0.003284785137     0.000412034322    14.003074004430
         C            0.849861006748     0.822148985137     0.082758134322    12.000000000000
         C           -0.479142993252    -0.999782014863     1.128852134322    12.000000000000
         C           -1.593355993252     0.904133985137     0.091488134322    12.000000000000
         C           -0.479551993252    -0.754337014863    -1.305529865678    12.000000000000
         C            2.163619406748     0.070665285137     0.006663334322    12.000000000000
         H            0.775566006748     1.544478985137    -0.733899865678     1.007825032230
         H            0.775935006748     1.366796985137     1.027271134322     1.007825032230
         H           -0.390515993252    -0.456354014863     2.069770134322     1.007825032230
         H           -1.438412993252    -1.515264014863     1.083443134322     1.007825032230
         H            0.330244006748    -1.719714014863     1.030225134322     1.007825032230
         H           -1.550645993252     1.612901985137    -0.735208865678     1.007825032230
         H           -2.507717993252     0.314137985137     0.032214134322     1.007825032230
         H           -1.550256993252     1.433648985137     1.042990134322     1.007825032230
         H           -0.391172993252    -0.034024014863    -2.119063865678     1.007825032230
         H            0.329806006748    -1.479483014863    -1.352863865678     1.007825032230
         H           -1.438850993252    -1.268499014863    -1.363639865678     1.007825032230
         H            2.961610006748     0.776397985137     0.077733134322     1.007825032230
         H            2.276791006748    -0.654760014863     0.828751134322     1.007825032230
         H            2.276438006748    -0.475865014863    -0.943834865678     1.007825032230

  Basis Set: AUG-CC-PVTZ
    Blend: AUG-CC-PVTZ
  Basis Set: (AUG-CC-PVTZ AUX)
    Blend: AUG-CC-PVTZ-JKFIT
	 Reference Energy          =    -251.8108995932296352 [Eh]
	 Singles Energy            =      -0.0000000000000000 [Eh]
	 Same-Spin Energy          =      -0.2609307820424461 [Eh]
	 Opposite-Spin Energy      =      -0.9707992441006064 [Eh]
	 Correlation Energy        =      -1.2317300261430524 [Eh]
	 Total Energy              =    -253.0426296193726898 [Eh]

	 ================> DF-SCS-MP2 Energies <==================
	-----------------------------------------------------------
	 SCS Same-Spin Scale       =       0.3333333333333333 [-]
	 SCS Opposite-Spin Scale   =       1.2000000000000000 [-]
	 SCS Same-Spin Energy      =      -0.0869769273474820 [Eh]
	 SCS Opposite-Spin Energy  =      -1.1649590929207276 [Eh]
	 SCS Correlation Energy    =      -1.2519360202682097 [Eh]
	 SCS Total Energy          =    -253.0628356134978389 [Eh]
	-----------------------------------------------------------

  Dipole Moment: [D]
     X:    -1.1733      Y:    -0.1126      Z:    -0.0111     Total:     1.1788

*** Psi4 exiting successfully. Buy a developer a beer!
