                               Psi4 1.3.2 release

  ==> Input File <==

--------------------------------------------------------------------------
#psi4
#
memory 32 gb

molecule  {
1 1
  N       -0.4196809    -0.0519317    -0.0347310
  C        0.8493700     0.8287480     0.0834240
  C       -0.4796340    -0.9931830     1.1295180
  C       -1.5938470     0.9107330     0.0921540
  C       -0.4800430    -0.7477380    -1.3048640
  C        2.1497460     0.0545660     0.0050420
  H        0.7750750     1.5510780    -0.7332340
  H        0.7754440     1.3733960     1.0279370
  H       -0.3938606    -0.4828285     2.0890370
  H       -1.4389040    -1.5086650     1.0841090
  H        0.3297530    -1.7131150     1.0308910
  H       -1.5511370     1.6195010    -0.7345430
  H       -2.5082090     0.3207370     0.0328800
  H       -1.5507480     1.4402480     1.0436560
  H       -0.3916640    -0.0274250    -2.1183980
  H        0.3293150    -1.4728840    -1.3521980
  H       -1.4393420    -1.2619000    -1.3629740
  H        2.9611190     0.7829970     0.0783990
  H        2.2763000    -0.6481610     0.8294170
  H        2.2759470    -0.4692660    -0.9431690
units angstrom
no_reorient  #important for SAPT in psi4, default
symmetry c1  #important for SAPT in psi4, default
}

set PROPERTIES_ORIGIN ["COM"]
properties('MP2/aug-cc-pvtz', properties = ['dipole'])
--------------------------------------------------------------------------

    Molecular point group: c1
  Charge       = 1
  Multiplicity = 1
  Basis Set: AUG-CC-PVTZ
    Blend: AUG-CC-PVTZ
  Basis Set: (AUG-CC-PVTZ AUX)
    Blend: AUG-CC-PVTZ-JKFIT

    Orbital Energies [Eh]
    ---------------------

    Doubly Occupied:

       1A    -15.861131     2A    -11.455109     3A    -11.449973
       4A    -11.446799     5A    -11.443125     6A    -11.382353
       7A     -1.501406     8A     -1.211842     9A     -1.173165
      10A     -1.164366    11A     -1.071519    12A     -0.990760
      13A     -0.873324    14A     -0.865625    15A     -0.847576
      16A     -0.796392    17A     -0.766308    18A     -0.744780
      19A     -0.732115    20A     -0.725789    21A     -0.724104
      22A     -0.717985    23A     -0.682768    24A     -0.676228
      25A     -0.671216

  @DF-RHF Final Energy:  -251.80895390566505

   => Energetics <=

    Nuclear Repulsion Energy =            283.9615559055541780
    One-Electron Energy =                -891.5894996659339995
    Two-Electron Energy =                 355.8189898547148005
    Total Energy =                       -251.8089539056650210
  Basis Set: (AUG-CC-PVTZ AUX)
    Blend: AUG-CC-PVTZ-RI
    Molecular point group: c1

    Geometry (in Angstrom), charge = 1, multiplicity = 1:

       Center              X                  Y                   Z               Mass
    ------------   -----------------  -----------------  -----------------  -----------------
         N           -0.418805699991    -0.045237285804    -0.029607292090    14.003074004430
         C            0.850245200009     0.835442414196     0.088547707910    12.000000000000
         C           -0.478758799991    -0.986488585804     1.134641707910    12.000000000000
         C           -1.592971799991     0.917427414196     0.097277707910    12.000000000000
         C           -0.479167799991    -0.741043585804    -1.299740292090    12.000000000000
         C            2.150621200009     0.061260414196     0.010165707910    12.000000000000
         H            0.775950200009     1.557772414196    -0.728110292090     1.007825032230
         H            0.776319200009     1.380090414196     1.033060707910     1.007825032230
         H           -0.392985399991    -0.476134085804     2.094160707910     1.007825032230
         H           -1.438028799991    -1.501970585804     1.089232707910     1.007825032230
         H            0.330628200009    -1.706420585804     1.036014707910     1.007825032230
         H           -1.550261799991     1.626195414196    -0.729419292090     1.007825032230
         H           -2.507333799991     0.327431414196     0.038003707910     1.007825032230
         H           -1.549872799991     1.446942414196     1.048779707910     1.007825032230
         H           -0.390788799991    -0.020730585804    -2.113274292090     1.007825032230
         H            0.330190200009    -1.466189585804    -1.347074292090     1.007825032230
         H           -1.438466799991    -1.255205585804    -1.357850292090     1.007825032230
         H            2.961994200009     0.789691414196     0.083522707910     1.007825032230
         H            2.277175200009    -0.641466585804     0.834540707910     1.007825032230
         H            2.276822200009    -0.462571585804    -0.938045292090     1.007825032230

  Basis Set: AUG-CC-PVTZ
    Blend: AUG-CC-PVTZ
  Basis Set: (AUG-CC-PVTZ AUX)
    Blend: AUG-CC-PVTZ-JKFIT
	 Reference Energy          =    -251.8089539056650494 [Eh]
	 Singles Energy            =      -0.0000000000000000 [Eh]
	 Same-Spin Energy          =      -0.2610977483136181 [Eh]
	 Opposite-Spin Energy      =      -0.9710244910731926 [Eh]
	 Correlation Energy        =      -1.2321222393868108 [Eh]
	 Total Energy              =    -253.0410761450518464 [Eh]

	 ================> DF-SCS-MP2 Energies <==================
	-----------------------------------------------------------
	 SCS Same-Spin Scale       =       0.3333333333333333 [-]
	 SCS Opposite-Spin Scale   =       1.2000000000000000 [-]
	 SCS Same-Spin Energy      =      -0.0870325827712060 [Eh]
	 SCS Opposite-Spin Energy  =      -1.1652293892878309 [Eh]
	 SCS Correlation Energy    =      -1.2522619720590369 [Eh]
	 SCS Total Energy          =    -253.0612158777240950 [Eh]
	-----------------------------------------------------------

  Dipole Moment: [D]
     X:    -1.1662      Y:     0.0584      Z:     0.0851     Total:     1.1707

*** Psi4 exiting successfully. Buy a developer a beer!
