                               Psi4 1.3.2 release

  ==> Input File <==

--------------------------------------------------------------------------
#psi4
#
memory 32 gb

molecule  {
1 1
  N       -0.4143790    -0.0121880    -0.0011520
  C        0.8344271     0.8505638     0.0856271
  C       -0.4796340    -0.9931830     1.1295180
  C       -1.5774781     0.9310734     0.0942024
  C       -0.4800430    -0.7477380    -1.3048640
  C        2.1497460     0.0545660     0.0050420
  H        0.7750750     1.5510780    -0.7332340
  H        0.7754440     1.3733960     1.0279370
  H       -0.3910070    -0.4497550     2.0704360
  H       -1.4389040    -1.5086650     1.0841090
  H        0.3297530    -1.7131150     1.0308910
  H       -1.5511370     1.6195010    -0.7345430
  H       -2.5082090     0.3207370     0.0328800
  H       -1.5507480     1.4402480     1.0436560
  H       -0.3916640    -0.0274250    -2.1183980
  H        0.3293150    -1.4728840    -1.3521980
  H       -1.4393420    -1.2619000    -1.3629740
  H        2.9611190     0.7829970     0.0783990
  H        2.2763000    -0.6481610     0.8294170
  H        2.2759470    -0.4692660    -0.9431690
units angstrom
no_reorient  #important for SAPT in psi4, default
symmetry c1  #important for SAPT in psi4, default
}

set PROPERTIES_ORIGIN ["COM"]
properties('MP2/aug-cc-pvtz', properties = ['dipole'])
--------------------------------------------------------------------------

    Molecular point group: c1
  Charge       = 1
  Multiplicity = 1
  Basis Set: AUG-CC-PVTZ
    Blend: AUG-CC-PVTZ
  Basis Set: (AUG-CC-PVTZ AUX)
    Blend: AUG-CC-PVTZ-JKFIT

    Orbital Energies [Eh]
    ---------------------

    Doubly Occupied:

       1A    -15.861398     2A    -11.451208     3A    -11.447883
       4A    -11.447588     5A    -11.447574     6A    -11.382939
       7A     -1.500839     8A     -1.208519     9A     -1.168279
      10A     -1.166917    11A     -1.074383    12A     -0.991980
      13A     -0.871855    14A     -0.869667    15A     -0.844885
      16A     -0.797333    17A     -0.764013    18A     -0.742842
      19A     -0.731813    20A     -0.730096    21A     -0.720068
      22A     -0.719192    23A     -0.681662    24A     -0.676804
      25A     -0.675721

  @DF-RHF Final Energy:  -251.81112493616791

   => Energetics <=

    Nuclear Repulsion Energy =            283.9077129918111382
    One-Electron Energy =                -891.4867585856297865
    Two-Electron Energy =                 355.7679206576506772
    Total Energy =                       -251.8111249361679143
  Basis Set: (AUG-CC-PVTZ AUX)
    Blend: AUG-CC-PVTZ-RI
    Molecular point group: c1

    Geometry (in Angstrom), charge = 1, multiplicity = 1:

       Center              X                  Y                   Z               Mass
    ------------   -----------------  -----------------  -----------------  -----------------
         N           -0.414573236160    -0.017929268889    -0.001731001227    14.003074004430
         C            0.834232863840     0.844822531111     0.085048098773    12.000000000000
         C           -0.479828236160    -0.998924268889     1.128938998773    12.000000000000
         C           -1.577672336160     0.925332131111     0.093623398773    12.000000000000
         C           -0.480237236160    -0.753479268889    -1.305443001227    12.000000000000
         C            2.149551763840     0.048824731111     0.004462998773    12.000000000000
         H            0.774880763840     1.545336731111    -0.733813001227     1.007825032230
         H            0.775249763840     1.367654731111     1.027357998773     1.007825032230
         H           -0.391201236160    -0.455496268889     2.069856998773     1.007825032230
         H           -1.439098236160    -1.514406268889     1.083529998773     1.007825032230
         H            0.329558763840    -1.718856268889     1.030311998773     1.007825032230
         H           -1.551331236160     1.613759731111    -0.735122001227     1.007825032230
         H           -2.508403236160     0.314995731111     0.032300998773     1.007825032230
         H           -1.550942236160     1.434506731111     1.043076998773     1.007825032230
         H           -0.391858236160    -0.033166268889    -2.118977001227     1.007825032230
         H            0.329120763840    -1.478625268889    -1.352777001227     1.007825032230
         H           -1.439536236160    -1.267641268889    -1.363553001227     1.007825032230
         H            2.960924763840     0.777255731111     0.077819998773     1.007825032230
         H            2.276105763840    -0.653902268889     0.828837998773     1.007825032230
         H            2.275752763840    -0.475007268889    -0.943748001227     1.007825032230

  Basis Set: AUG-CC-PVTZ
    Blend: AUG-CC-PVTZ
  Basis Set: (AUG-CC-PVTZ AUX)
    Blend: AUG-CC-PVTZ-JKFIT
	 Reference Energy          =    -251.8111249361679143 [Eh]
	 Singles Energy            =      -0.0000000000000000 [Eh]
	 Same-Spin Energy          =      -0.2607854202390155 [Eh]
	 Opposite-Spin Energy      =      -0.9706982188984106 [Eh]
	 Correlation Energy        =      -1.2314836391374260 [Eh]
	 Total Energy              =    -253.0426085753053371 [Eh]

	 ================> DF-SCS-MP2 Energies <==================
	-----------------------------------------------------------
	 SCS Same-Spin Scale       =       0.3333333333333333 [-]
	 SCS Opposite-Spin Scale   =       1.2000000000000000 [-]
	 SCS Same-Spin Energy      =      -0.0869284734130052 [Eh]
	 SCS Opposite-Spin Energy  =      -1.1648378626780926 [Eh]
	 SCS Correlation Energy    =      -1.2517663360910978 [Eh]
	 SCS Total Energy          =    -253.0628912722590087 [Eh]
	-----------------------------------------------------------

  Dipole Moment: [D]
     X:    -1.2240      Y:    -0.0240      Z:     0.0127     Total:     1.2243

*** Psi4 exiting successfully. Buy a developer a beer!
