                               Psi4 1.3.2 release

  ==> Input File <==

--------------------------------------------------------------------------
#psi4
#
memory 32 gb

molecule  {
1 1
  N       -0.4143790    -0.0121880    -0.0011520
  C        0.8639279     0.8066761     0.0811951
  C       -0.4796340    -0.9931830     1.1295180
  C       -1.6098567     0.8901115     0.0900772
  C       -0.4800430    -0.7477380    -1.3048640
  C        2.1497460     0.0545660     0.0050420
  H        0.7750750     1.5510780    -0.7332340
  H        0.7754440     1.3733960     1.0279370
  H       -0.3910070    -0.4497550     2.0704360
  H       -1.4389040    -1.5086650     1.0841090
  H        0.3297530    -1.7131150     1.0308910
  H       -1.5511370     1.6195010    -0.7345430
  H       -2.5082090     0.3207370     0.0328800
  H       -1.5507480     1.4402480     1.0436560
  H       -0.3916640    -0.0274250    -2.1183980
  H        0.3293150    -1.4728840    -1.3521980
  H       -1.4393420    -1.2619000    -1.3629740
  H        2.9611190     0.7829970     0.0783990
  H        2.2763000    -0.6481610     0.8294170
  H        2.2759470    -0.4692660    -0.9431690
units angstrom
no_reorient  #important for SAPT in psi4, default
symmetry c1  #important for SAPT in psi4, default
}

set PROPERTIES_ORIGIN ["COM"]
properties('MP2/aug-cc-pvtz', properties = ['dipole'])
--------------------------------------------------------------------------

    Molecular point group: c1
  Charge       = 1
  Multiplicity = 1
  Basis Set: AUG-CC-PVTZ
    Blend: AUG-CC-PVTZ
  Basis Set: (AUG-CC-PVTZ AUX)
    Blend: AUG-CC-PVTZ-JKFIT

    Orbital Energies [Eh]
    ---------------------

    Doubly Occupied:

       1A    -15.861544     2A    -11.454119     3A    -11.448580
       4A    -11.446875     5A    -11.446862     6A    -11.382158
       7A     -1.501055     8A     -1.217284     9A     -1.166865
      10A     -1.165406    11A     -1.078438    12A     -0.987260
      13A     -0.870936    14A     -0.864569    15A     -0.848231
      16A     -0.794795    17A     -0.772959    18A     -0.739917
      19A     -0.733857    20A     -0.722910    21A     -0.722411
      22A     -0.715284    23A     -0.696088    24A     -0.677971
      25A     -0.665656

  @DF-RHF Final Energy:  -251.81011548111115

   => Energetics <=

    Nuclear Repulsion Energy =            284.1956930867102074
    One-Electron Energy =                -892.0475604354221559
    Two-Electron Energy =                 356.0417518676007944
    Total Energy =                       -251.8101154811111542
  Basis Set: (AUG-CC-PVTZ AUX)
    Blend: AUG-CC-PVTZ-RI
    Molecular point group: c1

    Geometry (in Angstrom), charge = 1, multiplicity = 1:

       Center              X                  Y                   Z               Mass
    ------------   -----------------  -----------------  -----------------  -----------------
         N           -0.414181310483    -0.006373658030    -0.000565601823    14.003074004430
         C            0.864125589517     0.812490441970     0.081781498177    12.000000000000
         C           -0.479436310483    -0.987368658030     1.130104398177    12.000000000000
         C           -1.609659010483     0.895925841970     0.090663598177    12.000000000000
         C           -0.479845310483    -0.741923658030    -1.304277601823    12.000000000000
         C            2.149943689517     0.060380341970     0.005628398177    12.000000000000
         H            0.775272689517     1.556892341970    -0.732647601823     1.007825032230
         H            0.775641689517     1.379210341970     1.028523398177     1.007825032230
         H           -0.390809310483    -0.443940658030     2.071022398177     1.007825032230
         H           -1.438706310483    -1.502850658030     1.084695398177     1.007825032230
         H            0.329950689517    -1.707300658030     1.031477398177     1.007825032230
         H           -1.550939310483     1.625315341970    -0.733956601823     1.007825032230
         H           -2.508011310483     0.326551341970     0.033466398177     1.007825032230
         H           -1.550550310483     1.446062341970     1.044242398177     1.007825032230
         H           -0.391466310483    -0.021610658030    -2.117811601823     1.007825032230
         H            0.329512689517    -1.467069658030    -1.351611601823     1.007825032230
         H           -1.439144310483    -1.256085658030    -1.362387601823     1.007825032230
         H            2.961316689517     0.788811341970     0.078985398177     1.007825032230
         H            2.276497689517    -0.642346658030     0.830003398177     1.007825032230
         H            2.276144689517    -0.463451658030    -0.942582601823     1.007825032230

  Basis Set: AUG-CC-PVTZ
    Blend: AUG-CC-PVTZ
  Basis Set: (AUG-CC-PVTZ AUX)
    Blend: AUG-CC-PVTZ-JKFIT
	 Reference Energy          =    -251.8101154811111542 [Eh]
	 Singles Energy            =      -0.0000000000000000 [Eh]
	 Same-Spin Energy          =      -0.2612510272352396 [Eh]
	 Opposite-Spin Energy      =      -0.9711517956596194 [Eh]
	 Correlation Energy        =      -1.2324028228948589 [Eh]
	 Total Energy              =    -253.0425183040060233 [Eh]

	 ================> DF-SCS-MP2 Energies <==================
	-----------------------------------------------------------
	 SCS Same-Spin Scale       =       0.3333333333333333 [-]
	 SCS Opposite-Spin Scale   =       1.2000000000000000 [-]
	 SCS Same-Spin Energy      =      -0.0870836757450799 [Eh]
	 SCS Opposite-Spin Energy  =      -1.1653821547915433 [Eh]
	 SCS Correlation Energy    =      -1.2524658305366232 [Eh]
	 SCS Total Energy          =    -253.0625813116477900 [Eh]
	-----------------------------------------------------------

  Dipole Moment: [D]
     X:    -1.1670      Y:    -0.0314      Z:    -0.0029     Total:     1.1674

*** Psi4 exiting successfully. Buy a developer a beer!
