                               Psi4 1.3.2 release

  ==> Input File <==

--------------------------------------------------------------------------
#psi4
#
memory 32 gb

molecule  {
1 1
  N       -0.4143790    -0.0121880    -0.0011520
  C        0.8034049     0.8934004     0.0899533
  C       -0.4796340    -0.9931830     1.1295180
  C       -1.5436824     0.9708861     0.0982114
  C       -0.4800430    -0.7477380    -1.3048640
  C        2.1497460     0.0545660     0.0050420
  H        0.7750750     1.5510780    -0.7332340
  H        0.7754440     1.3733960     1.0279370
  H       -0.3910070    -0.4497550     2.0704360
  H       -1.4389040    -1.5086650     1.0841090
  H        0.3297530    -1.7131150     1.0308910
  H       -1.5511370     1.6195010    -0.7345430
  H       -2.5082090     0.3207370     0.0328800
  H       -1.5507480     1.4402480     1.0436560
  H       -0.3916640    -0.0274250    -2.1183980
  H        0.3293150    -1.4728840    -1.3521980
  H       -1.4393420    -1.2619000    -1.3629740
  H        2.9611190     0.7829970     0.0783990
  H        2.2763000    -0.6481610     0.8294170
  H        2.2759470    -0.4692660    -0.9431690
units angstrom
no_reorient  #important for SAPT in psi4, default
symmetry c1  #important for SAPT in psi4, default
}

set PROPERTIES_ORIGIN ["COM"]
properties('MP2/aug-cc-pvtz', properties = ['dipole'])
--------------------------------------------------------------------------

    Molecular point group: c1
  Charge       = 1
  Multiplicity = 1
  Basis Set: AUG-CC-PVTZ
    Blend: AUG-CC-PVTZ
  Basis Set: (AUG-CC-PVTZ AUX)
    Blend: AUG-CC-PVTZ-JKFIT

    Orbital Energies [Eh]
    ---------------------

    Doubly Occupied:

       1A    -15.861637     2A    -11.449410     3A    -11.448437
       4A    -11.448425     5A    -11.448341     6A    -11.383704
       7A     -1.501151     8A     -1.201891     9A     -1.171069
      10A     -1.167169    11A     -1.070984    12A     -0.996743
      13A     -0.875892    14A     -0.872540    15A     -0.844436
      16A     -0.801890    17A     -0.756574    18A     -0.748395
      19A     -0.737142    20A     -0.727234    21A     -0.720389
      22A     -0.718630    23A     -0.683812    24A     -0.683333
      25A     -0.655127

  @DF-RHF Final Energy:  -251.79915721922805

   => Energetics <=

    Nuclear Repulsion Energy =            283.6693211352841786
    One-Electron Energy =                -890.9882493911831034
    Two-Electron Energy =                 355.5197710366709316
    Total Energy =                       -251.7991572192280501
  Basis Set: (AUG-CC-PVTZ AUX)
    Blend: AUG-CC-PVTZ-RI
    Molecular point group: c1

    Geometry (in Angstrom), charge = 1, multiplicity = 1:

       Center              X                  Y                   Z               Mass
    ------------   -----------------  -----------------  -----------------  -----------------
         N           -0.414950957289    -0.029185222348    -0.002866166598    14.003074004430
         C            0.802832942711     0.876403177652     0.088239133402    12.000000000000
         C           -0.480205957289    -1.010180222348     1.127803833402    12.000000000000
         C           -1.544254357289     0.953888877652     0.096497233402    12.000000000000
         C           -0.480614957289    -0.764735222348    -1.306578166598    12.000000000000
         C            2.149174042711     0.037568777652     0.003327833402    12.000000000000
         H            0.774503042711     1.534080777652    -0.734948166598     1.007825032230
         H            0.774872042711     1.356398777652     1.026222833402     1.007825032230
         H           -0.391578957289    -0.466752222348     2.068721833402     1.007825032230
         H           -1.439475957289    -1.525662222348     1.082394833402     1.007825032230
         H            0.329181042711    -1.730112222348     1.029176833402     1.007825032230
         H           -1.551708957289     1.602503777652    -0.736257166598     1.007825032230
         H           -2.508780957289     0.303739777652     0.031165833402     1.007825032230
         H           -1.551319957289     1.423250777652     1.041941833402     1.007825032230
         H           -0.392235957289    -0.044422222348    -2.120112166598     1.007825032230
         H            0.328743042711    -1.489881222348    -1.353912166598     1.007825032230
         H           -1.439913957289    -1.278897222348    -1.364688166598     1.007825032230
         H            2.960547042711     0.765999777652     0.076684833402     1.007825032230
         H            2.275728042711    -0.665158222348     0.827702833402     1.007825032230
         H            2.275375042711    -0.486263222348    -0.944883166598     1.007825032230

  Basis Set: AUG-CC-PVTZ
    Blend: AUG-CC-PVTZ
  Basis Set: (AUG-CC-PVTZ AUX)
    Blend: AUG-CC-PVTZ-JKFIT
	 Reference Energy          =    -251.7991572192280501 [Eh]
	 Singles Energy            =      -0.0000000000000000 [Eh]
	 Same-Spin Energy          =      -0.2607196063228477 [Eh]
	 Opposite-Spin Energy      =      -0.9710886779558079 [Eh]
	 Correlation Energy        =      -1.2318082842786557 [Eh]
	 Total Energy              =    -253.0309655035067067 [Eh]

	 ================> DF-SCS-MP2 Energies <==================
	-----------------------------------------------------------
	 SCS Same-Spin Scale       =       0.3333333333333333 [-]
	 SCS Opposite-Spin Scale   =       1.2000000000000000 [-]
	 SCS Same-Spin Energy      =      -0.0869065354409492 [Eh]
	 SCS Opposite-Spin Energy  =      -1.1653064135469695 [Eh]
	 SCS Correlation Energy    =      -1.2522129489879188 [Eh]
	 SCS Total Energy          =    -253.0513701682159819 [Eh]
	-----------------------------------------------------------

  Dipole Moment: [D]
     X:    -1.2190      Y:    -0.0711      Z:    -0.0069     Total:     1.2211

*** Psi4 exiting successfully. Buy a developer a beer!
