                               Psi4 1.4a3.dev225

  ==> Input File <==

--------------------------------------------------------------------------
#psi4
#
memory 32 gb

molecule  {
1 1
  N        0.4178150    -0.0006520    -0.0000630
  C       -0.8402709     0.8131226    -0.0009403
  C        0.4729990    -0.9017910    -1.1962230
  C        1.5793660     0.9480380    -0.0539900
  C        0.5237060    -0.8216500     1.2493860
  C       -2.1433350     0.0208080     0.0021430
  H       -0.7927630     1.4633150     0.8819470
  H       -0.7964710     1.4567520    -0.8889780
  H        0.3340020    -0.2978660    -2.0924670
  H        1.4489560    -1.3852540    -1.2134470
  H       -0.3098240    -1.6525160    -1.1165640
  H        1.5295780     1.6068410     0.8121160
  H        2.5017250     0.3690020    -0.0365590
  H        1.5128670     1.5259610    -0.9748480
  H        0.4511560    -0.1564930     2.1092880
  H       -0.2781350    -1.5558310     1.2658670
  H        1.4885380    -1.3271890     1.2430600
  H       -2.9659450     0.7401210     0.0203810
  H       -2.2593290    -0.5863990    -0.8962730
  H       -2.2430950    -0.6122210     0.8847330
units angstrom
no_reorient  #important for SAPT in psi4, default
symmetry c1  #important for SAPT in psi4, default
}

set PROPERTIES_ORIGIN ["COM"]
properties('MP2/aug-cc-pvtz', properties = ['dipole'])
--------------------------------------------------------------------------

    Molecular point group: c1
  Charge       = 1
  Multiplicity = 1
  Basis Set: AUG-CC-PVTZ
    Blend: AUG-CC-PVTZ
  Basis Set: (AUG-CC-PVTZ AUX)
    Blend: AUG-CC-PVTZ-JKFIT

    Orbital Energies [Eh]
    ---------------------

    Doubly Occupied:

       1A    -15.862287     2A    -11.451025     3A    -11.448697
       4A    -11.448008     5A    -11.447994     6A    -11.382473
       7A     -1.505358     8A     -1.210868     9A     -1.168526
      10A     -1.168329    11A     -1.078383    12A     -0.988664
      13A     -0.873108    14A     -0.868383    15A     -0.847143
      16A     -0.794789    17A     -0.769925    18A     -0.740785
      19A     -0.734537    20A     -0.726994    21A     -0.721854
      22A     -0.719249    23A     -0.686727    24A     -0.678676
      25A     -0.668984

  @DF-RHF Final Energy:  -251.81206129200280

   => Energetics <=

    Nuclear Repulsion Energy =            284.5128414070776444
    One-Electron Energy =                -892.6662745254035372
    Two-Electron Energy =                 356.3413718263230976
    Total Energy =                       -251.8120612920027952
  Basis Set: (AUG-CC-PVTZ AUX)
    Blend: AUG-CC-PVTZ-RI
    Molecular point group: c1

    Geometry (in Angstrom), charge = 1, multiplicity = 1:

       Center              X                  Y                   Z               Mass
    ------------   -----------------  -----------------  -----------------  -----------------
         N            0.411248722852    -0.003809345831    -0.000084206490    14.003074004430
         C           -0.846837177148     0.809965254169    -0.000961506490    12.000000000000
         C            0.466432722852    -0.904948345831    -1.196244206490    12.000000000000
         C            1.572799722852     0.944880654169    -0.054011206490    12.000000000000
         C            0.517139722852    -0.824807345831     1.249364793510    12.000000000000
         C           -2.149901277148     0.017650654169     0.002121793510    12.000000000000
         H           -0.799329277148     1.460157654169     0.881925793510     1.007825032230
         H           -0.803037277148     1.453594654169    -0.888999206490     1.007825032230
         H            0.327435722852    -0.301023345831    -2.092488206490     1.007825032230
         H            1.442389722852    -1.388411345831    -1.213468206490     1.007825032230
         H           -0.316390277148    -1.655673345831    -1.116585206490     1.007825032230
         H            1.523011722852     1.603683654169     0.812094793510     1.007825032230
         H            2.495158722852     0.365844654169    -0.036580206490     1.007825032230
         H            1.506300722852     1.522803654169    -0.974869206490     1.007825032230
         H            0.444589722852    -0.159650345831     2.109266793510     1.007825032230
         H           -0.284701277148    -1.558988345831     1.265845793510     1.007825032230
         H            1.481971722852    -1.330346345831     1.243038793510     1.007825032230
         H           -2.972511277148     0.736963654169     0.020359793510     1.007825032230
         H           -2.265895277148    -0.589556345831    -0.896294206490     1.007825032230
         H           -2.249661277148    -0.615378345831     0.884711793510     1.007825032230

  Basis Set: AUG-CC-PVTZ
    Blend: AUG-CC-PVTZ
  Basis Set: (AUG-CC-PVTZ AUX)
    Blend: AUG-CC-PVTZ-JKFIT
	 Reference Energy          =    -251.8120612920027952 [Eh]
	 Singles Energy            =      -0.0000000000000000 [Eh]
	 Same-Spin Energy          =      -0.2610641515420770 [Eh]
	 Opposite-Spin Energy      =      -0.9708654481484722 [Eh]
	 Correlation Energy        =      -1.2319295996905493 [Eh]
	 Total Energy              =    -253.0439908916933405 [Eh]

	 ================> DF-SCS-MP2 Energies <==================
	-----------------------------------------------------------
	 SCS Same-Spin Scale       =       0.3333333333333333 [-]
	 SCS Opposite-Spin Scale   =       1.2000000000000000 [-]
	 SCS Same-Spin Energy      =      -0.0870213838473590 [Eh]
	 SCS Opposite-Spin Energy  =      -1.1650385377781667 [Eh]
	 SCS Correlation Energy    =      -1.2520599216255257 [Eh]
	 SCS Total Energy          =    -253.0641212136283116 [Eh]
	-----------------------------------------------------------

  Dipole Moment: [D]
     X:     1.2329      Y:    -0.0370      Z:    -0.0017     Total:     1.2335

*** Psi4 exiting successfully. Buy a developer a beer!
