                               Psi4 1.3.2 release

  ==> Input File <==

--------------------------------------------------------------------------
#psi4
#
memory 32 gb

molecule  {
1 1
  N       -0.4183289    -0.0050923    -0.0116434
  C        0.8493700     0.8287480     0.0834240
  C       -0.4796340    -0.9931830     1.1295180
  C       -1.5938470     0.9107330     0.0921540
  C       -0.4800430    -0.7477380    -1.3048640
  C        2.1497460     0.0545660     0.0050420
  H        0.7666710     1.5473263    -0.7357322
  H        0.7754440     1.3733960     1.0279370
  H       -0.3910070    -0.4497550     2.0704360
  H       -1.4389040    -1.5086650     1.0841090
  H        0.3297530    -1.7131150     1.0308910
  H       -1.5511370     1.6195010    -0.7345430
  H       -2.5082090     0.3207370     0.0328800
  H       -1.5507480     1.4402480     1.0436560
  H       -0.3916640    -0.0274250    -2.1183980
  H        0.3293150    -1.4728840    -1.3521980
  H       -1.4393420    -1.2619000    -1.3629740
  H        2.9611190     0.7829970     0.0783990
  H        2.2763000    -0.6481610     0.8294170
  H        2.2759470    -0.4692660    -0.9431690
units angstrom
no_reorient  #important for SAPT in psi4, default
symmetry c1  #important for SAPT in psi4, default
}

set PROPERTIES_ORIGIN ["COM"]
properties('MP2/aug-cc-pvtz', properties = ['dipole'])
--------------------------------------------------------------------------

    Molecular point group: c1
  Charge       = 1
  Multiplicity = 1
  Basis Set: AUG-CC-PVTZ
    Blend: AUG-CC-PVTZ
  Basis Set: (AUG-CC-PVTZ AUX)
    Blend: AUG-CC-PVTZ-JKFIT

    Orbital Energies [Eh]
    ---------------------

    Doubly Occupied:

       1A    -15.861267     2A    -11.452608     3A    -11.448162
       4A    -11.447512     5A    -11.446731     6A    -11.382863
       7A     -1.500972     8A     -1.212763     9A     -1.168122
      10A     -1.165435    11A     -1.076610    12A     -0.989635
      13A     -0.870953    14A     -0.867381    15A     -0.846041
      16A     -0.796066    17A     -0.768819    18A     -0.740837
      19A     -0.732872    20A     -0.726034    21A     -0.721581
      22A     -0.716362    23A     -0.688605    24A     -0.679533
      25A     -0.671043

  @DF-RHF Final Energy:  -251.81210503417915

   => Energetics <=

    Nuclear Repulsion Energy =            284.0477906391824376
    One-Electron Energy =                -891.7621765169257060
    Two-Electron Energy =                 355.9022808435641423
    Total Energy =                       -251.8121050341791829
  Basis Set: (AUG-CC-PVTZ AUX)
    Blend: AUG-CC-PVTZ-RI
    Molecular point group: c1

    Geometry (in Angstrom), charge = 1, multiplicity = 1:

       Center              X                  Y                   Z               Mass
    ------------   -----------------  -----------------  -----------------  -----------------
         N           -0.417605078117    -0.006177098293    -0.009947499074    14.003074004430
         C            0.850093821883     0.827663201707     0.085119900926    12.000000000000
         C           -0.478910178117    -0.994267798293     1.131213900926    12.000000000000
         C           -1.593123178117     0.909648201707     0.093849900926    12.000000000000
         C           -0.479319178117    -0.748822798293    -1.303168099074    12.000000000000
         C            2.150469821883     0.053481201707     0.006737900926    12.000000000000
         H            0.767394821883     1.546241501707    -0.734036299074     1.007825032230
         H            0.776167821883     1.372311201707     1.029632900926     1.007825032230
         H           -0.390283178117    -0.450839798293     2.072131900926     1.007825032230
         H           -1.438180178117    -1.509749798293     1.085804900926     1.007825032230
         H            0.330476821883    -1.714199798293     1.032586900926     1.007825032230
         H           -1.550413178117     1.618416201707    -0.732847099074     1.007825032230
         H           -2.507485178117     0.319652201707     0.034575900926     1.007825032230
         H           -1.550024178117     1.439163201707     1.045351900926     1.007825032230
         H           -0.390940178117    -0.028509798293    -2.116702099074     1.007825032230
         H            0.330038821883    -1.473968798293    -1.350502099074     1.007825032230
         H           -1.438618178117    -1.262984798293    -1.361278099074     1.007825032230
         H            2.961842821883     0.781912201707     0.080094900926     1.007825032230
         H            2.277023821883    -0.649245798293     0.831112900926     1.007825032230
         H            2.276670821883    -0.470350798293    -0.941473099074     1.007825032230

  Basis Set: AUG-CC-PVTZ
    Blend: AUG-CC-PVTZ
  Basis Set: (AUG-CC-PVTZ AUX)
    Blend: AUG-CC-PVTZ-JKFIT
	 Reference Energy          =    -251.8121050341791545 [Eh]
	 Singles Energy            =      -0.0000000000000000 [Eh]
	 Same-Spin Energy          =      -0.2609933785582744 [Eh]
	 Opposite-Spin Energy      =      -0.9708540405280381 [Eh]
	 Correlation Energy        =      -1.2318474190863125 [Eh]
	 Total Energy              =    -253.0439524532654616 [Eh]

	 ================> DF-SCS-MP2 Energies <==================
	-----------------------------------------------------------
	 SCS Same-Spin Scale       =       0.3333333333333333 [-]
	 SCS Opposite-Spin Scale   =       1.2000000000000000 [-]
	 SCS Same-Spin Energy      =      -0.0869977928527581 [Eh]
	 SCS Opposite-Spin Energy  =      -1.1650248486336456 [Eh]
	 SCS Correlation Energy    =      -1.2520226414864037 [Eh]
	 SCS Total Energy          =    -253.0641276756655600 [Eh]
	-----------------------------------------------------------

  Dipole Moment: [D]
     X:    -1.1747      Y:    -0.0592      Z:     0.0216     Total:     1.1764

*** Psi4 exiting successfully. Buy a developer a beer!
