                               Psi4 1.3.2 release

  ==> Input File <==

--------------------------------------------------------------------------
#psi4
#
memory 32 gb

molecule  {
1 1
  N       -0.4431055     0.0322051     0.0033329
  C        0.8493700     0.8287480     0.0834240
  C       -0.4796340    -0.9931830     1.1295180
  C       -1.5938470     0.9107330     0.0921540
  C       -0.4800430    -0.7477380    -1.3048640
  C        2.1761105     0.1001914     0.0096396
  H        0.7750750     1.5510780    -0.7332340
  H        0.7754440     1.3733960     1.0279370
  H       -0.3910070    -0.4497550     2.0704360
  H       -1.4389040    -1.5086650     1.0841090
  H        0.3297530    -1.7131150     1.0308910
  H       -1.5511370     1.6195010    -0.7345430
  H       -2.5082090     0.3207370     0.0328800
  H       -1.5507480     1.4402480     1.0436560
  H       -0.3916640    -0.0274250    -2.1183980
  H        0.3293150    -1.4728840    -1.3521980
  H       -1.4393420    -1.2619000    -1.3629740
  H        2.9611190     0.7829970     0.0783990
  H        2.2763000    -0.6481610     0.8294170
  H        2.2759470    -0.4692660    -0.9431690
units angstrom
no_reorient  #important for SAPT in psi4, default
symmetry c1  #important for SAPT in psi4, default
}

set PROPERTIES_ORIGIN ["COM"]
properties('MP2/aug-cc-pvtz', properties = ['dipole'])
--------------------------------------------------------------------------

    Molecular point group: c1
  Charge       = 1
  Multiplicity = 1
  Basis Set: AUG-CC-PVTZ
    Blend: AUG-CC-PVTZ
  Basis Set: (AUG-CC-PVTZ AUX)
    Blend: AUG-CC-PVTZ-JKFIT

    Orbital Energies [Eh]
    ---------------------

    Doubly Occupied:

       1A    -15.862792     2A    -11.451919     3A    -11.449813
       4A    -11.449800     5A    -11.444257     6A    -11.384306
       7A     -1.502429     8A     -1.214027     9A     -1.171122
      10A     -1.162363    11A     -1.078598    12A     -0.989647
      13A     -0.870126    14A     -0.869127    15A     -0.846916
      16A     -0.794045    17A     -0.771400    18A     -0.739620
      19A     -0.737936    20A     -0.726702    21A     -0.726463
      22A     -0.707305    23A     -0.700497    24A     -0.678204
      25A     -0.660380

  @DF-RHF Final Energy:  -251.80600196996281

   => Energetics <=

    Nuclear Repulsion Energy =            283.6651480149836857
    One-Electron Energy =                -890.9627146026133460
    Two-Electron Energy =                 355.4915646176668815
    Total Energy =                       -251.8060019699628356
  Basis Set: (AUG-CC-PVTZ AUX)
    Blend: AUG-CC-PVTZ-RI
    Molecular point group: c1

    Geometry (in Angstrom), charge = 1, multiplicity = 1:

       Center              X                  Y                   Z               Mass
    ------------   -----------------  -----------------  -----------------  -----------------
         N           -0.442130808257     0.018936302919     0.001994012355    14.003074004430
         C            0.850344691743     0.815479202919     0.082085112355    12.000000000000
         C           -0.478659308257    -1.006451797081     1.128179112355    12.000000000000
         C           -1.592872308257     0.897464202919     0.090815112355    12.000000000000
         C           -0.479068308257    -0.761006797081    -1.306202887645    12.000000000000
         C            2.177085191743     0.086922602919     0.008300712355    12.000000000000
         H            0.776049691743     1.537809202919    -0.734572887645     1.007825032230
         H            0.776418691743     1.360127202919     1.026598112355     1.007825032230
         H           -0.390032308257    -0.463023797081     2.069097112355     1.007825032230
         H           -1.437929308257    -1.521933797081     1.082770112355     1.007825032230
         H            0.330727691743    -1.726383797081     1.029552112355     1.007825032230
         H           -1.550162308257     1.606232202919    -0.735881887645     1.007825032230
         H           -2.507234308257     0.307468202919     0.031541112355     1.007825032230
         H           -1.549773308257     1.426979202919     1.042317112355     1.007825032230
         H           -0.390689308257    -0.040693797081    -2.119736887645     1.007825032230
         H            0.330289691743    -1.486152797081    -1.353536887645     1.007825032230
         H           -1.438367308257    -1.275168797081    -1.364312887645     1.007825032230
         H            2.962093691743     0.769728202919     0.077060112355     1.007825032230
         H            2.277274691743    -0.661429797081     0.828078112355     1.007825032230
         H            2.276921691743    -0.482534797081    -0.944507887645     1.007825032230

  Basis Set: AUG-CC-PVTZ
    Blend: AUG-CC-PVTZ
  Basis Set: (AUG-CC-PVTZ AUX)
    Blend: AUG-CC-PVTZ-JKFIT
	 Reference Energy          =    -251.8060019699628072 [Eh]
	 Singles Energy            =      -0.0000000000000000 [Eh]
	 Same-Spin Energy          =      -0.2610020447018802 [Eh]
	 Opposite-Spin Energy      =      -0.9710233110530925 [Eh]
	 Correlation Energy        =      -1.2320253557549727 [Eh]
	 Total Energy              =    -253.0380273257177919 [Eh]

	 ================> DF-SCS-MP2 Energies <==================
	-----------------------------------------------------------
	 SCS Same-Spin Scale       =       0.3333333333333333 [-]
	 SCS Opposite-Spin Scale   =       1.2000000000000000 [-]
	 SCS Same-Spin Energy      =      -0.0870006815672934 [Eh]
	 SCS Opposite-Spin Energy  =      -1.1652279732637110 [Eh]
	 SCS Correlation Energy    =      -1.2522286548310044 [Eh]
	 SCS Total Energy          =    -253.0582306247938220 [Eh]
	-----------------------------------------------------------

  Dipole Moment: [D]
     X:    -1.1633      Y:    -0.1858      Z:    -0.0185     Total:     1.1782

*** Psi4 exiting successfully. Buy a developer a beer!
