                               Psi4 1.3.2 release

  ==> Input File <==

--------------------------------------------------------------------------
#psi4
#
memory 32 gb

molecule  {
1 1
  N       -0.4366247     0.0313279    -0.0639760
  C        0.8493700     0.8287480     0.0834240
  C       -0.4796340    -0.9931830     1.1295180
  C       -1.5938470     0.9107330     0.0921540
  C       -0.4800430    -0.7477380    -1.3048640
  C        2.1497460     0.0545660     0.0050420
  H        0.7247582     1.5277526    -0.7472836
  H        0.7754440     1.3733960     1.0279370
  H       -0.3910070    -0.4497550     2.0704360
  H       -1.4389040    -1.5086650     1.0841090
  H        0.3297530    -1.7131150     1.0308910
  H       -1.5511370     1.6195010    -0.7345430
  H       -2.5082090     0.3207370     0.0328800
  H       -1.5507480     1.4402480     1.0436560
  H       -0.3916640    -0.0274250    -2.1183980
  H        0.3293150    -1.4728840    -1.3521980
  H       -1.4393420    -1.2619000    -1.3629740
  H        2.9611190     0.7829970     0.0783990
  H        2.2763000    -0.6481610     0.8294170
  H        2.2759470    -0.4692660    -0.9431690
units angstrom
no_reorient  #important for SAPT in psi4, default
symmetry c1  #important for SAPT in psi4, default
}

set PROPERTIES_ORIGIN ["COM"]
properties('MP2/aug-cc-pvtz', properties = ['dipole'])
--------------------------------------------------------------------------

    Molecular point group: c1
  Charge       = 1
  Multiplicity = 1
  Basis Set: AUG-CC-PVTZ
    Blend: AUG-CC-PVTZ
  Basis Set: (AUG-CC-PVTZ AUX)
    Blend: AUG-CC-PVTZ-JKFIT

    Orbital Energies [Eh]
    ---------------------

    Doubly Occupied:

       1A    -15.860119     2A    -11.453198     3A    -11.452765
       4A    -11.444918     5A    -11.444691     6A    -11.384429
       7A     -1.502476     8A     -1.213778     9A     -1.174796
      10A     -1.158463    11A     -1.078122    12A     -0.989387
      13A     -0.870610    14A     -0.868672    15A     -0.845653
      16A     -0.797398    17A     -0.771438    18A     -0.742532
      19A     -0.734003    20A     -0.726447    21A     -0.724009
      22A     -0.705598    23A     -0.694008    24A     -0.679629
      25A     -0.665521

  @DF-RHF Final Energy:  -251.80451208340338

   => Energetics <=

    Nuclear Repulsion Energy =            284.0643674337434277
    One-Electron Energy =                -891.7724410878516892
    Two-Electron Energy =                 355.9035615707048805
    Total Energy =                       -251.8045120834033810
  Basis Set: (AUG-CC-PVTZ AUX)
    Blend: AUG-CC-PVTZ-RI
    Molecular point group: c1

    Geometry (in Angstrom), charge = 1, multiplicity = 1:

       Center              X                  Y                   Z               Mass
    ------------   -----------------  -----------------  -----------------  -----------------
         N           -0.432513869590     0.024678996744    -0.053831150182    14.003074004430
         C            0.853480830410     0.822099096744     0.093568849818    12.000000000000
         C           -0.475523169590    -0.999831903256     1.139662849818    12.000000000000
         C           -1.589736169590     0.904084096744     0.102298849818    12.000000000000
         C           -0.475932169590    -0.754386903256    -1.294719150182    12.000000000000
         C            2.153856830410     0.047917096744     0.015186849818    12.000000000000
         H            0.728869030410     1.521103696744    -0.737138750182     1.007825032230
         H            0.779554830410     1.366747096744     1.038081849818     1.007825032230
         H           -0.386896169590    -0.456403903256     2.080580849818     1.007825032230
         H           -1.434793169590    -1.515313903256     1.094253849818     1.007825032230
         H            0.333863830410    -1.719763903256     1.041035849818     1.007825032230
         H           -1.547026169590     1.612852096744    -0.724398150182     1.007825032230
         H           -2.504098169590     0.314088096744     0.043024849818     1.007825032230
         H           -1.546637169590     1.433599096744     1.053800849818     1.007825032230
         H           -0.387553169590    -0.034073903256    -2.108253150182     1.007825032230
         H            0.333425830410    -1.479532903256    -1.342053150182     1.007825032230
         H           -1.435231169590    -1.268548903256    -1.352829150182     1.007825032230
         H            2.965229830410     0.776348096744     0.088543849818     1.007825032230
         H            2.280410830410    -0.654809903256     0.839561849818     1.007825032230
         H            2.280057830410    -0.475914903256    -0.933024150182     1.007825032230

  Basis Set: AUG-CC-PVTZ
    Blend: AUG-CC-PVTZ
  Basis Set: (AUG-CC-PVTZ AUX)
    Blend: AUG-CC-PVTZ-JKFIT
	 Reference Energy          =    -251.8045120834033810 [Eh]
	 Singles Energy            =      -0.0000000000000000 [Eh]
	 Same-Spin Energy          =      -0.2614113879834759 [Eh]
	 Opposite-Spin Energy      =      -0.9716286746052281 [Eh]
	 Correlation Energy        =      -1.2330400625887039 [Eh]
	 Total Energy              =    -253.0375521459920947 [Eh]

	 ================> DF-SCS-MP2 Energies <==================
	-----------------------------------------------------------
	 SCS Same-Spin Scale       =       0.3333333333333333 [-]
	 SCS Opposite-Spin Scale   =       1.2000000000000000 [-]
	 SCS Same-Spin Energy      =      -0.0871371293278253 [Eh]
	 SCS Opposite-Spin Energy  =      -1.1659544095262737 [Eh]
	 SCS Correlation Energy    =      -1.2530915388540991 [Eh]
	 SCS Total Energy          =    -253.0576036222574885 [Eh]
	-----------------------------------------------------------

  Dipole Moment: [D]
     X:    -1.1219      Y:    -0.1582      Z:     0.1467     Total:     1.1424

*** Psi4 exiting successfully. Buy a developer a beer!
