                               Psi4 1.4a3.dev225

  ==> Input File <==

--------------------------------------------------------------------------
#psi4
#
memory 32 gb

molecule  {
1 1
  N        0.4178150    -0.0006520    -0.0000630
  C       -0.8570640     0.8239850    -0.0009520
  C        0.4722625    -0.8897648    -1.1802596
  C        1.5793660     0.9480380    -0.0539900
  C        0.5237060    -0.8216500     1.2493860
  C       -2.1433350     0.0208080     0.0021430
  H       -0.7927630     1.4633150     0.8819470
  H       -0.7964710     1.4567520    -0.8889780
  H        0.3340020    -0.2978660    -2.0924670
  H        1.4489560    -1.3852540    -1.2134470
  H       -0.3098240    -1.6525160    -1.1165640
  H        1.5295780     1.6068410     0.8121160
  H        2.5017250     0.3690020    -0.0365590
  H        1.5128670     1.5259610    -0.9748480
  H        0.4511560    -0.1564930     2.1092880
  H       -0.2781350    -1.5558310     1.2658670
  H        1.4885380    -1.3271890     1.2430600
  H       -2.9659450     0.7401210     0.0203810
  H       -2.2593290    -0.5863990    -0.8962730
  H       -2.2430950    -0.6122210     0.8847330
units angstrom
no_reorient  #important for SAPT in psi4, default
symmetry c1  #important for SAPT in psi4, default
}

set PROPERTIES_ORIGIN ["COM"]
properties('MP2/aug-cc-pvtz', properties = ['dipole'])
--------------------------------------------------------------------------

    Molecular point group: c1
  Charge       = 1
  Multiplicity = 1
  Basis Set: AUG-CC-PVTZ
    Blend: AUG-CC-PVTZ
  Basis Set: (AUG-CC-PVTZ AUX)
    Blend: AUG-CC-PVTZ-JKFIT

    Orbital Energies [Eh]
    ---------------------

    Doubly Occupied:

       1A    -15.861707     2A    -11.452474     3A    -11.448566
       4A    -11.447810     5A    -11.446713     6A    -11.382770
       7A     -1.505324     8A     -1.213480     9A     -1.168202
      10A     -1.167945    11A     -1.076576    12A     -0.989717
      13A     -0.872803    14A     -0.868739    15A     -0.847369
      16A     -0.796240    17A     -0.768837    18A     -0.741233
      19A     -0.734288    20A     -0.725669    21A     -0.719250
      22A     -0.718055    23A     -0.686010    24A     -0.681056
      25A     -0.671585

  @DF-RHF Final Energy:  -251.81196451381729

   => Energetics <=

    Nuclear Repulsion Energy =            284.6068775249157170
    One-Electron Energy =                -892.8528470565486259
    Two-Electron Energy =                 356.4340050178156503
    Total Energy =                       -251.8119645138172586
  Basis Set: (AUG-CC-PVTZ AUX)
    Blend: AUG-CC-PVTZ-RI
    Molecular point group: c1

    Geometry (in Angstrom), charge = 1, multiplicity = 1:

       Center              X                  Y                   Z               Mass
    ------------   -----------------  -----------------  -----------------  -----------------
         N            0.413636067472    -0.006926529114    -0.002256657954    14.003074004430
         C           -0.861242932528     0.817710470886    -0.003145657954    12.000000000000
         C            0.468083567472    -0.896039329114    -1.182453257954    12.000000000000
         C            1.575187067472     0.941763470886    -0.056183657954    12.000000000000
         C            0.519527067472    -0.827924529114     1.247192342046    12.000000000000
         C           -2.147513932528     0.014533470886    -0.000050657954    12.000000000000
         H           -0.796941932528     1.457040470886     0.879753342046     1.007825032230
         H           -0.800649932528     1.450477470886    -0.891171657954     1.007825032230
         H            0.329823067472    -0.304140529114    -2.094660657954     1.007825032230
         H            1.444777067472    -1.391528529114    -1.215640657954     1.007825032230
         H           -0.314002932528    -1.658790529114    -1.118757657954     1.007825032230
         H            1.525399067472     1.600566470886     0.809922342046     1.007825032230
         H            2.497546067472     0.362727470886    -0.038752657954     1.007825032230
         H            1.508688067472     1.519686470886    -0.977041657954     1.007825032230
         H            0.446977067472    -0.162767529114     2.107094342046     1.007825032230
         H           -0.282313932528    -1.562105529114     1.263673342046     1.007825032230
         H            1.484359067472    -1.333463529114     1.240866342046     1.007825032230
         H           -2.970123932528     0.733846470886     0.018187342046     1.007825032230
         H           -2.263507932528    -0.592673529114    -0.898466657954     1.007825032230
         H           -2.247273932528    -0.618495529114     0.882539342046     1.007825032230

  Basis Set: AUG-CC-PVTZ
    Blend: AUG-CC-PVTZ
  Basis Set: (AUG-CC-PVTZ AUX)
    Blend: AUG-CC-PVTZ-JKFIT
	 Reference Energy          =    -251.8119645138172871 [Eh]
	 Singles Energy            =      -0.0000000000000000 [Eh]
	 Same-Spin Energy          =      -0.2611716569657234 [Eh]
	 Opposite-Spin Energy      =      -0.9709119274743556 [Eh]
	 Correlation Energy        =      -1.2320835844400790 [Eh]
	 Total Energy              =    -253.0440480982573774 [Eh]

	 ================> DF-SCS-MP2 Energies <==================
	-----------------------------------------------------------
	 SCS Same-Spin Scale       =       0.3333333333333333 [-]
	 SCS Opposite-Spin Scale   =       1.2000000000000000 [-]
	 SCS Same-Spin Energy      =      -0.0870572189885745 [Eh]
	 SCS Opposite-Spin Energy  =      -1.1650943129692266 [Eh]
	 SCS Correlation Energy    =      -1.2521515319578012 [Eh]
	 SCS Total Energy          =    -253.0641160457750800 [Eh]
	-----------------------------------------------------------

  Dipole Moment: [D]
     X:     1.1903      Y:    -0.0078      Z:     0.0179     Total:     1.1905

*** Psi4 exiting successfully. Buy a developer a beer!
