                               Psi4 1.4a3.dev225

  ==> Input File <==

--------------------------------------------------------------------------
#psi4
#
memory 32 gb

molecule  {
1 1
  N        0.4178150    -0.0006520    -0.0000630
  C       -0.8570640     0.8239850    -0.0009520
  C        0.4737355    -0.9138172    -1.2121864
  C        1.5793660     0.9480380    -0.0539900
  C        0.5237060    -0.8216500     1.2493860
  C       -2.1433350     0.0208080     0.0021430
  H       -0.7927630     1.4633150     0.8819470
  H       -0.7964710     1.4567520    -0.8889780
  H        0.3340020    -0.2978660    -2.0924670
  H        1.4489560    -1.3852540    -1.2134470
  H       -0.3098240    -1.6525160    -1.1165640
  H        1.5295780     1.6068410     0.8121160
  H        2.5017250     0.3690020    -0.0365590
  H        1.5128670     1.5259610    -0.9748480
  H        0.4511560    -0.1564930     2.1092880
  H       -0.2781350    -1.5558310     1.2658670
  H        1.4885380    -1.3271890     1.2430600
  H       -2.9659450     0.7401210     0.0203810
  H       -2.2593290    -0.5863990    -0.8962730
  H       -2.2430950    -0.6122210     0.8847330
units angstrom
no_reorient  #important for SAPT in psi4, default
symmetry c1  #important for SAPT in psi4, default
}

set PROPERTIES_ORIGIN ["COM"]
properties('MP2/aug-cc-pvtz', properties = ['dipole'])
--------------------------------------------------------------------------

    Molecular point group: c1
  Charge       = 1
  Multiplicity = 1
  Basis Set: AUG-CC-PVTZ
    Blend: AUG-CC-PVTZ
  Basis Set: (AUG-CC-PVTZ AUX)
    Blend: AUG-CC-PVTZ-JKFIT

    Orbital Energies [Eh]
    ---------------------

    Doubly Occupied:

       1A    -15.859941     2A    -11.451445     3A    -11.447999
       4A    -11.447525     5A    -11.446754     6A    -11.382407
       7A     -1.497203     8A     -1.211955     9A     -1.166842
      10A     -1.166214    11A     -1.076018    12A     -0.988940
      13A     -0.870631    14A     -0.865802    15A     -0.844707
      16A     -0.796216    17A     -0.769869    18A     -0.742389
      19A     -0.733808    20A     -0.728736    21A     -0.722085
      22A     -0.716941    23A     -0.685553    24A     -0.680073
      25A     -0.670587

  @DF-RHF Final Energy:  -251.81201923872638

   => Energetics <=

    Nuclear Repulsion Energy =            283.8618105206827522
    One-Electron Energy =                -891.4063794113837957
    Two-Electron Energy =                 355.7325496519746935
    Total Energy =                       -251.8120192387263501
  Basis Set: (AUG-CC-PVTZ AUX)
    Blend: AUG-CC-PVTZ-RI
    Molecular point group: c1

    Geometry (in Angstrom), charge = 1, multiplicity = 1:

       Center              X                  Y                   Z               Mass
    ------------   -----------------  -----------------  -----------------  -----------------
         N            0.413435460577    -0.003650848679     0.002091431805    14.003074004430
         C           -0.861443539423     0.820986151321     0.001202431805    12.000000000000
         C            0.469355960577    -0.916816048679    -1.210031968195    12.000000000000
         C            1.574986460577     0.945039151321    -0.051835568195    12.000000000000
         C            0.519326460577    -0.824648848679     1.251540431805    12.000000000000
         C           -2.147714539423     0.017809151321     0.004297431805    12.000000000000
         H           -0.797142539423     1.460316151321     0.884101431805     1.007825032230
         H           -0.800850539423     1.453753151321    -0.886823568195     1.007825032230
         H            0.329622460577    -0.300864848679    -2.090312568195     1.007825032230
         H            1.444576460577    -1.388252848679    -1.211292568195     1.007825032230
         H           -0.314203539423    -1.655514848679    -1.114409568195     1.007825032230
         H            1.525198460577     1.603842151321     0.814270431805     1.007825032230
         H            2.497345460577     0.366003151321    -0.034404568195     1.007825032230
         H            1.508487460577     1.522962151321    -0.972693568195     1.007825032230
         H            0.446776460577    -0.159491848679     2.111442431805     1.007825032230
         H           -0.282514539423    -1.558829848679     1.268021431805     1.007825032230
         H            1.484158460577    -1.330187848679     1.245214431805     1.007825032230
         H           -2.970324539423     0.737122151321     0.022535431805     1.007825032230
         H           -2.263708539423    -0.589397848679    -0.894118568195     1.007825032230
         H           -2.247474539423    -0.615219848679     0.886887431805     1.007825032230

  Basis Set: AUG-CC-PVTZ
    Blend: AUG-CC-PVTZ
  Basis Set: (AUG-CC-PVTZ AUX)
    Blend: AUG-CC-PVTZ-JKFIT
	 Reference Energy          =    -251.8120192387263785 [Eh]
	 Singles Energy            =      -0.0000000000000000 [Eh]
	 Same-Spin Energy          =      -0.2608771243706046 [Eh]
	 Opposite-Spin Energy      =      -0.9709082784691325 [Eh]
	 Correlation Energy        =      -1.2317854028397370 [Eh]
	 Total Energy              =    -253.0438046415661120 [Eh]

	 ================> DF-SCS-MP2 Energies <==================
	-----------------------------------------------------------
	 SCS Same-Spin Scale       =       0.3333333333333333 [-]
	 SCS Opposite-Spin Scale   =       1.2000000000000000 [-]
	 SCS Same-Spin Energy      =      -0.0869590414568682 [Eh]
	 SCS Opposite-Spin Energy  =      -1.1650899341629590 [Eh]
	 SCS Correlation Energy    =      -1.2520489756198272 [Eh]
	 SCS Total Energy          =    -253.0640682143462072 [Eh]
	-----------------------------------------------------------

  Dipole Moment: [D]
     X:     1.1943      Y:    -0.0361      Z:    -0.0221     Total:     1.1950

*** Psi4 exiting successfully. Buy a developer a beer!
