                               Psi4 1.3.2 release

  ==> Input File <==

--------------------------------------------------------------------------
#psi4
#
memory 32 gb

molecule  {
1 1
  N       -0.4143790    -0.0121880    -0.0011520
  C        0.8493700     0.8287480     0.0834240
  C       -0.4752788    -0.9277109     1.0540565
  C       -1.5938470     0.9107330     0.0921540
  C       -0.4800430    -0.7477380    -1.3048640
  C        2.1497460     0.0545660     0.0050420
  H        0.7750750     1.5510780    -0.7332340
  H        0.7754440     1.3733960     1.0279370
  H       -0.3910070    -0.4497550     2.0704360
  H       -1.4389040    -1.5086650     1.0841090
  H        0.3297530    -1.7131150     1.0308910
  H       -1.5511370     1.6195010    -0.7345430
  H       -2.5082090     0.3207370     0.0328800
  H       -1.5507480     1.4402480     1.0436560
  H       -0.3916640    -0.0274250    -2.1183980
  H        0.3293150    -1.4728840    -1.3521980
  H       -1.4393420    -1.2619000    -1.3629740
  H        2.9611190     0.7829970     0.0783990
  H        2.2763000    -0.6481610     0.8294170
  H        2.2759470    -0.4692660    -0.9431690
units angstrom
no_reorient  #important for SAPT in psi4, default
symmetry c1  #important for SAPT in psi4, default
}

set PROPERTIES_ORIGIN ["COM"]
properties('MP2/aug-cc-pvtz', properties = ['dipole'])
--------------------------------------------------------------------------

    Molecular point group: c1
  Charge       = 1
  Multiplicity = 1
  Basis Set: AUG-CC-PVTZ
    Blend: AUG-CC-PVTZ
  Basis Set: (AUG-CC-PVTZ AUX)
    Blend: AUG-CC-PVTZ-JKFIT

    Orbital Energies [Eh]
    ---------------------

    Doubly Occupied:

       1A    -15.864406     2A    -11.454987     3A    -11.450580
       4A    -11.449750     5A    -11.445908     6A    -11.383396
       7A     -1.524017     8A     -1.216718     9A     -1.171911
      10A     -1.171809    11A     -1.077250    12A     -0.990843
      13A     -0.877652    14A     -0.875055    15A     -0.853615
      16A     -0.796932    17A     -0.767823    18A     -0.745801
      19A     -0.739042    20A     -0.726319    21A     -0.707673
      22A     -0.705605    23A     -0.684516    24A     -0.678804
      25A     -0.672620

  @DF-RHF Final Energy:  -251.80208010769942

   => Energetics <=

    Nuclear Repulsion Energy =            285.9748956407863716
    One-Electron Energy =                -895.4878889792790915
    Two-Electron Energy =                 357.7109132307932668
    Total Energy =                       -251.8020801076994530
  Basis Set: (AUG-CC-PVTZ AUX)
    Blend: AUG-CC-PVTZ-RI
    Molecular point group: c1

    Geometry (in Angstrom), charge = 1, multiplicity = 1:

       Center              X                  Y                   Z               Mass
    ------------   -----------------  -----------------  -----------------  -----------------
         N           -0.414972161969    -0.021104645877     0.009125059478    14.003074004430
         C            0.848776838031     0.819831354123     0.093701059478    12.000000000000
         C           -0.475871961969    -0.936627545877     1.064333559478    12.000000000000
         C           -1.594440161969     0.901816354123     0.102431059478    12.000000000000
         C           -0.480636161969    -0.756654645877    -1.294586940522    12.000000000000
         C            2.149152838031     0.045649354123     0.015319059478    12.000000000000
         H            0.774481838031     1.542161354123    -0.722956940522     1.007825032230
         H            0.774850838031     1.364479354123     1.038214059478     1.007825032230
         H           -0.391600161969    -0.458671645877     2.080713059478     1.007825032230
         H           -1.439497161969    -1.517581645877     1.094386059478     1.007825032230
         H            0.329159838031    -1.722031645877     1.041168059478     1.007825032230
         H           -1.551730161969     1.610584354123    -0.724265940522     1.007825032230
         H           -2.508802161969     0.311820354123     0.043157059478     1.007825032230
         H           -1.551341161969     1.431331354123     1.053933059478     1.007825032230
         H           -0.392257161969    -0.036341645877    -2.108120940522     1.007825032230
         H            0.328721838031    -1.481800645877    -1.341920940522     1.007825032230
         H           -1.439935161969    -1.270816645877    -1.352696940522     1.007825032230
         H            2.960525838031     0.774080354123     0.088676059478     1.007825032230
         H            2.275706838031    -0.657077645877     0.839694059478     1.007825032230
         H            2.275353838031    -0.478182645877    -0.932891940522     1.007825032230

  Basis Set: AUG-CC-PVTZ
    Blend: AUG-CC-PVTZ
  Basis Set: (AUG-CC-PVTZ AUX)
    Blend: AUG-CC-PVTZ-JKFIT
	 Reference Energy          =    -251.8020801076994246 [Eh]
	 Singles Energy            =      -0.0000000000000000 [Eh]
	 Same-Spin Energy          =      -0.2620747718174028 [Eh]
	 Opposite-Spin Energy      =      -0.9714544921147152 [Eh]
	 Correlation Energy        =      -1.2335292639321180 [Eh]
	 Total Energy              =    -253.0356093716315513 [Eh]

	 ================> DF-SCS-MP2 Energies <==================
	-----------------------------------------------------------
	 SCS Same-Spin Scale       =       0.3333333333333333 [-]
	 SCS Opposite-Spin Scale   =       1.2000000000000000 [-]
	 SCS Same-Spin Energy      =      -0.0873582572724676 [Eh]
	 SCS Opposite-Spin Energy  =      -1.1657453905376582 [Eh]
	 SCS Correlation Energy    =      -1.2531036478101258 [Eh]
	 SCS Total Energy          =    -253.0551837555095460 [Eh]
	-----------------------------------------------------------

  Dipole Moment: [D]
     X:    -1.1754      Y:     0.0300      Z:    -0.0898     Total:     1.1792

*** Psi4 exiting successfully. Buy a developer a beer!
