                               Psi4 1.3.2 release

  ==> Input File <==

--------------------------------------------------------------------------
#psi4
#
memory 32 gb

molecule  {
1 1
  N       -0.4061907    -0.0261868     0.0198494
  C        0.8493700     0.8287480     0.0834240
  C       -0.4796340    -0.9931830     1.1295180
  C       -1.5938470     0.9107330     0.0921540
  C       -0.4800430    -0.7477380    -1.3048640
  C        2.1497460     0.0545660     0.0050420
  H        0.7918994     1.5584162    -0.7280513
  H        0.7754440     1.3733960     1.0279370
  H       -0.3910070    -0.4497550     2.0704360
  H       -1.4389040    -1.5086650     1.0841090
  H        0.3297530    -1.7131150     1.0308910
  H       -1.5511370     1.6195010    -0.7345430
  H       -2.5082090     0.3207370     0.0328800
  H       -1.5507480     1.4402480     1.0436560
  H       -0.3916640    -0.0274250    -2.1183980
  H        0.3293150    -1.4728840    -1.3521980
  H       -1.4393420    -1.2619000    -1.3629740
  H        2.9611190     0.7829970     0.0783990
  H        2.2763000    -0.6481610     0.8294170
  H        2.2759470    -0.4692660    -0.9431690
units angstrom
no_reorient  #important for SAPT in psi4, default
symmetry c1  #important for SAPT in psi4, default
}

set PROPERTIES_ORIGIN ["COM"]
properties('MP2/aug-cc-pvtz', properties = ['dipole'])
--------------------------------------------------------------------------

    Molecular point group: c1
  Charge       = 1
  Multiplicity = 1
  Basis Set: AUG-CC-PVTZ
    Blend: AUG-CC-PVTZ
  Basis Set: (AUG-CC-PVTZ AUX)
    Blend: AUG-CC-PVTZ-JKFIT

    Orbital Energies [Eh]
    ---------------------

    Doubly Occupied:

       1A    -15.861629     2A    -11.452419     3A    -11.449306
       4A    -11.448219     5A    -11.445266     6A    -11.381920
       7A     -1.500947     8A     -1.212632     9A     -1.169611
      10A     -1.164272    11A     -1.075789    12A     -0.989465
      13A     -0.872438    14A     -0.866327    15A     -0.846342
      16A     -0.795354    17A     -0.768221    18A     -0.742719
      19A     -0.734047    20A     -0.726047    21A     -0.720926
      22A     -0.718184    23A     -0.683912    24A     -0.680376
      25A     -0.670156

  @DF-RHF Final Energy:  -251.81147733326600

   => Energetics <=

    Nuclear Repulsion Energy =            284.0420011400146336
    One-Electron Energy =                -891.7539011920490566
    Two-Electron Energy =                 355.9004227187684819
    Total Energy =                       -251.8114773332659979
  Basis Set: (AUG-CC-PVTZ AUX)
    Blend: AUG-CC-PVTZ-RI
    Molecular point group: c1

    Geometry (in Angstrom), charge = 1, multiplicity = 1:

       Center              X                  Y                   Z               Mass
    ------------   -----------------  -----------------  -----------------  -----------------
         N           -0.407684470966    -0.024046054082     0.016452534537    14.003074004430
         C            0.847876229034     0.830888745918     0.080027134537    12.000000000000
         C           -0.481127770966    -0.991042254082     1.126121134537    12.000000000000
         C           -1.595340770966     0.912873745918     0.088757134537    12.000000000000
         C           -0.481536770966    -0.745597254082    -1.308260865463    12.000000000000
         C            2.148252229034     0.056706745918     0.001645134537    12.000000000000
         H            0.790405629034     1.560556945918    -0.731448165463     1.007825032230
         H            0.773950229034     1.375536745918     1.024540134537     1.007825032230
         H           -0.392500770966    -0.447614254082     2.067039134537     1.007825032230
         H           -1.440397770966    -1.506524254082     1.080712134537     1.007825032230
         H            0.328259229034    -1.710974254082     1.027494134537     1.007825032230
         H           -1.552630770966     1.621641745918    -0.737939865463     1.007825032230
         H           -2.509702770966     0.322877745918     0.029483134537     1.007825032230
         H           -1.552241770966     1.442388745918     1.040259134537     1.007825032230
         H           -0.393157770966    -0.025284254082    -2.121794865463     1.007825032230
         H            0.327821229034    -1.470743254082    -1.355594865463     1.007825032230
         H           -1.440835770966    -1.259759254082    -1.366370865463     1.007825032230
         H            2.959625229034     0.785137745918     0.075002134537     1.007825032230
         H            2.274806229034    -0.646020254082     0.826020134537     1.007825032230
         H            2.274453229034    -0.467125254082    -0.946565865463     1.007825032230

  Basis Set: AUG-CC-PVTZ
    Blend: AUG-CC-PVTZ
  Basis Set: (AUG-CC-PVTZ AUX)
    Blend: AUG-CC-PVTZ-JKFIT
	 Reference Energy          =    -251.8114773332659979 [Eh]
	 Singles Energy            =      -0.0000000000000000 [Eh]
	 Same-Spin Energy          =      -0.2609791283321344 [Eh]
	 Opposite-Spin Energy      =      -0.9708668285967941 [Eh]
	 Correlation Energy        =      -1.2318459569289284 [Eh]
	 Total Energy              =    -253.0433232901949339 [Eh]

	 ================> DF-SCS-MP2 Energies <==================
	-----------------------------------------------------------
	 SCS Same-Spin Scale       =       0.3333333333333333 [-]
	 SCS Opposite-Spin Scale   =       1.2000000000000000 [-]
	 SCS Same-Spin Energy      =      -0.0869930427773781 [Eh]
	 SCS Opposite-Spin Energy  =      -1.1650401943161528 [Eh]
	 SCS Correlation Energy    =      -1.2520332370935310 [Eh]
	 SCS Total Energy          =    -253.0635105703595400 [Eh]
	-----------------------------------------------------------

  Dipole Moment: [D]
     X:    -1.2089      Y:    -0.0012      Z:    -0.0545     Total:     1.2101

*** Psi4 exiting successfully. Buy a developer a beer!
