                               Psi4 1.3.2 release

  ==> Input File <==

--------------------------------------------------------------------------
#psi4
#
memory 32 gb

molecule  {
1 1
  N       -0.4143790    -0.0121880    -0.0011520
  C        0.7662464     0.7734351     0.0778610
  C       -0.4796340    -0.9931830     1.1295180
  C       -1.5938470     0.9107330     0.0921540
  C       -0.4800430    -0.7477380    -1.3048640
  C        2.1497460     0.0545660     0.0050420
  H        0.7750750     1.5510780    -0.7332340
  H        0.7754440     1.3733960     1.0279370
  H       -0.3910070    -0.4497550     2.0704360
  H       -1.4389040    -1.5086650     1.0841090
  H        0.3297530    -1.7131150     1.0308910
  H       -1.5511370     1.6195010    -0.7345430
  H       -2.5082090     0.3207370     0.0328800
  H       -1.5507480     1.4402480     1.0436560
  H       -0.3916640    -0.0274250    -2.1183980
  H        0.3293150    -1.4728840    -1.3521980
  H       -1.4393420    -1.2619000    -1.3629740
  H        2.9611190     0.7829970     0.0783990
  H        2.2763000    -0.6481610     0.8294170
  H        2.2759470    -0.4692660    -0.9431690
units angstrom
no_reorient  #important for SAPT in psi4, default
symmetry c1  #important for SAPT in psi4, default
}

set PROPERTIES_ORIGIN ["COM"]
properties('MP2/aug-cc-pvtz', properties = ['dipole'])
--------------------------------------------------------------------------

    Molecular point group: c1
  Charge       = 1
  Multiplicity = 1
  Basis Set: AUG-CC-PVTZ
    Blend: AUG-CC-PVTZ
  Basis Set: (AUG-CC-PVTZ AUX)
    Blend: AUG-CC-PVTZ-JKFIT

    Orbital Energies [Eh]
    ---------------------

    Doubly Occupied:

       1A    -15.867021     2A    -11.451072     3A    -11.450584
       4A    -11.450571     5A    -11.449067     6A    -11.382619
       7A     -1.523616     8A     -1.204853     9A     -1.172664
      10A     -1.172648    11A     -1.087064    12A     -0.986075
      13A     -0.878634    14A     -0.873396    15A     -0.851677
      16A     -0.790014    17A     -0.771953    18A     -0.739488
      19A     -0.737193    20A     -0.726930    21A     -0.724599
      22A     -0.722406    23A     -0.695856    24A     -0.660140
      25A     -0.658971

  @DF-RHF Final Energy:  -251.80354723818516

   => Energetics <=

    Nuclear Repulsion Energy =            285.4925198742887460
    One-Electron Energy =                -894.5339151272119125
    Two-Electron Energy =                 357.2378480147380060
    Total Energy =                       -251.8035472381851605
  Basis Set: (AUG-CC-PVTZ AUX)
    Blend: AUG-CC-PVTZ-RI
    Molecular point group: c1

    Geometry (in Angstrom), charge = 1, multiplicity = 1:

       Center              X                  Y                   Z               Mass
    ------------   -----------------  -----------------  -----------------  -----------------
         N           -0.403058482102    -0.004655016678    -0.000394370968    14.003074004430
         C            0.777566917898     0.780968083322     0.078618629032    12.000000000000
         C           -0.468313482102    -0.985650016678     1.130275629032    12.000000000000
         C           -1.582526482102     0.918265983322     0.092911629032    12.000000000000
         C           -0.468722482102    -0.740205016678    -1.304106370968    12.000000000000
         C            2.161066517898     0.062098983322     0.005799629032    12.000000000000
         H            0.786395517898     1.558610983322    -0.732476370968     1.007825032230
         H            0.786764517898     1.380928983322     1.028694629032     1.007825032230
         H           -0.379686482102    -0.442222016678     2.071193629032     1.007825032230
         H           -1.427583482102    -1.501132016678     1.084866629032     1.007825032230
         H            0.341073517898    -1.705582016678     1.031648629032     1.007825032230
         H           -1.539816482102     1.627033983322    -0.733785370968     1.007825032230
         H           -2.496888482102     0.328269983322     0.033637629032     1.007825032230
         H           -1.539427482102     1.447780983322     1.044413629032     1.007825032230
         H           -0.380343482102    -0.019892016678    -2.117640370968     1.007825032230
         H            0.340635517898    -1.465351016678    -1.351440370968     1.007825032230
         H           -1.428021482102    -1.254367016678    -1.362216370968     1.007825032230
         H            2.972439517898     0.790529983322     0.079156629032     1.007825032230
         H            2.287620517898    -0.640628016678     0.830174629032     1.007825032230
         H            2.287267517898    -0.461733016678    -0.942411370968     1.007825032230

  Basis Set: AUG-CC-PVTZ
    Blend: AUG-CC-PVTZ
  Basis Set: (AUG-CC-PVTZ AUX)
    Blend: AUG-CC-PVTZ-JKFIT
	 Reference Energy          =    -251.8035472381851605 [Eh]
	 Singles Energy            =      -0.0000000000000000 [Eh]
	 Same-Spin Energy          =      -0.2615341143983664 [Eh]
	 Opposite-Spin Energy      =      -0.9712027908718314 [Eh]
	 Correlation Energy        =      -1.2327369052701977 [Eh]
	 Total Energy              =    -253.0362841434553616 [Eh]

	 ================> DF-SCS-MP2 Energies <==================
	-----------------------------------------------------------
	 SCS Same-Spin Scale       =       0.3333333333333333 [-]
	 SCS Opposite-Spin Scale   =       1.2000000000000000 [-]
	 SCS Same-Spin Energy      =      -0.0871780381327888 [Eh]
	 SCS Opposite-Spin Energy  =      -1.1654433490461975 [Eh]
	 SCS Correlation Energy    =      -1.2526213871789862 [Eh]
	 SCS Total Energy          =    -253.0561686253641369 [Eh]
	-----------------------------------------------------------

  Dipole Moment: [D]
     X:    -1.3653      Y:    -0.1149      Z:    -0.0113     Total:     1.3701

*** Psi4 exiting successfully. Buy a developer a beer!
