                               Psi4 1.3.2 release

  ==> Input File <==

--------------------------------------------------------------------------
#psi4
#
memory 32 gb

molecule  {
1 1
  N       -0.3976200    -0.0399252     0.0408701
  C        0.8493700     0.8287480     0.0834240
  C       -0.4796340    -0.9931830     1.1295180
  C       -1.5938470     0.9107330     0.0921540
  C       -0.4800430    -0.7477380    -1.3048640
  C        2.1497460     0.0545660     0.0050420
  H        0.8087412     1.5655321    -0.7226214
  H        0.7754440     1.3733960     1.0279370
  H       -0.3910070    -0.4497550     2.0704360
  H       -1.4389040    -1.5086650     1.0841090
  H        0.3297530    -1.7131150     1.0308910
  H       -1.5511370     1.6195010    -0.7345430
  H       -2.5082090     0.3207370     0.0328800
  H       -1.5507480     1.4402480     1.0436560
  H       -0.3916640    -0.0274250    -2.1183980
  H        0.3293150    -1.4728840    -1.3521980
  H       -1.4393420    -1.2619000    -1.3629740
  H        2.9611190     0.7829970     0.0783990
  H        2.2763000    -0.6481610     0.8294170
  H        2.2759470    -0.4692660    -0.9431690
units angstrom
no_reorient  #important for SAPT in psi4, default
symmetry c1  #important for SAPT in psi4, default
}

set PROPERTIES_ORIGIN ["COM"]
properties('MP2/aug-cc-pvtz', properties = ['dipole'])
--------------------------------------------------------------------------

    Molecular point group: c1
  Charge       = 1
  Multiplicity = 1
  Basis Set: AUG-CC-PVTZ
    Blend: AUG-CC-PVTZ
  Basis Set: (AUG-CC-PVTZ AUX)
    Blend: AUG-CC-PVTZ-JKFIT

    Orbital Energies [Eh]
    ---------------------

    Doubly Occupied:

       1A    -15.861699     2A    -11.452366     3A    -11.450581
       4A    -11.449301     5A    -11.443296     6A    -11.381294
       7A     -1.501366     8A     -1.212856     9A     -1.172218
      10A     -1.161792    11A     -1.075271    12A     -0.989220
      13A     -0.873609    14A     -0.865933    15A     -0.846532
      16A     -0.794935    17A     -0.768145    18A     -0.746263
      19A     -0.735299    20A     -0.726113    21A     -0.721187
      22A     -0.716002    23A     -0.681575    24A     -0.679438
      25A     -0.668698

  @DF-RHF Final Energy:  -251.80879490536034

   => Energetics <=

    Nuclear Repulsion Energy =            284.0413765732210436
    One-Electron Energy =                -891.7503660383644046
    Two-Electron Energy =                 355.9001945597829604
    Total Energy =                       -251.8087949053603438
  Basis Set: (AUG-CC-PVTZ AUX)
    Blend: AUG-CC-PVTZ-RI
    Molecular point group: c1

    Geometry (in Angstrom), charge = 1, multiplicity = 1:

       Center              X                  Y                   Z               Mass
    ------------   -----------------  -----------------  -----------------  -----------------
         N           -0.400668482733    -0.035682505003     0.034070466674    14.003074004430
         C            0.846321517267     0.832990694997     0.076624366674    12.000000000000
         C           -0.482682482733    -0.988940305003     1.122718366674    12.000000000000
         C           -1.596895482733     0.914975694997     0.085354366674    12.000000000000
         C           -0.483091482733    -0.743495305003    -1.311663633326    12.000000000000
         C            2.146697517267     0.058808694997    -0.001757633326    12.000000000000
         H            0.805692717267     1.569774794997    -0.729421033326     1.007825032230
         H            0.772395517267     1.377638694997     1.021137366674     1.007825032230
         H           -0.394055482733    -0.445512305003     2.063636366674     1.007825032230
         H           -1.441952482733    -1.504422305003     1.077309366674     1.007825032230
         H            0.326704517267    -1.708872305003     1.024091366674     1.007825032230
         H           -1.554185482733     1.623743694997    -0.741342633326     1.007825032230
         H           -2.511257482733     0.324979694997     0.026080366674     1.007825032230
         H           -1.553796482733     1.444490694997     1.036856366674     1.007825032230
         H           -0.394712482733    -0.023182305003    -2.125197633326     1.007825032230
         H            0.326266517267    -1.468641305003    -1.358997633326     1.007825032230
         H           -1.442390482733    -1.257657305003    -1.369773633326     1.007825032230
         H            2.958070517267     0.787239694997     0.071599366674     1.007825032230
         H            2.273251517267    -0.643918305003     0.822617366674     1.007825032230
         H            2.272898517267    -0.465023305003    -0.949968633326     1.007825032230

  Basis Set: AUG-CC-PVTZ
    Blend: AUG-CC-PVTZ
  Basis Set: (AUG-CC-PVTZ AUX)
    Blend: AUG-CC-PVTZ-JKFIT
	 Reference Energy          =    -251.8087949053603438 [Eh]
	 Singles Energy            =      -0.0000000000000000 [Eh]
	 Same-Spin Energy          =      -0.2610700214063237 [Eh]
	 Opposite-Spin Energy      =      -0.9710760314908762 [Eh]
	 Correlation Energy        =      -1.2321460528971999 [Eh]
	 Total Energy              =    -253.0409409582575506 [Eh]

	 ================> DF-SCS-MP2 Energies <==================
	-----------------------------------------------------------
	 SCS Same-Spin Scale       =       0.3333333333333333 [-]
	 SCS Opposite-Spin Scale   =       1.2000000000000000 [-]
	 SCS Same-Spin Energy      =      -0.0870233404687746 [Eh]
	 SCS Opposite-Spin Energy  =      -1.1652912377890514 [Eh]
	 SCS Correlation Energy    =      -1.2523145782578260 [Eh]
	 SCS Total Energy          =    -253.0611094836181678 [Eh]
	-----------------------------------------------------------

  Dipole Moment: [D]
     X:    -1.2324      Y:     0.0364      Z:    -0.1050     Total:     1.2374

*** Psi4 exiting successfully. Buy a developer a beer!
