                               Psi4 1.4a3.dev225

  ==> Input File <==

--------------------------------------------------------------------------
#psi4
#
memory 32 gb

molecule  {
1 1
  N        0.4178150    -0.0006520    -0.0000630
  C       -0.8990468     0.8511410    -0.0009813
  C        0.4729990    -0.9017910    -1.1962230
  C        1.5793660     0.9480380    -0.0539900
  C        0.5237060    -0.8216500     1.2493860
  C       -2.1433350     0.0208080     0.0021430
  H       -0.7927630     1.4633150     0.8819470
  H       -0.7964710     1.4567520    -0.8889780
  H        0.3340020    -0.2978660    -2.0924670
  H        1.4489560    -1.3852540    -1.2134470
  H       -0.3098240    -1.6525160    -1.1165640
  H        1.5295780     1.6068410     0.8121160
  H        2.5017250     0.3690020    -0.0365590
  H        1.5128670     1.5259610    -0.9748480
  H        0.4511560    -0.1564930     2.1092880
  H       -0.2781350    -1.5558310     1.2658670
  H        1.4885380    -1.3271890     1.2430600
  H       -2.9659450     0.7401210     0.0203810
  H       -2.2593290    -0.5863990    -0.8962730
  H       -2.2430950    -0.6122210     0.8847330
units angstrom
no_reorient  #important for SAPT in psi4, default
symmetry c1  #important for SAPT in psi4, default
}

set PROPERTIES_ORIGIN ["COM"]
properties('MP2/aug-cc-pvtz', properties = ['dipole'])
--------------------------------------------------------------------------

    Molecular point group: c1
  Charge       = 1
  Multiplicity = 1
  Basis Set: AUG-CC-PVTZ
    Blend: AUG-CC-PVTZ
  Basis Set: (AUG-CC-PVTZ AUX)
    Blend: AUG-CC-PVTZ-JKFIT

    Orbital Energies [Eh]
    ---------------------

    Doubly Occupied:

       1A    -15.856686     2A    -11.454894     3A    -11.446294
       4A    -11.445384     5A    -11.445365     6A    -11.383211
       7A     -1.491317     8A     -1.217854     9A     -1.164378
      10A     -1.164185    11A     -1.071488    12A     -0.990967
      13A     -0.868175    14A     -0.864695    15A     -0.843059
      16A     -0.800040    17A     -0.767706    18A     -0.742752
      19A     -0.732482    20A     -0.725471    21A     -0.720783
      22A     -0.715758    23A     -0.694269    24A     -0.675992
      25A     -0.672373

  @DF-RHF Final Energy:  -251.81030011828500

   => Energetics <=

    Nuclear Repulsion Energy =            283.5472374643206876
    One-Electron Energy =                -890.8039188370158854
    Two-Electron Energy =                 355.4463812544101984
    Total Energy =                       -251.8103001182849994
  Basis Set: (AUG-CC-PVTZ AUX)
    Blend: AUG-CC-PVTZ-RI
    Molecular point group: c1

    Geometry (in Angstrom), charge = 1, multiplicity = 1:

       Center              X                  Y                   Z               Mass
    ------------   -----------------  -----------------  -----------------  -----------------
         N            0.419253373767    -0.008987046561    -0.000078622727    14.003074004430
         C           -0.897608426233     0.842805953439    -0.000996922727    12.000000000000
         C            0.474437373767    -0.910126046561    -1.196238622727    12.000000000000
         C            1.580804373767     0.939702953439    -0.054005622727    12.000000000000
         C            0.525144373767    -0.829985046561     1.249370377273    12.000000000000
         C           -2.141896626233     0.012472953439     0.002127377273    12.000000000000
         H           -0.791324626233     1.454979953439     0.881931377273     1.007825032230
         H           -0.795032626233     1.448416953439    -0.888993622727     1.007825032230
         H            0.335440373767    -0.306201046561    -2.092482622727     1.007825032230
         H            1.450394373767    -1.393589046561    -1.213462622727     1.007825032230
         H           -0.308385626233    -1.660851046561    -1.116579622727     1.007825032230
         H            1.531016373767     1.598505953439     0.812100377273     1.007825032230
         H            2.503163373767     0.360666953439    -0.036574622727     1.007825032230
         H            1.514305373767     1.517625953439    -0.974863622727     1.007825032230
         H            0.452594373767    -0.164828046561     2.109272377273     1.007825032230
         H           -0.276696626233    -1.564166046561     1.265851377273     1.007825032230
         H            1.489976373767    -1.335524046561     1.243044377273     1.007825032230
         H           -2.964506626233     0.731785953439     0.020365377273     1.007825032230
         H           -2.257890626233    -0.594734046561    -0.896288622727     1.007825032230
         H           -2.241656626233    -0.620556046561     0.884717377273     1.007825032230

  Basis Set: AUG-CC-PVTZ
    Blend: AUG-CC-PVTZ
  Basis Set: (AUG-CC-PVTZ AUX)
    Blend: AUG-CC-PVTZ-JKFIT
	 Reference Energy          =    -251.8103001182849994 [Eh]
	 Singles Energy            =      -0.0000000000000000 [Eh]
	 Same-Spin Energy          =      -0.2609971009435769 [Eh]
	 Opposite-Spin Energy      =      -0.9711276433480873 [Eh]
	 Correlation Energy        =      -1.2321247442916641 [Eh]
	 Total Energy              =    -253.0424248625766666 [Eh]

	 ================> DF-SCS-MP2 Energies <==================
	-----------------------------------------------------------
	 SCS Same-Spin Scale       =       0.3333333333333333 [-]
	 SCS Opposite-Spin Scale   =       1.2000000000000000 [-]
	 SCS Same-Spin Energy      =      -0.0869990336478590 [Eh]
	 SCS Opposite-Spin Energy  =      -1.1653531720177048 [Eh]
	 SCS Correlation Energy    =      -1.2523522056655638 [Eh]
	 SCS Total Energy          =    -253.0626523239505730 [Eh]
	-----------------------------------------------------------

  Dipole Moment: [D]
     X:     1.0792      Y:     0.0192      Z:    -0.0016     Total:     1.0793

*** Psi4 exiting successfully. Buy a developer a beer!
