                               Psi4 1.3.2 release

  ==> Input File <==

--------------------------------------------------------------------------
#psi4
#
memory 32 gb

molecule  {
1 1
  N       -0.4143790    -0.0121880    -0.0011520
  C        0.8918713     0.7617907     0.0766628
  C       -0.4796340    -0.9931830     1.1295180
  C       -1.6407787     0.8480502     0.0858408
  C       -0.4800430    -0.7477380    -1.3048640
  C        2.1497460     0.0545660     0.0050420
  H        0.7750750     1.5510780    -0.7332340
  H        0.7754440     1.3733960     1.0279370
  H       -0.3910070    -0.4497550     2.0704360
  H       -1.4389040    -1.5086650     1.0841090
  H        0.3297530    -1.7131150     1.0308910
  H       -1.5511370     1.6195010    -0.7345430
  H       -2.5082090     0.3207370     0.0328800
  H       -1.5507480     1.4402480     1.0436560
  H       -0.3916640    -0.0274250    -2.1183980
  H        0.3293150    -1.4728840    -1.3521980
  H       -1.4393420    -1.2619000    -1.3629740
  H        2.9611190     0.7829970     0.0783990
  H        2.2763000    -0.6481610     0.8294170
  H        2.2759470    -0.4692660    -0.9431690
units angstrom
no_reorient  #important for SAPT in psi4, default
symmetry c1  #important for SAPT in psi4, default
}

set PROPERTIES_ORIGIN ["COM"]
properties('MP2/aug-cc-pvtz', properties = ['dipole'])
--------------------------------------------------------------------------

    Molecular point group: c1
  Charge       = 1
  Multiplicity = 1
  Basis Set: AUG-CC-PVTZ
    Blend: AUG-CC-PVTZ
  Basis Set: (AUG-CC-PVTZ AUX)
    Blend: AUG-CC-PVTZ-JKFIT

    Orbital Energies [Eh]
    ---------------------

    Doubly Occupied:

       1A    -15.862113     2A    -11.458034     3A    -11.450348
       4A    -11.446321     5A    -11.446307     6A    -11.381404
       7A     -1.501770     8A     -1.227772     9A     -1.167032
      10A     -1.163118    11A     -1.083079    12A     -0.982764
      13A     -0.870290    14A     -0.860572    15A     -0.854896
      16A     -0.794080    17A     -0.780084    18A     -0.738867
      19A     -0.735222    20A     -0.730600    21A     -0.720818
      22A     -0.707323    23A     -0.704684    24A     -0.673246
      25A     -0.653461

  @DF-RHF Final Energy:  -251.79461842546959

   => Energetics <=

    Nuclear Repulsion Energy =            284.5357950120269379
    One-Electron Energy =                -892.6724154688479302
    Two-Electron Energy =                 356.3420020313513987
    Total Energy =                       -251.7946184254695936
  Basis Set: (AUG-CC-PVTZ AUX)
    Blend: AUG-CC-PVTZ-RI
    Molecular point group: c1

    Geometry (in Angstrom), charge = 1, multiplicity = 1:

       Center              X                  Y                   Z               Mass
    ------------   -----------------  -----------------  -----------------  -----------------
         N           -0.413775656921     0.005467555490     0.000628601626    14.003074004430
         C            0.892474643079     0.779446255490     0.078443401626    12.000000000000
         C           -0.479030656921    -0.975527444510     1.131298601626    12.000000000000
         C           -1.640175356921     0.865705755490     0.087621401626    12.000000000000
         C           -0.479439656921    -0.730082444510    -1.303083398374    12.000000000000
         C            2.150349343079     0.072221555490     0.006822601626    12.000000000000
         H            0.775678343079     1.568733555490    -0.731453398374     1.007825032230
         H            0.776047343079     1.391051555490     1.029717601626     1.007825032230
         H           -0.390403656921    -0.432099444510     2.072216601626     1.007825032230
         H           -1.438300656921    -1.491009444510     1.085889601626     1.007825032230
         H            0.330356343079    -1.695459444510     1.032671601626     1.007825032230
         H           -1.550533656921     1.637156555490    -0.732762398374     1.007825032230
         H           -2.507605656921     0.338392555490     0.034660601626     1.007825032230
         H           -1.550144656921     1.457903555490     1.045436601626     1.007825032230
         H           -0.391060656921    -0.009769444510    -2.116617398374     1.007825032230
         H            0.329918343079    -1.455228444510    -1.350417398374     1.007825032230
         H           -1.438738656921    -1.244244444510    -1.361193398374     1.007825032230
         H            2.961722343079     0.800652555490     0.080179601626     1.007825032230
         H            2.276903343079    -0.630505444510     0.831197601626     1.007825032230
         H            2.276550343079    -0.451610444510    -0.941388398374     1.007825032230

  Basis Set: AUG-CC-PVTZ
    Blend: AUG-CC-PVTZ
  Basis Set: (AUG-CC-PVTZ AUX)
    Blend: AUG-CC-PVTZ-JKFIT
	 Reference Energy          =    -251.7946184254695936 [Eh]
	 Singles Energy            =      -0.0000000000000000 [Eh]
	 Same-Spin Energy          =      -0.2621113628759914 [Eh]
	 Opposite-Spin Energy      =      -0.9724713044786566 [Eh]
	 Correlation Energy        =      -1.2345826673546481 [Eh]
	 Total Energy              =    -253.0292010928242519 [Eh]

	 ================> DF-SCS-MP2 Energies <==================
	-----------------------------------------------------------
	 SCS Same-Spin Scale       =       0.3333333333333333 [-]
	 SCS Opposite-Spin Scale   =       1.2000000000000000 [-]
	 SCS Same-Spin Energy      =      -0.0873704542919971 [Eh]
	 SCS Opposite-Spin Energy  =      -1.1669655653743878 [Eh]
	 SCS Correlation Energy    =      -1.2543360196663849 [Eh]
	 SCS Total Energy          =    -253.0489544451359905 [Eh]
	-----------------------------------------------------------

  Dipole Moment: [D]
     X:    -1.1168      Y:    -0.0195      Z:    -0.0017     Total:     1.1170

*** Psi4 exiting successfully. Buy a developer a beer!
