                               Psi4 1.3.2 release

  ==> Input File <==

--------------------------------------------------------------------------
#psi4
#
memory 32 gb

molecule  {
1 1
  N       -0.4130657    -0.0024370     0.0074596
  C        0.8493700     0.8287480     0.0834240
  C       -0.4796340    -0.9931830     1.1295180
  C       -1.5938470     0.9107330     0.0921540
  C       -0.4800430    -0.7477380    -1.3048640
  C        2.1497460     0.0545660     0.0050420
  H        0.7750750     1.5510780    -0.7332340
  H        0.7754440     1.3733960     1.0279370
  H       -0.3903103    -0.4415885     2.0656057
  H       -1.4389040    -1.5086650     1.0841090
  H        0.3297530    -1.7131150     1.0308910
  H       -1.5511370     1.6195010    -0.7345430
  H       -2.5082090     0.3207370     0.0328800
  H       -1.5507480     1.4402480     1.0436560
  H       -0.3916640    -0.0274250    -2.1183980
  H        0.3293150    -1.4728840    -1.3521980
  H       -1.4393420    -1.2619000    -1.3629740
  H        2.9611190     0.7829970     0.0783990
  H        2.2763000    -0.6481610     0.8294170
  H        2.2759470    -0.4692660    -0.9431690
units angstrom
no_reorient  #important for SAPT in psi4, default
symmetry c1  #important for SAPT in psi4, default
}

set PROPERTIES_ORIGIN ["COM"]
properties('MP2/aug-cc-pvtz', properties = ['dipole'])
--------------------------------------------------------------------------

    Molecular point group: c1
  Charge       = 1
  Multiplicity = 1
  Basis Set: AUG-CC-PVTZ
    Blend: AUG-CC-PVTZ
  Basis Set: (AUG-CC-PVTZ AUX)
    Blend: AUG-CC-PVTZ-JKFIT

    Orbital Energies [Eh]
    ---------------------

    Doubly Occupied:

       1A    -15.861404     2A    -11.451928     3A    -11.448202
       4A    -11.447664     5A    -11.447341     6A    -11.382617
       7A     -1.500955     8A     -1.212985     9A     -1.167417
      10A     -1.165308    11A     -1.077510    12A     -0.989269
      13A     -0.871006    14A     -0.867516    15A     -0.845742
      16A     -0.795730    17A     -0.769294    18A     -0.740968
      19A     -0.733490    20A     -0.726120    21A     -0.721619
      22A     -0.715385    23A     -0.688631    24A     -0.680000
      25A     -0.670526

  @DF-RHF Final Energy:  -251.81210431261019

   => Energetics <=

    Nuclear Repulsion Energy =            284.0668804570038333
    One-Electron Energy =                -891.8007172630753985
    Two-Electron Energy =                 355.9217324934614339
    Total Energy =                       -251.8121043126101881
  Basis Set: (AUG-CC-PVTZ AUX)
    Blend: AUG-CC-PVTZ-RI
    Molecular point group: c1

    Geometry (in Angstrom), charge = 1, multiplicity = 1:

       Center              X                  Y                   Z               Mass
    ------------   -----------------  -----------------  -----------------  -----------------
         N           -0.413282411813    -0.004080104472     0.006146279767    14.003074004430
         C            0.849153288187     0.827104895528     0.082110679767    12.000000000000
         C           -0.479850711813    -0.994826104472     1.128204679767    12.000000000000
         C           -1.594063711813     0.909089895528     0.090840679767    12.000000000000
         C           -0.480259711813    -0.749381104472    -1.306177320233    12.000000000000
         C            2.149529288187     0.052922895528     0.003728679767    12.000000000000
         H            0.774858288187     1.549434895528    -0.734547320233     1.007825032230
         H            0.775227288187     1.371752895528     1.026623679767     1.007825032230
         H           -0.390527011813    -0.443231604472     2.064292379767     1.007825032230
         H           -1.439120711813    -1.510308104472     1.082795679767     1.007825032230
         H            0.329536288187    -1.714758104472     1.029577679767     1.007825032230
         H           -1.551353711813     1.617857895528    -0.735856320233     1.007825032230
         H           -2.508425711813     0.319093895528     0.031566679767     1.007825032230
         H           -1.550964711813     1.438604895528     1.042342679767     1.007825032230
         H           -0.391880711813    -0.029068104472    -2.119711320233     1.007825032230
         H            0.329098288187    -1.474527104472    -1.353511320233     1.007825032230
         H           -1.439558711813    -1.263543104472    -1.364287320233     1.007825032230
         H            2.960902288187     0.781353895528     0.077085679767     1.007825032230
         H            2.276083288187    -0.649804104472     0.828103679767     1.007825032230
         H            2.275730288187    -0.470909104472    -0.944482320233     1.007825032230

  Basis Set: AUG-CC-PVTZ
    Blend: AUG-CC-PVTZ
  Basis Set: (AUG-CC-PVTZ AUX)
    Blend: AUG-CC-PVTZ-JKFIT
	 Reference Energy          =    -251.8121043126101881 [Eh]
	 Singles Energy            =      -0.0000000000000000 [Eh]
	 Same-Spin Energy          =      -0.2609850548885190 [Eh]
	 Opposite-Spin Energy      =      -0.9708623475404869 [Eh]
	 Correlation Energy        =      -1.2318474024290058 [Eh]
	 Total Energy              =    -253.0439517150391850 [Eh]

	 ================> DF-SCS-MP2 Energies <==================
	-----------------------------------------------------------
	 SCS Same-Spin Scale       =       0.3333333333333333 [-]
	 SCS Opposite-Spin Scale   =       1.2000000000000000 [-]
	 SCS Same-Spin Energy      =      -0.0869950182961730 [Eh]
	 SCS Opposite-Spin Energy  =      -1.1650348170485842 [Eh]
	 SCS Correlation Energy    =      -1.2520298353447572 [Eh]
	 SCS Total Energy          =    -253.0641341479549453 [Eh]
	-----------------------------------------------------------

  Dipole Moment: [D]
     X:    -1.1903      Y:    -0.0637      Z:    -0.0265     Total:     1.1923

*** Psi4 exiting successfully. Buy a developer a beer!
