                               Psi4 1.3.2 release

  ==> Input File <==

--------------------------------------------------------------------------
#psi4
#
memory 32 gb

molecule  {
1 1
  N       -0.4143790    -0.0121880    -0.0011520
  C        0.8191039     0.8721168     0.0878038
  C       -0.4796340    -0.9931830     1.1295180
  C       -1.5607548     0.9511265     0.0962217
  C       -0.4800430    -0.7477380    -1.3048640
  C        2.1497460     0.0545660     0.0050420
  H        0.7750750     1.5510780    -0.7332340
  H        0.7754440     1.3733960     1.0279370
  H       -0.3910070    -0.4497550     2.0704360
  H       -1.4389040    -1.5086650     1.0841090
  H        0.3297530    -1.7131150     1.0308910
  H       -1.5511370     1.6195010    -0.7345430
  H       -2.5082090     0.3207370     0.0328800
  H       -1.5507480     1.4402480     1.0436560
  H       -0.3916640    -0.0274250    -2.1183980
  H        0.3293150    -1.4728840    -1.3521980
  H       -1.4393420    -1.2619000    -1.3629740
  H        2.9611190     0.7829970     0.0783990
  H        2.2763000    -0.6481610     0.8294170
  H        2.2759470    -0.4692660    -0.9431690
units angstrom
no_reorient  #important for SAPT in psi4, default
symmetry c1  #important for SAPT in psi4, default
}

set PROPERTIES_ORIGIN ["COM"]
properties('MP2/aug-cc-pvtz', properties = ['dipole'])
--------------------------------------------------------------------------

    Molecular point group: c1
  Charge       = 1
  Multiplicity = 1
  Basis Set: AUG-CC-PVTZ
    Blend: AUG-CC-PVTZ
  Basis Set: (AUG-CC-PVTZ AUX)
    Blend: AUG-CC-PVTZ-JKFIT

    Orbital Energies [Eh]
    ---------------------

    Doubly Occupied:

       1A    -15.861472     2A    -11.450163     3A    -11.447997
       4A    -11.447987     5A    -11.447959     6A    -11.383325
       7A     -1.500927     8A     -1.204898     9A     -1.169739
      10A     -1.167019    11A     -1.072600    12A     -0.994364
      13A     -0.872640    14A     -0.872240    15A     -0.844358
      16A     -0.799355    17A     -0.759850    18A     -0.745285
      19A     -0.733940    20A     -0.729968    21A     -0.719869
      22A     -0.719385    23A     -0.682846    24A     -0.679838
      25A     -0.666209

  @DF-RHF Final Energy:  -251.80666287187597

   => Energetics <=

    Nuclear Repulsion Energy =            283.7825046383380823
    One-Electron Energy =                -891.2298645483808741
    Two-Electron Energy =                 355.6406970381668202
    Total Energy =                       -251.8066628718759716
  Basis Set: (AUG-CC-PVTZ AUX)
    Blend: AUG-CC-PVTZ-RI
    Molecular point group: c1

    Geometry (in Angstrom), charge = 1, multiplicity = 1:

       Center              X                  Y                   Z               Mass
    ------------   -----------------  -----------------  -----------------  -----------------
         N           -0.414763914852    -0.023595576108    -0.002302451689    14.003074004430
         C            0.818718985148     0.860709223892     0.086653348311    12.000000000000
         C           -0.480018914852    -1.004590576108     1.128367548311    12.000000000000
         C           -1.561139714852     0.939718923892     0.095071248311    12.000000000000
         C           -0.480427914852    -0.759145576108    -1.306014451689    12.000000000000
         C            2.149361085148     0.043158423892     0.003891548311    12.000000000000
         H            0.774690085148     1.539670423892    -0.734384451689     1.007825032230
         H            0.775059085148     1.361988423892     1.026786548311     1.007825032230
         H           -0.391391914852    -0.461162576108     2.069285548311     1.007825032230
         H           -1.439288914852    -1.520072576108     1.082958548311     1.007825032230
         H            0.329368085148    -1.724522576108     1.029740548311     1.007825032230
         H           -1.551521914852     1.608093423892    -0.735693451689     1.007825032230
         H           -2.508593914852     0.309329423892     0.031729548311     1.007825032230
         H           -1.551132914852     1.428840423892     1.042505548311     1.007825032230
         H           -0.392048914852    -0.038832576108    -2.119548451689     1.007825032230
         H            0.328930085148    -1.484291576108    -1.353348451689     1.007825032230
         H           -1.439726914852    -1.273307576108    -1.364124451689     1.007825032230
         H            2.960734085148     0.771589423892     0.077248548311     1.007825032230
         H            2.275915085148    -0.659568576108     0.828266548311     1.007825032230
         H            2.275562085148    -0.480673576108    -0.944319451689     1.007825032230

  Basis Set: AUG-CC-PVTZ
    Blend: AUG-CC-PVTZ
  Basis Set: (AUG-CC-PVTZ AUX)
    Blend: AUG-CC-PVTZ-JKFIT
	 Reference Energy          =    -251.8066628718759716 [Eh]
	 Singles Energy            =      -0.0000000000000000 [Eh]
	 Same-Spin Energy          =      -0.2607019534569042 [Eh]
	 Opposite-Spin Energy      =      -0.9707890664790482 [Eh]
	 Correlation Energy        =      -1.2314910199359523 [Eh]
	 Total Energy              =    -253.0381538918119304 [Eh]

	 ================> DF-SCS-MP2 Energies <==================
	-----------------------------------------------------------
	 SCS Same-Spin Scale       =       0.3333333333333333 [-]
	 SCS Opposite-Spin Scale   =       1.2000000000000000 [-]
	 SCS Same-Spin Energy      =      -0.0869006511523014 [Eh]
	 SCS Opposite-Spin Energy  =      -1.1649468797748577 [Eh]
	 SCS Correlation Energy    =      -1.2518475309271591 [Eh]
	 SCS Total Energy          =    -253.0585104028031367 [Eh]
	-----------------------------------------------------------

  Dipole Moment: [D]
     X:    -1.2119      Y:    -0.0597      Z:    -0.0058     Total:     1.2133

*** Psi4 exiting successfully. Buy a developer a beer!
