                               Psi4 1.4a3.dev225

  ==> Input File <==

--------------------------------------------------------------------------
#psi4
#
memory 32 gb

molecule  {
1 1
  N        0.4178150    -0.0006520    -0.0000630
  C       -0.8570640     0.8239850    -0.0009520
  C        0.4711579    -0.8717256    -1.1563146
  C        1.5793660     0.9480380    -0.0539900
  C        0.5237060    -0.8216500     1.2493860
  C       -2.1433350     0.0208080     0.0021430
  H       -0.7927630     1.4633150     0.8819470
  H       -0.7964710     1.4567520    -0.8889780
  H        0.3340020    -0.2978660    -2.0924670
  H        1.4489560    -1.3852540    -1.2134470
  H       -0.3098240    -1.6525160    -1.1165640
  H        1.5295780     1.6068410     0.8121160
  H        2.5017250     0.3690020    -0.0365590
  H        1.5128670     1.5259610    -0.9748480
  H        0.4511560    -0.1564930     2.1092880
  H       -0.2781350    -1.5558310     1.2658670
  H        1.4885380    -1.3271890     1.2430600
  H       -2.9659450     0.7401210     0.0203810
  H       -2.2593290    -0.5863990    -0.8962730
  H       -2.2430950    -0.6122210     0.8847330
units angstrom
no_reorient  #important for SAPT in psi4, default
symmetry c1  #important for SAPT in psi4, default
}

set PROPERTIES_ORIGIN ["COM"]
properties('MP2/aug-cc-pvtz', properties = ['dipole'])
--------------------------------------------------------------------------

    Molecular point group: c1
  Charge       = 1
  Multiplicity = 1
  Basis Set: AUG-CC-PVTZ
    Blend: AUG-CC-PVTZ
  Basis Set: (AUG-CC-PVTZ AUX)
    Blend: AUG-CC-PVTZ-JKFIT

    Orbital Energies [Eh]
    ---------------------

    Doubly Occupied:

       1A    -15.862732     2A    -11.453218     3A    -11.449320
       4A    -11.448577     5A    -11.446137     6A    -11.383024
       7A     -1.511961     8A     -1.214665     9A     -1.169682
      10A     -1.169262    11A     -1.076906    12A     -0.990153
      13A     -0.874586    14A     -0.871078    15A     -0.849551
      16A     -0.796478    17A     -0.768507    18A     -0.741850
      19A     -0.736574    20A     -0.725720    21A     -0.715795
      22A     -0.713804    23A     -0.685858    24A     -0.681188
      25A     -0.672178

  @DF-RHF Final Energy:  -251.80999831778692

   => Energetics <=

    Nuclear Repulsion Energy =            285.1792346986800908
    One-Electron Energy =                -893.9608578768719553
    Two-Electron Energy =                 356.9716248604050293
    Total Energy =                       -251.8099983177868921
  Basis Set: (AUG-CC-PVTZ AUX)
    Blend: AUG-CC-PVTZ-RI
    Molecular point group: c1

    Geometry (in Angstrom), charge = 1, multiplicity = 1:

       Center              X                  Y                   Z               Mass
    ------------   -----------------  -----------------  -----------------  -----------------
         N            0.413786502215    -0.009383275821    -0.005517711654    14.003074004430
         C           -0.861092497785     0.815253724179    -0.006406711654    12.000000000000
         C            0.467129402215    -0.880456875821    -1.161769311654    12.000000000000
         C            1.575337502215     0.939306724179    -0.059444711654    12.000000000000
         C            0.519677502215    -0.830381275821     1.243931288346    12.000000000000
         C           -2.147363497785     0.012076724179    -0.003311711654    12.000000000000
         H           -0.796791497785     1.454583724179     0.876492288346     1.007825032230
         H           -0.800499497785     1.448020724179    -0.894432711654     1.007825032230
         H            0.329973502215    -0.306597275821    -2.097921711654     1.007825032230
         H            1.444927502215    -1.393985275821    -1.218901711654     1.007825032230
         H           -0.313852497785    -1.661247275821    -1.122018711654     1.007825032230
         H            1.525549502215     1.598109724179     0.806661288346     1.007825032230
         H            2.497696502215     0.360270724179    -0.042013711654     1.007825032230
         H            1.508838502215     1.517229724179    -0.980302711654     1.007825032230
         H            0.447127502215    -0.165224275821     2.103833288346     1.007825032230
         H           -0.282163497785    -1.564562275821     1.260412288346     1.007825032230
         H            1.484509502215    -1.335920275821     1.237605288346     1.007825032230
         H           -2.969973497785     0.731389724179     0.014926288346     1.007825032230
         H           -2.263357497785    -0.595130275821    -0.901727711654     1.007825032230
         H           -2.247123497785    -0.620952275821     0.879278288346     1.007825032230

  Basis Set: AUG-CC-PVTZ
    Blend: AUG-CC-PVTZ
  Basis Set: (AUG-CC-PVTZ AUX)
    Blend: AUG-CC-PVTZ-JKFIT
	 Reference Energy          =    -251.8099983177869206 [Eh]
	 Singles Energy            =      -0.0000000000000000 [Eh]
	 Same-Spin Energy          =      -0.2614638119397885 [Eh]
	 Opposite-Spin Energy      =      -0.9710349141237876 [Eh]
	 Correlation Energy        =      -1.2324987260635760 [Eh]
	 Total Energy              =    -253.0424970438504886 [Eh]

	 ================> DF-SCS-MP2 Energies <==================
	-----------------------------------------------------------
	 SCS Same-Spin Scale       =       0.3333333333333333 [-]
	 SCS Opposite-Spin Scale   =       1.2000000000000000 [-]
	 SCS Same-Spin Energy      =      -0.0871546039799295 [Eh]
	 SCS Opposite-Spin Energy  =      -1.1652418969485452 [Eh]
	 SCS Correlation Energy    =      -1.2523965009284748 [Eh]
	 SCS Total Energy          =    -253.0623948187154042 [Eh]
	-----------------------------------------------------------

  Dipole Moment: [D]
     X:     1.1875      Y:     0.0118      Z:     0.0458     Total:     1.1884

*** Psi4 exiting successfully. Buy a developer a beer!
