                               Psi4 1.3.2 release

  ==> Input File <==

--------------------------------------------------------------------------
#psi4
#
memory 32 gb

molecule  {
1 1
  N       -0.3684139    -0.0768400    -0.0076845
  C        0.8493700     0.8287480     0.0834240
  C       -0.4796340    -0.9931830     1.1295180
  C       -1.5938470     0.9107330     0.0921540
  C       -0.4800430    -0.7477380    -1.3048640
  C        2.1072392    -0.0120865    -0.0016737
  H        0.7750750     1.5510780    -0.7332340
  H        0.7754440     1.3733960     1.0279370
  H       -0.3910070    -0.4497550     2.0704360
  H       -1.4389040    -1.5086650     1.0841090
  H        0.3297530    -1.7131150     1.0308910
  H       -1.5511370     1.6195010    -0.7345430
  H       -2.5082090     0.3207370     0.0328800
  H       -1.5507480     1.4402480     1.0436560
  H       -0.3916640    -0.0274250    -2.1183980
  H        0.3293150    -1.4728840    -1.3521980
  H       -1.4393420    -1.2619000    -1.3629740
  H        2.9611190     0.7829970     0.0783990
  H        2.2763000    -0.6481610     0.8294170
  H        2.2759470    -0.4692660    -0.9431690
units angstrom
no_reorient  #important for SAPT in psi4, default
symmetry c1  #important for SAPT in psi4, default
}

set PROPERTIES_ORIGIN ["COM"]
properties('MP2/aug-cc-pvtz', properties = ['dipole'])
--------------------------------------------------------------------------

    Molecular point group: c1
  Charge       = 1
  Multiplicity = 1
  Basis Set: AUG-CC-PVTZ
    Blend: AUG-CC-PVTZ
  Basis Set: (AUG-CC-PVTZ AUX)
    Blend: AUG-CC-PVTZ-JKFIT

    Orbital Energies [Eh]
    ---------------------

    Doubly Occupied:

       1A    -15.858674     2A    -11.454675     3A    -11.453672
       4A    -11.444006     5A    -11.443991     6A    -11.381714
       7A     -1.501060     8A     -1.212879     9A     -1.174027
      10A     -1.160007    11A     -1.073955    12A     -0.989776
      13A     -0.873173    14A     -0.865136    15A     -0.846955
      16A     -0.799266    17A     -0.767892    18A     -0.750911
      19A     -0.729171    20A     -0.727989    21A     -0.725666
      22A     -0.717980    23A     -0.684687    24A     -0.675551
      25A     -0.653454

  @DF-RHF Final Energy:  -251.79791269583484

   => Energetics <=

    Nuclear Repulsion Energy =            284.6702542173968595
    One-Electron Energy =                -893.0037995704391278
    Two-Electron Energy =                 356.5356326572074295
    Total Energy =                       -251.7979126958348388
  Basis Set: (AUG-CC-PVTZ AUX)
    Blend: AUG-CC-PVTZ-RI
    Molecular point group: c1

    Geometry (in Angstrom), charge = 1, multiplicity = 1:

       Center              X                  Y                   Z               Mass
    ------------   -----------------  -----------------  -----------------  -----------------
         N           -0.369929843437    -0.057488029933    -0.005731724625    14.003074004430
         C            0.847854056563     0.848099970067     0.085376775375    12.000000000000
         C           -0.481149943437    -0.973831029933     1.131470775375    12.000000000000
         C           -1.595362943437     0.930084970067     0.094106775375    12.000000000000
         C           -0.481558943437    -0.728386029933    -1.302911224625    12.000000000000
         C            2.105723256563     0.007265470067     0.000279075375    12.000000000000
         H            0.773559056563     1.570429970067    -0.731281224625     1.007825032230
         H            0.773928056563     1.392747970067     1.029889775375     1.007825032230
         H           -0.392522943437    -0.430403029933     2.072388775375     1.007825032230
         H           -1.440419943437    -1.489313029933     1.086061775375     1.007825032230
         H            0.328237056563    -1.693763029933     1.032843775375     1.007825032230
         H           -1.552652943437     1.638852970067    -0.732590224625     1.007825032230
         H           -2.509724943437     0.340088970067     0.034832775375     1.007825032230
         H           -1.552263943437     1.459599970067     1.045608775375     1.007825032230
         H           -0.393179943437    -0.008073029933    -2.116445224625     1.007825032230
         H            0.327799056563    -1.453532029933    -1.350245224625     1.007825032230
         H           -1.440857943437    -1.242548029933    -1.361021224625     1.007825032230
         H            2.959603056563     0.802348970067     0.080351775375     1.007825032230
         H            2.274784056563    -0.628809029933     0.831369775375     1.007825032230
         H            2.274431056563    -0.449914029933    -0.941216224625     1.007825032230

  Basis Set: AUG-CC-PVTZ
    Blend: AUG-CC-PVTZ
  Basis Set: (AUG-CC-PVTZ AUX)
    Blend: AUG-CC-PVTZ-JKFIT
	 Reference Energy          =    -251.7979126958348388 [Eh]
	 Singles Energy            =      -0.0000000000000000 [Eh]
	 Same-Spin Energy          =      -0.2617224975318531 [Eh]
	 Opposite-Spin Energy      =      -0.9723157747032214 [Eh]
	 Correlation Energy        =      -1.2340382722350745 [Eh]
	 Total Energy              =    -253.0319509680699070 [Eh]

	 ================> DF-SCS-MP2 Energies <==================
	-----------------------------------------------------------
	 SCS Same-Spin Scale       =       0.3333333333333333 [-]
	 SCS Opposite-Spin Scale   =       1.2000000000000000 [-]
	 SCS Same-Spin Energy      =      -0.0872408325106177 [Eh]
	 SCS Opposite-Spin Energy  =      -1.1667789296438655 [Eh]
	 SCS Correlation Energy    =      -1.2540197621544833 [Eh]
	 SCS Total Energy          =    -253.0519324579893237 [Eh]
	-----------------------------------------------------------

  Dipole Moment: [D]
     X:    -1.2338      Y:     0.1740      Z:     0.0178     Total:     1.2462

*** Psi4 exiting successfully. Buy a developer a beer!
