                               Psi4 1.4a3.dev225

  ==> Input File <==

--------------------------------------------------------------------------
#psi4
#
memory 32 gb

molecule  {
1 1
  N        0.4178150    -0.0006520    -0.0000630
  C       -0.8738571     0.8348474    -0.0009637
  C        0.4729990    -0.9017910    -1.1962230
  C        1.5793660     0.9480380    -0.0539900
  C        0.5237060    -0.8216500     1.2493860
  C       -2.1433350     0.0208080     0.0021430
  H       -0.7927630     1.4633150     0.8819470
  H       -0.7964710     1.4567520    -0.8889780
  H        0.3340020    -0.2978660    -2.0924670
  H        1.4489560    -1.3852540    -1.2134470
  H       -0.3098240    -1.6525160    -1.1165640
  H        1.5295780     1.6068410     0.8121160
  H        2.5017250     0.3690020    -0.0365590
  H        1.5128670     1.5259610    -0.9748480
  H        0.4511560    -0.1564930     2.1092880
  H       -0.2781350    -1.5558310     1.2658670
  H        1.4885380    -1.3271890     1.2430600
  H       -2.9659450     0.7401210     0.0203810
  H       -2.2593290    -0.5863990    -0.8962730
  H       -2.2430950    -0.6122210     0.8847330
units angstrom
no_reorient  #important for SAPT in psi4, default
symmetry c1  #important for SAPT in psi4, default
}

set PROPERTIES_ORIGIN ["COM"]
properties('MP2/aug-cc-pvtz', properties = ['dipole'])
--------------------------------------------------------------------------

    Molecular point group: c1
  Charge       = 1
  Multiplicity = 1
  Basis Set: AUG-CC-PVTZ
    Blend: AUG-CC-PVTZ
  Basis Set: (AUG-CC-PVTZ AUX)
    Blend: AUG-CC-PVTZ-JKFIT

    Orbital Energies [Eh]
    ---------------------

    Doubly Occupied:

       1A    -15.859319     2A    -11.453037     3A    -11.447374
       4A    -11.446550     5A    -11.446533     6A    -11.382783
       7A     -1.497125     8A     -1.214682     9A     -1.166173
      10A     -1.165982    11A     -1.074319    12A     -0.990022
      13A     -0.870275    14A     -0.866170    15A     -0.844841
      16A     -0.797672    17A     -0.768613    18A     -0.742081
      19A     -0.733054    20A     -0.726213    21A     -0.720919
      22A     -0.717303    23A     -0.688913    24A     -0.678142
      25A     -0.673142

  @DF-RHF Final Energy:  -251.81196027862524

   => Energetics <=

    Nuclear Repulsion Energy =            283.9551886435129404
    One-Electron Energy =                -891.5918262096395210
    Two-Electron Energy =                 355.8246772875014017
    Total Energy =                       -251.8119602786252358
  Basis Set: (AUG-CC-PVTZ AUX)
    Blend: AUG-CC-PVTZ-RI
    Molecular point group: c1

    Geometry (in Angstrom), charge = 1, multiplicity = 1:

       Center              X                  Y                   Z               Mass
    ------------   -----------------  -----------------  -----------------  -----------------
         N            0.415822805198    -0.006768031962    -0.000081019659    14.003074004430
         C           -0.875849294802     0.828731368038    -0.000981719659    12.000000000000
         C            0.471006805198    -0.907907031962    -1.196241019659    12.000000000000
         C            1.577373805198     0.941921968038    -0.054008019659    12.000000000000
         C            0.521713805198    -0.827766031962     1.249367980341    12.000000000000
         C           -2.145327194802     0.014691968038     0.002124980341    12.000000000000
         H           -0.794755194802     1.457198968038     0.881928980341     1.007825032230
         H           -0.798463194802     1.450635968038    -0.888996019659     1.007825032230
         H            0.332009805198    -0.303982031962    -2.092485019659     1.007825032230
         H            1.446963805198    -1.391370031962    -1.213465019659     1.007825032230
         H           -0.311816194802    -1.658632031962    -1.116582019659     1.007825032230
         H            1.527585805198     1.600724968038     0.812097980341     1.007825032230
         H            2.499732805198     0.362885968038    -0.036577019659     1.007825032230
         H            1.510874805198     1.519844968038    -0.974866019659     1.007825032230
         H            0.449163805198    -0.162609031962     2.109269980341     1.007825032230
         H           -0.280127194802    -1.561947031962     1.265848980341     1.007825032230
         H            1.486545805198    -1.333305031962     1.243041980341     1.007825032230
         H           -2.967937194802     0.734004968038     0.020362980341     1.007825032230
         H           -2.261321194802    -0.592515031962    -0.896291019659     1.007825032230
         H           -2.245087194802    -0.618337031962     0.884714980341     1.007825032230

  Basis Set: AUG-CC-PVTZ
    Blend: AUG-CC-PVTZ
  Basis Set: (AUG-CC-PVTZ AUX)
    Blend: AUG-CC-PVTZ-JKFIT
	 Reference Energy          =    -251.8119602786252358 [Eh]
	 Singles Energy            =      -0.0000000000000000 [Eh]
	 Same-Spin Energy          =      -0.2609864494321240 [Eh]
	 Opposite-Spin Energy      =      -0.9709546501305044 [Eh]
	 Correlation Energy        =      -1.2319410995626283 [Eh]
	 Total Energy              =    -253.0439013781878543 [Eh]

	 ================> DF-SCS-MP2 Energies <==================
	-----------------------------------------------------------
	 SCS Same-Spin Scale       =       0.3333333333333333 [-]
	 SCS Opposite-Spin Scale   =       1.2000000000000000 [-]
	 SCS Same-Spin Energy      =      -0.0869954831440413 [Eh]
	 SCS Opposite-Spin Energy  =      -1.1651455801566053 [Eh]
	 SCS Correlation Energy    =      -1.2521410633006467 [Eh]
	 SCS Total Energy          =    -253.0641013419258911 [Eh]
	-----------------------------------------------------------

  Dipole Moment: [D]
     X:     1.1490      Y:    -0.0057      Z:    -0.0017     Total:     1.1491

*** Psi4 exiting successfully. Buy a developer a beer!
