                               Psi4 1.3.2 release

  ==> Input File <==

--------------------------------------------------------------------------
#psi4
#
memory 32 gb

molecule  {
1 1
  N       -0.4143790    -0.0121880    -0.0011520
  C        0.8493700     0.8287480     0.0834240
  C       -0.4883443    -1.1241272     1.2804410
  C       -1.5938470     0.9107330     0.0921540
  C       -0.4800430    -0.7477380    -1.3048640
  C        2.1497460     0.0545660     0.0050420
  H        0.7750750     1.5510780    -0.7332340
  H        0.7754440     1.3733960     1.0279370
  H       -0.3910070    -0.4497550     2.0704360
  H       -1.4389040    -1.5086650     1.0841090
  H        0.3297530    -1.7131150     1.0308910
  H       -1.5511370     1.6195010    -0.7345430
  H       -2.5082090     0.3207370     0.0328800
  H       -1.5507480     1.4402480     1.0436560
  H       -0.3916640    -0.0274250    -2.1183980
  H        0.3293150    -1.4728840    -1.3521980
  H       -1.4393420    -1.2619000    -1.3629740
  H        2.9611190     0.7829970     0.0783990
  H        2.2763000    -0.6481610     0.8294170
  H        2.2759470    -0.4692660    -0.9431690
units angstrom
no_reorient  #important for SAPT in psi4, default
symmetry c1  #important for SAPT in psi4, default
}

set PROPERTIES_ORIGIN ["COM"]
properties('MP2/aug-cc-pvtz', properties = ['dipole'])
--------------------------------------------------------------------------

    Molecular point group: c1
  Charge       = 1
  Multiplicity = 1
  Basis Set: AUG-CC-PVTZ
    Blend: AUG-CC-PVTZ
  Basis Set: (AUG-CC-PVTZ AUX)
    Blend: AUG-CC-PVTZ-JKFIT

    Orbital Energies [Eh]
    ---------------------

    Doubly Occupied:

       1A    -15.847387     2A    -11.460992     3A    -11.446662
       4A    -11.442184     5A    -11.441194     6A    -11.380256
       7A     -1.467717     8A     -1.205334     9A     -1.167995
      10A     -1.157070    11A     -1.071907    12A     -0.983779
      13A     -0.863096    14A     -0.855242    15A     -0.836988
      16A     -0.801468    17A     -0.783212    18A     -0.759927
      19A     -0.742095    20A     -0.729424    21A     -0.716936
      22A     -0.695602    23A     -0.681270    24A     -0.670692
      25A     -0.654921

  @DF-RHF Final Energy:  -251.78768140759217

   => Energetics <=

    Nuclear Repulsion Energy =            280.5168002053043779
    One-Electron Energy =                -884.8822666773588708
    Two-Electron Energy =                 352.5777850644623754
    Total Energy =                       -251.7876814075921743
  Basis Set: (AUG-CC-PVTZ AUX)
    Blend: AUG-CC-PVTZ-RI
    Molecular point group: c1

    Geometry (in Angstrom), charge = 1, multiplicity = 1:

       Center              X                  Y                   Z               Mass
    ------------   -----------------  -----------------  -----------------  -----------------
         N           -0.413192780173     0.005645160006    -0.021706095725    14.003074004430
         C            0.850556219827     0.846581160006     0.062869904275    12.000000000000
         C           -0.487158080173    -1.106294039994     1.259886904275    12.000000000000
         C           -1.592660780173     0.928566160006     0.071599904275    12.000000000000
         C           -0.478856780173    -0.729904839994    -1.325418095725    12.000000000000
         C            2.150932219827     0.072399160006    -0.015512095725    12.000000000000
         H            0.776261219827     1.568911160006    -0.753788095725     1.007825032230
         H            0.776630219827     1.391229160006     1.007382904275     1.007825032230
         H           -0.389820780173    -0.431921839994     2.049881904275     1.007825032230
         H           -1.437717780173    -1.490831839994     1.063554904275     1.007825032230
         H            0.330939219827    -1.695281839994     1.010336904275     1.007825032230
         H           -1.549950780173     1.637334160006    -0.755097095725     1.007825032230
         H           -2.507022780173     0.338570160006     0.012325904275     1.007825032230
         H           -1.549561780173     1.458081160006     1.023101904275     1.007825032230
         H           -0.390477780173    -0.009591839994    -2.138952095725     1.007825032230
         H            0.330501219827    -1.455050839994    -1.372752095725     1.007825032230
         H           -1.438155780173    -1.244066839994    -1.383528095725     1.007825032230
         H            2.962305219827     0.800830160006     0.057844904275     1.007825032230
         H            2.277486219827    -0.630327839994     0.808862904275     1.007825032230
         H            2.277133219827    -0.451432839994    -0.963723095725     1.007825032230

  Basis Set: AUG-CC-PVTZ
    Blend: AUG-CC-PVTZ
  Basis Set: (AUG-CC-PVTZ AUX)
    Blend: AUG-CC-PVTZ-JKFIT
	 Reference Energy          =    -251.7876814075921743 [Eh]
	 Singles Energy            =      -0.0000000000000000 [Eh]
	 Same-Spin Energy          =      -0.2605279835135169 [Eh]
	 Opposite-Spin Energy      =      -0.9724891913608280 [Eh]
	 Correlation Energy        =      -1.2330171748743450 [Eh]
	 Total Energy              =    -253.0206985824665082 [Eh]

	 ================> DF-SCS-MP2 Energies <==================
	-----------------------------------------------------------
	 SCS Same-Spin Scale       =       0.3333333333333333 [-]
	 SCS Opposite-Spin Scale   =       1.2000000000000000 [-]
	 SCS Same-Spin Energy      =      -0.0868426611711723 [Eh]
	 SCS Opposite-Spin Energy  =      -1.1669870296329936 [Eh]
	 SCS Correlation Energy    =      -1.2538296908041660 [Eh]
	 SCS Total Energy          =    -253.0415110983963416 [Eh]
	-----------------------------------------------------------

  Dipole Moment: [D]
     X:    -1.2102      Y:    -0.2219      Z:     0.2166     Total:     1.2493

*** Psi4 exiting successfully. Buy a developer a beer!
