                               Psi4 1.3.2 release

  ==> Input File <==

--------------------------------------------------------------------------
#psi4
#
memory 32 gb

molecule  {
1 1
  N       -0.4223597    -0.0722366    -0.0509910
  C        0.8493700     0.8287480     0.0834240
  C       -0.4796340    -0.9931830     1.1295180
  C       -1.5938470     0.9107330     0.0921540
  C       -0.4800430    -0.7477380    -1.3048640
  C        2.1497460     0.0545660     0.0050420
  H        0.7750750     1.5510780    -0.7332340
  H        0.7754440     1.3733960     1.0279370
  H       -0.3953268    -0.4996010     2.0979004
  H       -1.4389040    -1.5086650     1.0841090
  H        0.3297530    -1.7131150     1.0308910
  H       -1.5511370     1.6195010    -0.7345430
  H       -2.5082090     0.3207370     0.0328800
  H       -1.5507480     1.4402480     1.0436560
  H       -0.3916640    -0.0274250    -2.1183980
  H        0.3293150    -1.4728840    -1.3521980
  H       -1.4393420    -1.2619000    -1.3629740
  H        2.9611190     0.7829970     0.0783990
  H        2.2763000    -0.6481610     0.8294170
  H        2.2759470    -0.4692660    -0.9431690
units angstrom
no_reorient  #important for SAPT in psi4, default
symmetry c1  #important for SAPT in psi4, default
}

set PROPERTIES_ORIGIN ["COM"]
properties('MP2/aug-cc-pvtz', properties = ['dipole'])
--------------------------------------------------------------------------

    Molecular point group: c1
  Charge       = 1
  Multiplicity = 1
  Basis Set: AUG-CC-PVTZ
    Blend: AUG-CC-PVTZ
  Basis Set: (AUG-CC-PVTZ AUX)
    Blend: AUG-CC-PVTZ-JKFIT

    Orbital Energies [Eh]
    ---------------------

    Doubly Occupied:

       1A    -15.860755     2A    -11.456482     3A    -11.450997
       4A    -11.446678     5A    -11.441040     6A    -11.382303
       7A     -1.502212     8A     -1.211739     9A     -1.176292
      10A     -1.163125    11A     -1.069070    12A     -0.991223
      13A     -0.874471    14A     -0.865518    15A     -0.848136
      16A     -0.796834    17A     -0.765613    18A     -0.748852
      19A     -0.732623    20A     -0.725757    21A     -0.723525
      22A     -0.716596    23A     -0.681611    24A     -0.674120
      25A     -0.669044

  @DF-RHF Final Energy:  -251.80457302661065

   => Energetics <=

    Nuclear Repulsion Energy =            283.9222841912153399
    One-Electron Energy =                -891.5044797752725572
    Two-Electron Energy =                 355.7776225574465343
    Total Energy =                       -251.8045730266106830
  Basis Set: (AUG-CC-PVTZ AUX)
    Blend: AUG-CC-PVTZ-RI
    Molecular point group: c1

    Geometry (in Angstrom), charge = 1, multiplicity = 1:

       Center              X                  Y                   Z               Mass
    ------------   -----------------  -----------------  -----------------  -----------------
         N           -0.421042008260    -0.062123438893    -0.043384591929    14.003074004430
         C            0.850687691740     0.838861161107     0.091030408071    12.000000000000
         C           -0.478316308260    -0.983069838893     1.137124408071    12.000000000000
         C           -1.592529308260     0.920846161107     0.099760408071    12.000000000000
         C           -0.478725308260    -0.737624838893    -1.297257591929    12.000000000000
         C            2.151063691740     0.064679161107     0.012648408071    12.000000000000
         H            0.776392691740     1.561191161107    -0.725627591929     1.007825032230
         H            0.776761691740     1.383509161107     1.035543408071     1.007825032230
         H           -0.394009108260    -0.489487838893     2.105506808071     1.007825032230
         H           -1.437586308260    -1.498551838893     1.091715408071     1.007825032230
         H            0.331070691740    -1.703001838893     1.038497408071     1.007825032230
         H           -1.549819308260     1.629614161107    -0.726936591929     1.007825032230
         H           -2.506891308260     0.330850161107     0.040486408071     1.007825032230
         H           -1.549430308260     1.450361161107     1.051262408071     1.007825032230
         H           -0.390346308260    -0.017311838893    -2.110791591929     1.007825032230
         H            0.330632691740    -1.462770838893    -1.344591591929     1.007825032230
         H           -1.438024308260    -1.251786838893    -1.355367591929     1.007825032230
         H            2.962436691740     0.793110161107     0.086005408071     1.007825032230
         H            2.277617691740    -0.638047838893     0.837023408071     1.007825032230
         H            2.277264691740    -0.459152838893    -0.935562591929     1.007825032230

  Basis Set: AUG-CC-PVTZ
    Blend: AUG-CC-PVTZ
  Basis Set: (AUG-CC-PVTZ AUX)
    Blend: AUG-CC-PVTZ-JKFIT
	 Reference Energy          =    -251.8045730266106546 [Eh]
	 Singles Energy            =      -0.0000000000000000 [Eh]
	 Same-Spin Energy          =      -0.2612807409276834 [Eh]
	 Opposite-Spin Energy      =      -0.9713573176657535 [Eh]
	 Correlation Energy        =      -1.2326380585934369 [Eh]
	 Total Energy              =    -253.0372110852040919 [Eh]

	 ================> DF-SCS-MP2 Energies <==================
	-----------------------------------------------------------
	 SCS Same-Spin Scale       =       0.3333333333333333 [-]
	 SCS Opposite-Spin Scale   =       1.2000000000000000 [-]
	 SCS Same-Spin Energy      =      -0.0870935803092278 [Eh]
	 SCS Opposite-Spin Energy  =      -1.1656287811989041 [Eh]
	 SCS Correlation Energy    =      -1.2527223615081320 [Eh]
	 SCS Total Energy          =    -253.0572953881187743 [Eh]
	-----------------------------------------------------------

  Dipole Moment: [D]
     X:    -1.1552      Y:     0.1080      Z:     0.1278     Total:     1.1673

*** Psi4 exiting successfully. Buy a developer a beer!
