                               Psi4 1.3.2 release

  ==> Input File <==

--------------------------------------------------------------------------
#psi4
#
memory 32 gb

molecule  {
1 1
  N       -0.4143790    -0.0121880    -0.0011520
  C        0.8493700     0.8287480     0.0834240
  C       -0.4796340    -0.9931830     1.1295180
  C       -1.5938470     0.9107330     0.0921540
  C       -0.4800430    -0.7477380    -1.3048640
  C        2.1497460     0.0545660     0.0050420
  H        0.7750750     1.5510780    -0.7332340
  H        0.7754440     1.3733960     1.0279370
  H       -0.3910070    -0.4497550     2.0704360
  H       -1.4389040    -1.5086650     1.0841090
  H        0.3297530    -1.7131150     1.0308910
  H       -1.5511370     1.6195010    -0.7345430
  H       -2.5082090     0.3207370     0.0328800
  H       -1.5507480     1.4402480     1.0436560
  H       -0.3916640    -0.0274250    -2.1183980
  H        0.3293150    -1.4728840    -1.3521980
  H       -1.4393420    -1.2619000    -1.3629740
  H        2.9611190     0.7829970     0.0783990
  H        2.2763000    -0.6481610     0.8294170
  H        2.2759470    -0.4692660    -0.9431690
units angstrom
no_reorient  #important for SAPT in psi4, default
symmetry c1  #important for SAPT in psi4, default
}

set PROPERTIES_ORIGIN ["COM"]
properties('MP2/aug-cc-pvtz', properties = ['dipole'])
--------------------------------------------------------------------------

    Molecular point group: c1
  Charge       = 1
  Multiplicity = 1
  Basis Set: AUG-CC-PVTZ
    Blend: AUG-CC-PVTZ
  Basis Set: (AUG-CC-PVTZ AUX)
    Blend: AUG-CC-PVTZ-JKFIT

    Orbital Energies [Eh]
    ---------------------

    Doubly Occupied:

       1A    -15.861420     2A    -11.452531     3A    -11.448093
       4A    -11.447213     5A    -11.447200     6A    -11.382549
       7A     -1.500883     8A     -1.212668     9A     -1.166865
      10A     -1.166804    11A     -1.076330    12A     -0.989605
      13A     -0.871408    14A     -0.866977    15A     -0.846141
      16A     -0.795820    17A     -0.768549    18A     -0.741090
      19A     -0.733013    20A     -0.726026    21A     -0.720933
      22A     -0.717996    23A     -0.687133    24A     -0.679819
      25A     -0.670983

  @DF-RHF Final Energy:  -251.81234031673034

   => Energetics <=

    Nuclear Repulsion Energy =            284.0453285355706043
    One-Electron Energy =                -891.7592383176886415
    Two-Electron Energy =                 355.9015694653876380
    Total Energy =                       -251.8123403167303422
  Basis Set: (AUG-CC-PVTZ AUX)
    Blend: AUG-CC-PVTZ-RI
    Molecular point group: c1

    Geometry (in Angstrom), charge = 1, multiplicity = 1:

       Center              X                  Y                   Z               Mass
    ------------   -----------------  -----------------  -----------------  -----------------
         N           -0.414379030164    -0.012188043916    -0.001151992256    14.003074004430
         C            0.849369969836     0.828747956084     0.083424007744    12.000000000000
         C           -0.479634030164    -0.993183043916     1.129518007744    12.000000000000
         C           -1.593847030164     0.910732956084     0.092154007744    12.000000000000
         C           -0.480043030164    -0.747738043916    -1.304863992256    12.000000000000
         C            2.149745969836     0.054565956084     0.005042007744    12.000000000000
         H            0.775074969836     1.551077956084    -0.733233992256     1.007825032230
         H            0.775443969836     1.373395956084     1.027937007744     1.007825032230
         H           -0.391007030164    -0.449755043916     2.070436007744     1.007825032230
         H           -1.438904030164    -1.508665043916     1.084109007744     1.007825032230
         H            0.329752969836    -1.713115043916     1.030891007744     1.007825032230
         H           -1.551137030164     1.619500956084    -0.734542992256     1.007825032230
         H           -2.508209030164     0.320736956084     0.032880007744     1.007825032230
         H           -1.550748030164     1.440247956084     1.043656007744     1.007825032230
         H           -0.391664030164    -0.027425043916    -2.118397992256     1.007825032230
         H            0.329314969836    -1.472884043916    -1.352197992256     1.007825032230
         H           -1.439342030164    -1.261900043916    -1.362973992256     1.007825032230
         H            2.961118969836     0.782996956084     0.078399007744     1.007825032230
         H            2.276299969836    -0.648161043916     0.829417007744     1.007825032230
         H            2.275946969836    -0.469266043916    -0.943168992256     1.007825032230

  Basis Set: AUG-CC-PVTZ
    Blend: AUG-CC-PVTZ
  Basis Set: (AUG-CC-PVTZ AUX)
    Blend: AUG-CC-PVTZ-JKFIT
	 Reference Energy          =    -251.8123403167303422 [Eh]
	 Singles Energy            =      -0.0000000000000000 [Eh]
	 Same-Spin Energy          =      -0.2609687128272556 [Eh]
	 Opposite-Spin Energy      =      -0.9708182280949595 [Eh]
	 Correlation Energy        =      -1.2317869409222153 [Eh]
	 Total Energy              =    -253.0441272576525478 [Eh]

	 ================> DF-SCS-MP2 Energies <==================
	-----------------------------------------------------------
	 SCS Same-Spin Scale       =       0.3333333333333333 [-]
	 SCS Opposite-Spin Scale   =       1.2000000000000000 [-]
	 SCS Same-Spin Energy      =      -0.0869895709424185 [Eh]
	 SCS Opposite-Spin Energy  =      -1.1649818737139515 [Eh]
	 SCS Correlation Energy    =      -1.2519714446563701 [Eh]
	 SCS Total Energy          =    -253.0643117613867048 [Eh]
	-----------------------------------------------------------

  Dipole Moment: [D]
     X:    -1.1859      Y:    -0.0397      Z:    -0.0037     Total:     1.1866

*** Psi4 exiting successfully. Buy a developer a beer!
