                               Psi4 1.3.2 release

  ==> Input File <==

--------------------------------------------------------------------------
#psi4
#
memory 32 gb

molecule  {
1 1
  N       -0.4143790    -0.0121880    -0.0011520
  C        1.0156172     0.9393738     0.0945500
  C       -0.4796340    -0.9931830     1.1295180
  C       -1.5938470     0.9107330     0.0921540
  C       -0.4800430    -0.7477380    -1.3048640
  C        2.1497460     0.0545660     0.0050420
  H        0.7750750     1.5510780    -0.7332340
  H        0.7754440     1.3733960     1.0279370
  H       -0.3910070    -0.4497550     2.0704360
  H       -1.4389040    -1.5086650     1.0841090
  H        0.3297530    -1.7131150     1.0308910
  H       -1.5511370     1.6195010    -0.7345430
  H       -2.5082090     0.3207370     0.0328800
  H       -1.5507480     1.4402480     1.0436560
  H       -0.3916640    -0.0274250    -2.1183980
  H        0.3293150    -1.4728840    -1.3521980
  H       -1.4393420    -1.2619000    -1.3629740
  H        2.9611190     0.7829970     0.0783990
  H        2.2763000    -0.6481610     0.8294170
  H        2.2759470    -0.4692660    -0.9431690
units angstrom
no_reorient  #important for SAPT in psi4, default
symmetry c1  #important for SAPT in psi4, default
}

set PROPERTIES_ORIGIN ["COM"]
properties('MP2/aug-cc-pvtz', properties = ['dipole'])
--------------------------------------------------------------------------

    Molecular point group: c1
  Charge       = 1
  Multiplicity = 1
  Basis Set: AUG-CC-PVTZ
    Blend: AUG-CC-PVTZ
  Basis Set: (AUG-CC-PVTZ AUX)
    Blend: AUG-CC-PVTZ-JKFIT

    Orbital Energies [Eh]
    ---------------------

    Doubly Occupied:

       1A    -15.838789     2A    -11.469213     3A    -11.439589
       4A    -11.438367     5A    -11.438353     6A    -11.388090
       7A     -1.465194     8A     -1.236979     9A     -1.154173
      10A     -1.154131    11A     -1.061007    12A     -0.994073
      13A     -0.859973    14A     -0.857972    15A     -0.833418
      16A     -0.810672    17A     -0.766602    18A     -0.741375
      19A     -0.739872    20A     -0.726247    21A     -0.719762
      22A     -0.706570    23A     -0.701858    24A     -0.687459
      25A     -0.637124

  @DF-RHF Final Energy:  -251.78711480740606

   => Energetics <=

    Nuclear Repulsion Energy =            281.4268597298300278
    One-Electron Energy =                -886.6942244074969040
    Two-Electron Energy =                 353.4802498702607636
    Total Energy =                       -251.7871148074060557
  Basis Set: (AUG-CC-PVTZ AUX)
    Blend: AUG-CC-PVTZ-RI
    Molecular point group: c1

    Geometry (in Angstrom), charge = 1, multiplicity = 1:

       Center              X                  Y                   Z               Mass
    ------------   -----------------  -----------------  -----------------  -----------------
         N           -0.437020126288    -0.027254098391    -0.002667234831    14.003074004430
         C            0.992976073712     0.924307701609     0.093034765169    12.000000000000
         C           -0.502275126288    -1.008249098391     1.128002765169    12.000000000000
         C           -1.616488126288     0.895666901609     0.090638765169    12.000000000000
         C           -0.502684126288    -0.762804098391    -1.306379234831    12.000000000000
         C            2.127104873712     0.039499901609     0.003526765169    12.000000000000
         H            0.752433873712     1.536011901609    -0.734749234831     1.007825032230
         H            0.752802873712     1.358329901609     1.026421765169     1.007825032230
         H           -0.413648126288    -0.464821098391     2.068920765169     1.007825032230
         H           -1.461545126288    -1.523731098391     1.082593765169     1.007825032230
         H            0.307111873712    -1.728181098391     1.029375765169     1.007825032230
         H           -1.573778126288     1.604434901609    -0.736058234831     1.007825032230
         H           -2.530850126288     0.305670901609     0.031364765169     1.007825032230
         H           -1.573389126288     1.425181901609     1.042140765169     1.007825032230
         H           -0.414305126288    -0.042491098391    -2.119913234831     1.007825032230
         H            0.306673873712    -1.487950098391    -1.353713234831     1.007825032230
         H           -1.461983126288    -1.276966098391    -1.364489234831     1.007825032230
         H            2.938477873712     0.767930901609     0.076883765169     1.007825032230
         H            2.253658873712    -0.663227098391     0.827901765169     1.007825032230
         H            2.253305873712    -0.484332098391    -0.944684234831     1.007825032230

  Basis Set: AUG-CC-PVTZ
    Blend: AUG-CC-PVTZ
  Basis Set: (AUG-CC-PVTZ AUX)
    Blend: AUG-CC-PVTZ-JKFIT
	 Reference Energy          =    -251.7871148074060557 [Eh]
	 Singles Energy            =      -0.0000000000000000 [Eh]
	 Same-Spin Energy          =      -0.2616688849942411 [Eh]
	 Opposite-Spin Energy      =      -0.9727769158179688 [Eh]
	 Correlation Energy        =      -1.2344458008122099 [Eh]
	 Total Energy              =    -253.0215606082182660 [Eh]

	 ================> DF-SCS-MP2 Energies <==================
	-----------------------------------------------------------
	 SCS Same-Spin Scale       =       0.3333333333333333 [-]
	 SCS Opposite-Spin Scale   =       1.2000000000000000 [-]
	 SCS Same-Spin Energy      =      -0.0872229616647470 [Eh]
	 SCS Opposite-Spin Energy  =      -1.1673322989815624 [Eh]
	 SCS Correlation Energy    =      -1.2545552606463095 [Eh]
	 SCS Total Energy          =    -253.0416700680523547 [Eh]
	-----------------------------------------------------------

  Dipole Moment: [D]
     X:    -0.6309      Y:     0.1527      Z:     0.0155     Total:     0.6493

*** Psi4 exiting successfully. Buy a developer a beer!
