                               Psi4 1.3.2 release

  ==> Input File <==

--------------------------------------------------------------------------
#psi4
#
memory 32 gb

molecule  {
1 1
  N       -0.4143790    -0.0121880    -0.0011520
  C        0.8493700     0.8287480     0.0834240
  C       -0.4709237    -0.8622388     0.9785950
  C       -1.5938470     0.9107330     0.0921540
  C       -0.4800430    -0.7477380    -1.3048640
  C        2.1497460     0.0545660     0.0050420
  H        0.7750750     1.5510780    -0.7332340
  H        0.7754440     1.3733960     1.0279370
  H       -0.3910070    -0.4497550     2.0704360
  H       -1.4389040    -1.5086650     1.0841090
  H        0.3297530    -1.7131150     1.0308910
  H       -1.5511370     1.6195010    -0.7345430
  H       -2.5082090     0.3207370     0.0328800
  H       -1.5507480     1.4402480     1.0436560
  H       -0.3916640    -0.0274250    -2.1183980
  H        0.3293150    -1.4728840    -1.3521980
  H       -1.4393420    -1.2619000    -1.3629740
  H        2.9611190     0.7829970     0.0783990
  H        2.2763000    -0.6481610     0.8294170
  H        2.2759470    -0.4692660    -0.9431690
units angstrom
no_reorient  #important for SAPT in psi4, default
symmetry c1  #important for SAPT in psi4, default
}

set PROPERTIES_ORIGIN ["COM"]
properties('MP2/aug-cc-pvtz', properties = ['dipole'])
--------------------------------------------------------------------------

    Molecular point group: c1
  Charge       = 1
  Multiplicity = 1
  Basis Set: AUG-CC-PVTZ
    Blend: AUG-CC-PVTZ
  Basis Set: (AUG-CC-PVTZ AUX)
    Blend: AUG-CC-PVTZ-JKFIT

    Orbital Energies [Eh]
    ---------------------

    Doubly Occupied:

       1A    -15.864719     2A    -11.457435     3A    -11.453091
       4A    -11.452324     5A    -11.447858     6A    -11.384192
       7A     -1.554203     8A     -1.221654     9A     -1.181304
      10A     -1.177588    11A     -1.077821    12A     -0.989981
      13A     -0.885777    14A     -0.883633    15A     -0.862841
      16A     -0.799348    17A     -0.769438    18A     -0.757870
      19A     -0.742539    20A     -0.729122    21A     -0.700541
      22A     -0.697979    23A     -0.676106    24A     -0.664068
      25A     -0.662395

  @DF-RHF Final Energy:  -251.76612239075041

   => Energetics <=

    Nuclear Repulsion Energy =            288.0742548873813575
    One-Electron Energy =                -899.4931019161660970
    Two-Electron Energy =                 359.6527246380343286
    Total Energy =                       -251.7661223907504109
  Basis Set: (AUG-CC-PVTZ AUX)
    Blend: AUG-CC-PVTZ-RI
    Molecular point group: c1

    Geometry (in Angstrom), charge = 1, multiplicity = 1:

       Center              X                  Y                   Z               Mass
    ------------   -----------------  -----------------  -----------------  -----------------
         N           -0.415565280155    -0.030021247838     0.019402111213    14.003074004430
         C            0.848183719845     0.810914752162     0.103978111213    12.000000000000
         C           -0.472109980155    -0.880072047838     0.999149111213    12.000000000000
         C           -1.595033280155     0.892899752162     0.112708111213    12.000000000000
         C           -0.481229280155    -0.765571247838    -1.284309888787    12.000000000000
         C            2.148559719845     0.036732752162     0.025596111213    12.000000000000
         H            0.773888719845     1.533244752162    -0.712679888787     1.007825032230
         H            0.774257719845     1.355562752162     1.048491111213     1.007825032230
         H           -0.392193280155    -0.467588247838     2.090990111213     1.007825032230
         H           -1.440090280155    -1.526498247838     1.104663111213     1.007825032230
         H            0.328566719845    -1.730948247838     1.051445111213     1.007825032230
         H           -1.552323280155     1.601667752162    -0.713988888787     1.007825032230
         H           -2.509395280155     0.302903752162     0.053434111213     1.007825032230
         H           -1.551934280155     1.422414752162     1.064210111213     1.007825032230
         H           -0.392850280155    -0.045258247838    -2.097843888787     1.007825032230
         H            0.328128719845    -1.490717247838    -1.331643888787     1.007825032230
         H           -1.440528280155    -1.279733247838    -1.342419888787     1.007825032230
         H            2.959932719845     0.765163752162     0.098953111213     1.007825032230
         H            2.275113719845    -0.665994247838     0.849971111213     1.007825032230
         H            2.274760719845    -0.487099247838    -0.922614888787     1.007825032230

  Basis Set: AUG-CC-PVTZ
    Blend: AUG-CC-PVTZ
  Basis Set: (AUG-CC-PVTZ AUX)
    Blend: AUG-CC-PVTZ-JKFIT
	 Reference Energy          =    -251.7661223907504109 [Eh]
	 Singles Energy            =      -0.0000000000000000 [Eh]
	 Same-Spin Energy          =      -0.2640125942262839 [Eh]
	 Opposite-Spin Energy      =      -0.9734897025975876 [Eh]
	 Correlation Energy        =      -1.2375022968238714 [Eh]
	 Total Energy              =    -253.0036246875742734 [Eh]

	 ================> DF-SCS-MP2 Energies <==================
	-----------------------------------------------------------
	 SCS Same-Spin Scale       =       0.3333333333333333 [-]
	 SCS Opposite-Spin Scale   =       1.2000000000000000 [-]
	 SCS Same-Spin Energy      =      -0.0880041980754279 [Eh]
	 SCS Opposite-Spin Energy  =      -1.1681876431171050 [Eh]
	 SCS Correlation Energy    =      -1.2561918411925330 [Eh]
	 SCS Total Energy          =    -253.0223142319429428 [Eh]
	-----------------------------------------------------------

  Dipole Moment: [D]
     X:    -1.1647      Y:     0.0898      Z:    -0.1654     Total:     1.1798

*** Psi4 exiting successfully. Buy a developer a beer!
