                               Psi4 1.3.2 release

  ==> Input File <==

--------------------------------------------------------------------------
#psi4
#
memory 32 gb

molecule  {
1 1
  N       -0.4069554    -0.0231283    -0.0022573
  C        0.8493700     0.8287480     0.0834240
  C       -0.4796340    -0.9931830     1.1295180
  C       -1.5938470     0.9107330     0.0921540
  C       -0.4800430    -0.7477380    -1.3048640
  C        2.1429060     0.0433049     0.0039073
  H        0.7750750     1.5510780    -0.7332340
  H        0.7754440     1.3733960     1.0279370
  H       -0.3910070    -0.4497550     2.0704360
  H       -1.4389040    -1.5086650     1.0841090
  H        0.3297530    -1.7131150     1.0308910
  H       -1.5511370     1.6195010    -0.7345430
  H       -2.5082090     0.3207370     0.0328800
  H       -1.5507480     1.4402480     1.0436560
  H       -0.3916640    -0.0274250    -2.1183980
  H        0.3293150    -1.4728840    -1.3521980
  H       -1.4393420    -1.2619000    -1.3629740
  H        2.9611190     0.7829970     0.0783990
  H        2.2763000    -0.6481610     0.8294170
  H        2.2759470    -0.4692660    -0.9431690
units angstrom
no_reorient  #important for SAPT in psi4, default
symmetry c1  #important for SAPT in psi4, default
}

set PROPERTIES_ORIGIN ["COM"]
properties('MP2/aug-cc-pvtz', properties = ['dipole'])
--------------------------------------------------------------------------

    Molecular point group: c1
  Charge       = 1
  Multiplicity = 1
  Basis Set: AUG-CC-PVTZ
    Blend: AUG-CC-PVTZ
  Basis Set: (AUG-CC-PVTZ AUX)
    Blend: AUG-CC-PVTZ-JKFIT

    Orbital Energies [Eh]
    ---------------------

    Doubly Occupied:

       1A    -15.861010     2A    -11.452789     3A    -11.449041
       4A    -11.446617     5A    -11.446603     6A    -11.382257
       7A     -1.500723     8A     -1.212535     9A     -1.168031
      10A     -1.165666    11A     -1.075860    12A     -0.989615
      13A     -0.871711    14A     -0.866556    15A     -0.846137
      16A     -0.796335    17A     -0.768120    18A     -0.742274
      19A     -0.732089    20A     -0.725971    21A     -0.720175
      22A     -0.719869    23A     -0.684635    24A     -0.677518
      25A     -0.673465

  @DF-RHF Final Energy:  -251.81182691212302

   => Energetics <=

    Nuclear Repulsion Energy =            284.1454551408625093
    One-Electron Energy =                -891.9633531421876569
    Two-Electron Energy =                 356.0060710892021234
    Total Energy =                       -251.8118269121230242
  Basis Set: (AUG-CC-PVTZ AUX)
    Blend: AUG-CC-PVTZ-RI
    Molecular point group: c1

    Geometry (in Angstrom), charge = 1, multiplicity = 1:

       Center              X                  Y                   Z               Mass
    ------------   -----------------  -----------------  -----------------  -----------------
         N           -0.407203671779    -0.019856042900    -0.001927101232    14.003074004430
         C            0.849121728221     0.832020257100     0.083754198768    12.000000000000
         C           -0.479882271779    -0.989910742900     1.129848198768    12.000000000000
         C           -1.594095271779     0.914005257100     0.092484198768    12.000000000000
         C           -0.480291271779    -0.744465742900    -1.304533801232    12.000000000000
         C            2.142657728221     0.046577157100     0.004237498768    12.000000000000
         H            0.774826728221     1.554350257100    -0.732903801232     1.007825032230
         H            0.775195728221     1.376668257100     1.028267198768     1.007825032230
         H           -0.391255271779    -0.446482742900     2.070766198768     1.007825032230
         H           -1.439152271779    -1.505392742900     1.084439198768     1.007825032230
         H            0.329504728221    -1.709842742900     1.031221198768     1.007825032230
         H           -1.551385271779     1.622773257100    -0.734212801232     1.007825032230
         H           -2.508457271779     0.324009257100     0.033210198768     1.007825032230
         H           -1.550996271779     1.443520257100     1.043986198768     1.007825032230
         H           -0.391912271779    -0.024152742900    -2.118067801232     1.007825032230
         H            0.329066728221    -1.469611742900    -1.351867801232     1.007825032230
         H           -1.439590271779    -1.258627742900    -1.362643801232     1.007825032230
         H            2.960870728221     0.786269257100     0.078729198768     1.007825032230
         H            2.276051728221    -0.644888742900     0.829747198768     1.007825032230
         H            2.275698728221    -0.465993742900    -0.942838801232     1.007825032230

  Basis Set: AUG-CC-PVTZ
    Blend: AUG-CC-PVTZ
  Basis Set: (AUG-CC-PVTZ AUX)
    Blend: AUG-CC-PVTZ-JKFIT
	 Reference Energy          =    -251.8118269121230242 [Eh]
	 Singles Energy            =      -0.0000000000000000 [Eh]
	 Same-Spin Energy          =      -0.2610280810415771 [Eh]
	 Opposite-Spin Energy      =      -0.9709183815906754 [Eh]
	 Correlation Energy        =      -1.2319464626322525 [Eh]
	 Total Energy              =    -253.0437733747552898 [Eh]

	 ================> DF-SCS-MP2 Energies <==================
	-----------------------------------------------------------
	 SCS Same-Spin Scale       =       0.3333333333333333 [-]
	 SCS Opposite-Spin Scale   =       1.2000000000000000 [-]
	 SCS Same-Spin Energy      =      -0.0870093603471924 [Eh]
	 SCS Opposite-Spin Energy  =      -1.1651020579088105 [Eh]
	 SCS Correlation Energy    =      -1.2521114182560029 [Eh]
	 SCS Total Energy          =    -253.0639383303790169 [Eh]
	-----------------------------------------------------------

  Dipole Moment: [D]
     X:    -1.1930      Y:    -0.0034      Z:    -0.0001     Total:     1.1930

*** Psi4 exiting successfully. Buy a developer a beer!
