                               Psi4 1.3.2 release

  ==> Input File <==

--------------------------------------------------------------------------
#psi4
#
memory 32 gb

molecule  {
1 1
  N       -0.4103328    -0.0192197     0.0093459
  C        0.8493700     0.8287480     0.0834240
  C       -0.4796340    -0.9931830     1.1295180
  C       -1.5938470     0.9107330     0.0921540
  C       -0.4800430    -0.7477380    -1.3048640
  C        2.1497460     0.0545660     0.0050420
  H        0.7834847     1.5547747    -0.7306736
  H        0.7754440     1.3733960     1.0279370
  H       -0.3910070    -0.4497550     2.0704360
  H       -1.4389040    -1.5086650     1.0841090
  H        0.3297530    -1.7131150     1.0308910
  H       -1.5511370     1.6195010    -0.7345430
  H       -2.5082090     0.3207370     0.0328800
  H       -1.5507480     1.4402480     1.0436560
  H       -0.3916640    -0.0274250    -2.1183980
  H        0.3293150    -1.4728840    -1.3521980
  H       -1.4393420    -1.2619000    -1.3629740
  H        2.9611190     0.7829970     0.0783990
  H        2.2763000    -0.6481610     0.8294170
  H        2.2759470    -0.4692660    -0.9431690
units angstrom
no_reorient  #important for SAPT in psi4, default
symmetry c1  #important for SAPT in psi4, default
}

set PROPERTIES_ORIGIN ["COM"]
properties('MP2/aug-cc-pvtz', properties = ['dipole'])
--------------------------------------------------------------------------

    Molecular point group: c1
  Charge       = 1
  Multiplicity = 1
  Basis Set: AUG-CC-PVTZ
    Blend: AUG-CC-PVTZ
  Basis Set: (AUG-CC-PVTZ AUX)
    Blend: AUG-CC-PVTZ-JKFIT

    Orbital Energies [Eh]
    ---------------------

    Doubly Occupied:

       1A    -15.861541     2A    -11.452468     3A    -11.448691
       4A    -11.447704     5A    -11.446241     6A    -11.382234
       7A     -1.500873     8A     -1.212622     9A     -1.168243
      10A     -1.165539    11A     -1.076057    12A     -0.989549
      13A     -0.871904    14A     -0.866623    15A     -0.846242
      16A     -0.795582    17A     -0.768351    18A     -0.741685
      19A     -0.733428    20A     -0.726032    21A     -0.720629
      22A     -0.718702    23A     -0.685560    24A     -0.680124
      25A     -0.670668

  @DF-RHF Final Energy:  -251.81213315779581

   => Energetics <=

    Nuclear Repulsion Energy =            284.0433695342294413
    One-Electron Energy =                -891.7564244505801980
    Two-Electron Energy =                 355.9009217585549436
    Total Energy =                       -251.8121331577958131
  Basis Set: (AUG-CC-PVTZ AUX)
    Blend: AUG-CC-PVTZ-RI
    Molecular point group: c1

    Geometry (in Angstrom), charge = 1, multiplicity = 1:

       Center              X                  Y                   Z               Mass
    ------------   -----------------  -----------------  -----------------  -----------------
         N           -0.411072051639    -0.018144531490     0.007648270127    14.003074004430
         C            0.848630748361     0.829823168510     0.081726370127    12.000000000000
         C           -0.480373251639    -0.992107831490     1.127820370127    12.000000000000
         C           -1.594586251639     0.911808168510     0.090456370127    12.000000000000
         C           -0.480782251639    -0.746662831490    -1.306561629873    12.000000000000
         C            2.149006748361     0.055641168510     0.003344370127    12.000000000000
         H            0.782745448361     1.555849868510    -0.732371229873     1.007825032230
         H            0.774704748361     1.374471168510     1.026239370127     1.007825032230
         H           -0.391746251639    -0.448679831490     2.068738370127     1.007825032230
         H           -1.439643251639    -1.507589831490     1.082411370127     1.007825032230
         H            0.329013748361    -1.712039831490     1.029193370127     1.007825032230
         H           -1.551876251639     1.620576168510    -0.736240629873     1.007825032230
         H           -2.508948251639     0.321812168510     0.031182370127     1.007825032230
         H           -1.551487251639     1.441323168510     1.041958370127     1.007825032230
         H           -0.392403251639    -0.026349831490    -2.120095629873     1.007825032230
         H            0.328575748361    -1.471808831490    -1.353895629873     1.007825032230
         H           -1.440081251639    -1.260824831490    -1.364671629873     1.007825032230
         H            2.960379748361     0.784072168510     0.076701370127     1.007825032230
         H            2.275560748361    -0.647085831490     0.827719370127     1.007825032230
         H            2.275207748361    -0.468190831490    -0.944866629873     1.007825032230

  Basis Set: AUG-CC-PVTZ
    Blend: AUG-CC-PVTZ
  Basis Set: (AUG-CC-PVTZ AUX)
    Blend: AUG-CC-PVTZ-JKFIT
	 Reference Energy          =    -251.8121331577958131 [Eh]
	 Singles Energy            =      -0.0000000000000000 [Eh]
	 Same-Spin Energy          =      -0.2609639240439104 [Eh]
	 Opposite-Spin Energy      =      -0.9708224635599025 [Eh]
	 Correlation Energy        =      -1.2317863876038129 [Eh]
	 Total Energy              =    -253.0439195453996319 [Eh]

	 ================> DF-SCS-MP2 Energies <==================
	-----------------------------------------------------------
	 SCS Same-Spin Scale       =       0.3333333333333333 [-]
	 SCS Opposite-Spin Scale   =       1.2000000000000000 [-]
	 SCS Same-Spin Energy      =      -0.0869879746813035 [Eh]
	 SCS Opposite-Spin Energy  =      -1.1649869562718831 [Eh]
	 SCS Correlation Energy    =      -1.2519749309531865 [Eh]
	 SCS Total Energy          =    -253.0641080887490091 [Eh]
	-----------------------------------------------------------

  Dipole Moment: [D]
     X:    -1.1973      Y:    -0.0203      Z:    -0.0291     Total:     1.1978

*** Psi4 exiting successfully. Buy a developer a beer!
