                               Psi4 1.3.2 release

  ==> Input File <==

--------------------------------------------------------------------------
#psi4
#
memory 32 gb

molecule  {
1 1
  N       -0.4117575     0.0072386     0.0161567
  C        0.8493700     0.8287480     0.0834240
  C       -0.4796340    -0.9931830     1.1295180
  C       -1.5938470     0.9107330     0.0921540
  C       -0.4800430    -0.7477380    -1.3048640
  C        2.1497460     0.0545660     0.0050420
  H        0.7750750     1.5510780    -0.7332340
  H        0.7754440     1.3733960     1.0279370
  H       -0.3896205    -0.4334640     2.0607042
  H       -1.4389040    -1.5086650     1.0841090
  H        0.3297530    -1.7131150     1.0308910
  H       -1.5511370     1.6195010    -0.7345430
  H       -2.5082090     0.3207370     0.0328800
  H       -1.5507480     1.4402480     1.0436560
  H       -0.3916640    -0.0274250    -2.1183980
  H        0.3293150    -1.4728840    -1.3521980
  H       -1.4393420    -1.2619000    -1.3629740
  H        2.9611190     0.7829970     0.0783990
  H        2.2763000    -0.6481610     0.8294170
  H        2.2759470    -0.4692660    -0.9431690
units angstrom
no_reorient  #important for SAPT in psi4, default
symmetry c1  #important for SAPT in psi4, default
}

set PROPERTIES_ORIGIN ["COM"]
properties('MP2/aug-cc-pvtz', properties = ['dipole'])
--------------------------------------------------------------------------

    Molecular point group: c1
  Charge       = 1
  Multiplicity = 1
  Basis Set: AUG-CC-PVTZ
    Blend: AUG-CC-PVTZ
  Basis Set: (AUG-CC-PVTZ AUX)
    Blend: AUG-CC-PVTZ-JKFIT

    Orbital Energies [Eh]
    ---------------------

    Doubly Occupied:

       1A    -15.861356     2A    -11.451345     3A    -11.449184
       4A    -11.447489     5A    -11.447255     6A    -11.382692
       7A     -1.501100     8A     -1.213341     9A     -1.168016
      10A     -1.163785    11A     -1.078679    12A     -0.988914
      13A     -0.870636    14A     -0.868120    15A     -0.845337
      16A     -0.795658    17A     -0.770111    18A     -0.741037
      19A     -0.733968    20A     -0.726222    21A     -0.722295
      22A     -0.712609    23A     -0.690128    24A     -0.680027
      25A     -0.669904

  @DF-RHF Final Energy:  -251.81144787396775

   => Energetics <=

    Nuclear Repulsion Energy =            284.0884991579301300
    One-Electron Energy =                -891.8414798940052606
    Two-Electron Energy =                 355.9415328621074650
    Total Energy =                       -251.8114478739677224
  Basis Set: (AUG-CC-PVTZ AUX)
    Blend: AUG-CC-PVTZ-RI
    Molecular point group: c1

    Geometry (in Angstrom), charge = 1, multiplicity = 1:

       Center              X                  Y                   Z               Mass
    ------------   -----------------  -----------------  -----------------  -----------------
         N           -0.412190004037     0.003964898117     0.013517278300    14.003074004430
         C            0.848937495963     0.825474298117     0.080784578300    12.000000000000
         C           -0.480066504037    -0.996456701883     1.126878578300    12.000000000000
         C           -1.594279504037     0.907459298117     0.089514578300    12.000000000000
         C           -0.480475504037    -0.751011701883    -1.307503421700    12.000000000000
         C            2.149313495963     0.051292298117     0.002402578300    12.000000000000
         H            0.774642495963     1.547804298117    -0.735873421700     1.007825032230
         H            0.775011495963     1.370122298117     1.025297578300     1.007825032230
         H           -0.390053004037    -0.436737701883     2.058064778300     1.007825032230
         H           -1.439336504037    -1.511938701883     1.081469578300     1.007825032230
         H            0.329320495963    -1.716388701883     1.028251578300     1.007825032230
         H           -1.551569504037     1.616227298117    -0.737182421700     1.007825032230
         H           -2.508641504037     0.317463298117     0.030240578300     1.007825032230
         H           -1.551180504037     1.436974298117     1.041016578300     1.007825032230
         H           -0.392096504037    -0.030698701883    -2.121037421700     1.007825032230
         H            0.328882495963    -1.476157701883    -1.354837421700     1.007825032230
         H           -1.439774504037    -1.265173701883    -1.365613421700     1.007825032230
         H            2.960686495963     0.779723298117     0.075759578300     1.007825032230
         H            2.275867495963    -0.651434701883     0.826777578300     1.007825032230
         H            2.275514495963    -0.472539701883    -0.945808421700     1.007825032230

  Basis Set: AUG-CC-PVTZ
    Blend: AUG-CC-PVTZ
  Basis Set: (AUG-CC-PVTZ AUX)
    Blend: AUG-CC-PVTZ-JKFIT
	 Reference Energy          =    -251.8114478739677509 [Eh]
	 Singles Energy            =      -0.0000000000000000 [Eh]
	 Same-Spin Energy          =      -0.2610206128780860 [Eh]
	 Opposite-Spin Energy      =      -0.9709445972368697 [Eh]
	 Correlation Energy        =      -1.2319652101149556 [Eh]
	 Total Energy              =    -253.0434130840827152 [Eh]

	 ================> DF-SCS-MP2 Energies <==================
	-----------------------------------------------------------
	 SCS Same-Spin Scale       =       0.3333333333333333 [-]
	 SCS Opposite-Spin Scale   =       1.2000000000000000 [-]
	 SCS Same-Spin Energy      =      -0.0870068709593620 [Eh]
	 SCS Opposite-Spin Energy  =      -1.1651335166842436 [Eh]
	 SCS Correlation Energy    =      -1.2521403876436055 [Eh]
	 SCS Total Energy          =    -253.0635882616113577 [Eh]
	-----------------------------------------------------------

  Dipole Moment: [D]
     X:    -1.1946      Y:    -0.0875      Z:    -0.0495     Total:     1.1988

*** Psi4 exiting successfully. Buy a developer a beer!
