                               Psi4 1.3.2 release

  ==> Input File <==

--------------------------------------------------------------------------
#psi4
#
memory 32 gb

molecule  {
1 1
  N       -0.4217064    -0.0011837    -0.0000402
  C        0.8493700     0.8287480     0.0834240
  C       -0.4796340    -0.9931830     1.1295180
  C       -1.5938470     0.9107330     0.0921540
  C       -0.4800430    -0.7477380    -1.3048640
  C        2.1564869     0.0658861     0.0061827
  H        0.7750750     1.5510780    -0.7332340
  H        0.7754440     1.3733960     1.0279370
  H       -0.3910070    -0.4497550     2.0704360
  H       -1.4389040    -1.5086650     1.0841090
  H        0.3297530    -1.7131150     1.0308910
  H       -1.5511370     1.6195010    -0.7345430
  H       -2.5082090     0.3207370     0.0328800
  H       -1.5507480     1.4402480     1.0436560
  H       -0.3916640    -0.0274250    -2.1183980
  H        0.3293150    -1.4728840    -1.3521980
  H       -1.4393420    -1.2619000    -1.3629740
  H        2.9611190     0.7829970     0.0783990
  H        2.2763000    -0.6481610     0.8294170
  H        2.2759470    -0.4692660    -0.9431690
units angstrom
no_reorient  #important for SAPT in psi4, default
symmetry c1  #important for SAPT in psi4, default
}

set PROPERTIES_ORIGIN ["COM"]
properties('MP2/aug-cc-pvtz', properties = ['dipole'])
--------------------------------------------------------------------------

    Molecular point group: c1
  Charge       = 1
  Multiplicity = 1
  Basis Set: AUG-CC-PVTZ
    Blend: AUG-CC-PVTZ
  Basis Set: (AUG-CC-PVTZ AUX)
    Blend: AUG-CC-PVTZ-JKFIT

    Orbital Energies [Eh]
    ---------------------

    Doubly Occupied:

       1A    -15.861804     2A    -11.452314     3A    -11.447832
       4A    -11.447819     5A    -11.447139     6A    -11.382900
       7A     -1.501128     8A     -1.212878     9A     -1.167927
      10A     -1.165714    11A     -1.076836    12A     -0.989604
      13A     -0.871099    14A     -0.867444    15A     -0.846215
      16A     -0.795332    17A     -0.769099    18A     -0.740084
      19A     -0.734165    20A     -0.726104    21A     -0.722177
      22A     -0.715596    23A     -0.690578    24A     -0.680471
      25A     -0.668431

  @DF-RHF Final Energy:  -251.81203952860585

   => Energetics <=

    Nuclear Repulsion Energy =            283.9471120421963519
    One-Electron Energy =                -891.5569246150029130
    Two-Electron Energy =                 355.7977730442006532
    Total Energy =                       -251.8120395286058510
  Basis Set: (AUG-CC-PVTZ AUX)
    Blend: AUG-CC-PVTZ-RI
    Molecular point group: c1

    Geometry (in Angstrom), charge = 1, multiplicity = 1:

       Center              X                  Y                   Z               Mass
    ------------   -----------------  -----------------  -----------------  -----------------
         N           -0.421459980525    -0.004474251140    -0.000372233412    14.003074004430
         C            0.849616419475     0.825457448860     0.083091966588    12.000000000000
         C           -0.479387580525    -0.996473551140     1.129185966588    12.000000000000
         C           -1.593600580525     0.907442448860     0.091821966588    12.000000000000
         C           -0.479796580525    -0.751028551140    -1.305196033412    12.000000000000
         C            2.156733319475     0.062595548860     0.005850666588    12.000000000000
         H            0.775321419475     1.547787448860    -0.733566033412     1.007825032230
         H            0.775690419475     1.370105448860     1.027604966588     1.007825032230
         H           -0.390760580525    -0.453045551140     2.070103966588     1.007825032230
         H           -1.438657580525    -1.511955551140     1.083776966588     1.007825032230
         H            0.329999419475    -1.716405551140     1.030558966588     1.007825032230
         H           -1.550890580525     1.616210448860    -0.734875033412     1.007825032230
         H           -2.507962580525     0.317446448860     0.032547966588     1.007825032230
         H           -1.550501580525     1.436957448860     1.043323966588     1.007825032230
         H           -0.391417580525    -0.030715551140    -2.118730033412     1.007825032230
         H            0.329561419475    -1.476174551140    -1.352530033412     1.007825032230
         H           -1.439095580525    -1.265190551140    -1.363306033412     1.007825032230
         H            2.961365419475     0.779706448860     0.078066966588     1.007825032230
         H            2.276546419475    -0.651451551140     0.829084966588     1.007825032230
         H            2.276193419475    -0.472556551140    -0.943501033412     1.007825032230

  Basis Set: AUG-CC-PVTZ
    Blend: AUG-CC-PVTZ
  Basis Set: (AUG-CC-PVTZ AUX)
    Blend: AUG-CC-PVTZ-JKFIT
	 Reference Energy          =    -251.8120395286058510 [Eh]
	 Singles Energy            =      -0.0000000000000000 [Eh]
	 Same-Spin Energy          =      -0.2609362129113044 [Eh]
	 Opposite-Spin Energy      =      -0.9707784485084546 [Eh]
	 Correlation Energy        =      -1.2317146614197592 [Eh]
	 Total Energy              =    -253.0437541900256235 [Eh]

	 ================> DF-SCS-MP2 Energies <==================
	-----------------------------------------------------------
	 SCS Same-Spin Scale       =       0.3333333333333333 [-]
	 SCS Opposite-Spin Scale   =       1.2000000000000000 [-]
	 SCS Same-Spin Energy      =      -0.0869787376371015 [Eh]
	 SCS Opposite-Spin Energy  =      -1.1649341382101455 [Eh]
	 SCS Correlation Energy    =      -1.2519128758472469 [Eh]
	 SCS Total Energy          =    -253.0639524044530901 [Eh]
	-----------------------------------------------------------

  Dipole Moment: [D]
     X:    -1.1793      Y:    -0.0761      Z:    -0.0074     Total:     1.1818

*** Psi4 exiting successfully. Buy a developer a beer!
