                               Psi4 1.4a3.dev225

  ==> Input File <==

--------------------------------------------------------------------------
#psi4
#
memory 32 gb

molecule  {
1 1
  N        0.4178150    -0.0006520    -0.0000630
  C       -0.8150812     0.7968290    -0.0009227
  C        0.4729990    -0.9017910    -1.1962230
  C        1.5793660     0.9480380    -0.0539900
  C        0.5237060    -0.8216500     1.2493860
  C       -2.1433350     0.0208080     0.0021430
  H       -0.7927630     1.4633150     0.8819470
  H       -0.7964710     1.4567520    -0.8889780
  H        0.3340020    -0.2978660    -2.0924670
  H        1.4489560    -1.3852540    -1.2134470
  H       -0.3098240    -1.6525160    -1.1165640
  H        1.5295780     1.6068410     0.8121160
  H        2.5017250     0.3690020    -0.0365590
  H        1.5128670     1.5259610    -0.9748480
  H        0.4511560    -0.1564930     2.1092880
  H       -0.2781350    -1.5558310     1.2658670
  H        1.4885380    -1.3271890     1.2430600
  H       -2.9659450     0.7401210     0.0203810
  H       -2.2593290    -0.5863990    -0.8962730
  H       -2.2430950    -0.6122210     0.8847330
units angstrom
no_reorient  #important for SAPT in psi4, default
symmetry c1  #important for SAPT in psi4, default
}

set PROPERTIES_ORIGIN ["COM"]
properties('MP2/aug-cc-pvtz', properties = ['dipole'])
--------------------------------------------------------------------------

    Molecular point group: c1
  Charge       = 1
  Multiplicity = 1
  Basis Set: AUG-CC-PVTZ
    Blend: AUG-CC-PVTZ
  Basis Set: (AUG-CC-PVTZ AUX)
    Blend: AUG-CC-PVTZ-JKFIT

    Orbital Energies [Eh]
    ---------------------

    Doubly Occupied:

       1A    -15.864108     2A    -11.449853     3A    -11.449611
       4A    -11.449037     5A    -11.449023     6A    -11.382423
       7A     -1.511966     8A     -1.208368     9A     -1.170275
      10A     -1.170067    11A     -1.081591    12A     -0.987599
      13A     -0.875239    14A     -0.870217    15A     -0.848819
      16A     -0.792921    17A     -0.770959    18A     -0.739618
      19A     -0.736196    20A     -0.727369    21A     -0.722912
      22A     -0.720619    23A     -0.690706    24A     -0.672009
      25A     -0.665540

  @DF-RHF Final Energy:  -251.81032856715115

   => Energetics <=

    Nuclear Repulsion Energy =            284.9429594188064812
    One-Electron Energy =                -893.4924831262973157
    Two-Electron Energy =                 356.7391951403396888
    Total Energy =                       -251.8103285671511458
  Basis Set: (AUG-CC-PVTZ AUX)
    Blend: AUG-CC-PVTZ-RI
    Molecular point group: c1

    Geometry (in Angstrom), charge = 1, multiplicity = 1:

       Center              X                  Y                   Z               Mass
    ------------   -----------------  -----------------  -----------------  -----------------
         N            0.407818154282    -0.001590331232    -0.000086603422    14.003074004430
         C           -0.825078045718     0.795890668768    -0.000946303422    12.000000000000
         C            0.463002154282    -0.902729331232    -1.196246603422    12.000000000000
         C            1.569369154282     0.947099668768    -0.054013603422    12.000000000000
         C            0.513709154282    -0.822588331232     1.249362396578    12.000000000000
         C           -2.153331845718     0.019869668768     0.002119396578    12.000000000000
         H           -0.802759845718     1.462376668768     0.881923396578     1.007825032230
         H           -0.806467845718     1.455813668768    -0.889001603422     1.007825032230
         H            0.324005154282    -0.298804331232    -2.092490603422     1.007825032230
         H            1.438959154282    -1.386192331232    -1.213470603422     1.007825032230
         H           -0.319820845718    -1.653454331232    -1.116587603422     1.007825032230
         H            1.519581154282     1.605902668768     0.812092396578     1.007825032230
         H            2.491728154282     0.368063668768    -0.036582603422     1.007825032230
         H            1.502870154282     1.525022668768    -0.974871603422     1.007825032230
         H            0.441159154282    -0.157431331232     2.109264396578     1.007825032230
         H           -0.288131845718    -1.556769331232     1.265843396578     1.007825032230
         H            1.478541154282    -1.328127331232     1.243036396578     1.007825032230
         H           -2.975941845718     0.739182668768     0.020357396578     1.007825032230
         H           -2.269325845718    -0.587337331232    -0.896296603422     1.007825032230
         H           -2.253091845718    -0.613159331232     0.884709396578     1.007825032230

  Basis Set: AUG-CC-PVTZ
    Blend: AUG-CC-PVTZ
  Basis Set: (AUG-CC-PVTZ AUX)
    Blend: AUG-CC-PVTZ-JKFIT
	 Reference Energy          =    -251.8103285671511458 [Eh]
	 Singles Energy            =      -0.0000000000000000 [Eh]
	 Same-Spin Energy          =      -0.2611990513846884 [Eh]
	 Opposite-Spin Energy      =      -0.9709204013248338 [Eh]
	 Correlation Energy        =      -1.2321194527095223 [Eh]
	 Total Energy              =    -253.0424480198606716 [Eh]

	 ================> DF-SCS-MP2 Energies <==================
	-----------------------------------------------------------
	 SCS Same-Spin Scale       =       0.3333333333333333 [-]
	 SCS Opposite-Spin Scale   =       1.2000000000000000 [-]
	 SCS Same-Spin Energy      =      -0.0870663504615628 [Eh]
	 SCS Opposite-Spin Energy  =      -1.1651044815898006 [Eh]
	 SCS Correlation Energy    =      -1.2521708320513634 [Eh]
	 SCS Total Energy          =    -253.0624993992025225 [Eh]
	-----------------------------------------------------------

  Dipole Moment: [D]
     X:     1.2890      Y:    -0.0592      Z:    -0.0018     Total:     1.2904

*** Psi4 exiting successfully. Buy a developer a beer!
