                               Psi4 1.3.2 release

  ==> Input File <==

--------------------------------------------------------------------------
#psi4
#
memory 32 gb

molecule  {
1 1
  N       -0.3994361    -0.0340037    -0.0033561
  C        0.8493700     0.8287480     0.0834240
  C       -0.4796340    -0.9931830     1.1295180
  C       -1.5938470     0.9107330     0.0921540
  C       -0.4800430    -0.7477380    -1.3048640
  C        2.1359675     0.0321036     0.0027787
  H        0.7750750     1.5510780    -0.7332340
  H        0.7754440     1.3733960     1.0279370
  H       -0.3910070    -0.4497550     2.0704360
  H       -1.4389040    -1.5086650     1.0841090
  H        0.3297530    -1.7131150     1.0308910
  H       -1.5511370     1.6195010    -0.7345430
  H       -2.5082090     0.3207370     0.0328800
  H       -1.5507480     1.4402480     1.0436560
  H       -0.3916640    -0.0274250    -2.1183980
  H        0.3293150    -1.4728840    -1.3521980
  H       -1.4393420    -1.2619000    -1.3629740
  H        2.9611190     0.7829970     0.0783990
  H        2.2763000    -0.6481610     0.8294170
  H        2.2759470    -0.4692660    -0.9431690
units angstrom
no_reorient  #important for SAPT in psi4, default
symmetry c1  #important for SAPT in psi4, default
}

set PROPERTIES_ORIGIN ["COM"]
properties('MP2/aug-cc-pvtz', properties = ['dipole'])
--------------------------------------------------------------------------

    Molecular point group: c1
  Charge       = 1
  Multiplicity = 1
  Basis Set: AUG-CC-PVTZ
    Blend: AUG-CC-PVTZ
  Basis Set: (AUG-CC-PVTZ AUX)
    Blend: AUG-CC-PVTZ-JKFIT

    Orbital Energies [Eh]
    ---------------------

    Doubly Occupied:

       1A    -15.860579     2A    -11.453088     3A    -11.449983
       4A    -11.446044     5A    -11.446030     6A    -11.382025
       7A     -1.500645     8A     -1.212476     9A     -1.169210
      10A     -1.164521    11A     -1.075424    12A     -0.989632
      13A     -0.872009    14A     -0.866181    15A     -0.846197
      16A     -0.796877    17A     -0.767818    18A     -0.743648
      19A     -0.731334    20A     -0.725944    21A     -0.722115
      22A     -0.719019    23A     -0.683056    24A     -0.675871
      25A     -0.673630

  @DF-RHF Final Energy:  -251.81052416147523

   => Energetics <=

    Nuclear Repulsion Energy =            284.2473642002552765
    One-Electron Energy =                -892.1690658084476127
    Two-Electron Energy =                 356.1111774467170221
    Total Energy =                       -251.8105241614752572
  Basis Set: (AUG-CC-PVTZ AUX)
    Blend: AUG-CC-PVTZ-RI
    Molecular point group: c1

    Geometry (in Angstrom), charge = 1, multiplicity = 1:

       Center              X                  Y                   Z               Mass
    ------------   -----------------  -----------------  -----------------  -----------------
         N           -0.399934407622    -0.027477600073    -0.002697573959    14.003074004430
         C            0.848871692378     0.835274099927     0.084082526041    12.000000000000
         C           -0.480132307622    -0.986656900073     1.130176526041    12.000000000000
         C           -1.594345307622     0.917259099927     0.092812526041    12.000000000000
         C           -0.480541307622    -0.741211900073    -1.304205473959    12.000000000000
         C            2.135469192378     0.038629699927     0.003437226041    12.000000000000
         H            0.774576692378     1.557604099927    -0.732575473959     1.007825032230
         H            0.774945692378     1.379922099927     1.028595526041     1.007825032230
         H           -0.391505307622    -0.443228900073     2.071094526041     1.007825032230
         H           -1.439402307622    -1.502138900073     1.084767526041     1.007825032230
         H            0.329254692378    -1.706588900073     1.031549526041     1.007825032230
         H           -1.551635307622     1.626027099927    -0.733884473959     1.007825032230
         H           -2.508707307622     0.327263099927     0.033538526041     1.007825032230
         H           -1.551246307622     1.446774099927     1.044314526041     1.007825032230
         H           -0.392162307622    -0.020898900073    -2.117739473959     1.007825032230
         H            0.328816692378    -1.466357900073    -1.351539473959     1.007825032230
         H           -1.439840307622    -1.255373900073    -1.362315473959     1.007825032230
         H            2.960620692378     0.789523099927     0.079057526041     1.007825032230
         H            2.275801692378    -0.641634900073     0.830075526041     1.007825032230
         H            2.275448692378    -0.462739900073    -0.942510473959     1.007825032230

  Basis Set: AUG-CC-PVTZ
    Blend: AUG-CC-PVTZ
  Basis Set: (AUG-CC-PVTZ AUX)
    Blend: AUG-CC-PVTZ-JKFIT
	 Reference Energy          =    -251.8105241614752288 [Eh]
	 Singles Energy            =      -0.0000000000000000 [Eh]
	 Same-Spin Energy          =      -0.2611141361046809 [Eh]
	 Opposite-Spin Energy      =      -0.9710786812282053 [Eh]
	 Correlation Energy        =      -1.2321928173328862 [Eh]
	 Total Energy              =    -253.0427169788081017 [Eh]

	 ================> DF-SCS-MP2 Energies <==================
	-----------------------------------------------------------
	 SCS Same-Spin Scale       =       0.3333333333333333 [-]
	 SCS Opposite-Spin Scale   =       1.2000000000000000 [-]
	 SCS Same-Spin Energy      =      -0.0870380453682270 [Eh]
	 SCS Opposite-Spin Energy  =      -1.1652944174738462 [Eh]
	 SCS Correlation Energy    =      -1.2523324628420731 [Eh]
	 SCS Total Energy          =    -253.0628566243173054 [Eh]
	-----------------------------------------------------------

  Dipole Moment: [D]
     X:    -1.2005      Y:     0.0326      Z:     0.0036     Total:     1.2010

*** Psi4 exiting successfully. Buy a developer a beer!
