                               Psi4 1.3.2 release

  ==> Input File <==

--------------------------------------------------------------------------
#psi4
#
memory 32 gb

molecule  {
1 1
  N       -0.4065772     0.0451718     0.0517861
  C        0.8493700     0.8287480     0.0834240
  C       -0.4796340    -0.9931830     1.1295180
  C       -1.5938470     0.9107330     0.0921540
  C       -0.4800430    -0.7477380    -1.3048640
  C        2.1497460     0.0545660     0.0050420
  H        0.7750750     1.5510780    -0.7332340
  H        0.7754440     1.3733960     1.0279370
  H       -0.3869301    -0.4013985     2.0403926
  H       -1.4389040    -1.5086650     1.0841090
  H        0.3297530    -1.7131150     1.0308910
  H       -1.5511370     1.6195010    -0.7345430
  H       -2.5082090     0.3207370     0.0328800
  H       -1.5507480     1.4402480     1.0436560
  H       -0.3916640    -0.0274250    -2.1183980
  H        0.3293150    -1.4728840    -1.3521980
  H       -1.4393420    -1.2619000    -1.3629740
  H        2.9611190     0.7829970     0.0783990
  H        2.2763000    -0.6481610     0.8294170
  H        2.2759470    -0.4692660    -0.9431690
units angstrom
no_reorient  #important for SAPT in psi4, default
symmetry c1  #important for SAPT in psi4, default
}

set PROPERTIES_ORIGIN ["COM"]
properties('MP2/aug-cc-pvtz', properties = ['dipole'])
--------------------------------------------------------------------------

    Molecular point group: c1
  Charge       = 1
  Multiplicity = 1
  Basis Set: AUG-CC-PVTZ
    Blend: AUG-CC-PVTZ
  Basis Set: (AUG-CC-PVTZ AUX)
    Blend: AUG-CC-PVTZ-JKFIT

    Orbital Energies [Eh]
    ---------------------

    Doubly Occupied:

       1A    -15.860895     2A    -11.452970     3A    -11.449223
       4A    -11.448205     5A    -11.445828     6A    -11.383061
       7A     -1.502333     8A     -1.215108     9A     -1.170376
      10A     -1.158028    11A     -1.083234    12A     -0.987313
      13A     -0.871151    14A     -0.869389    15A     -0.843767
      16A     -0.795540    17A     -0.773997    18A     -0.742346
      19A     -0.735925    20A     -0.726892    21A     -0.724260
      22A     -0.702033    23A     -0.695266    24A     -0.679458
      25A     -0.665023

  @DF-RHF Final Energy:  -251.80474294318398

   => Energetics <=

    Nuclear Repulsion Energy =            284.1737731084814982
    One-Electron Energy =                -891.9937942307498133
    Two-Electron Energy =                 356.0152781790843619
    Total Energy =                       -251.8047429431840101
  Basis Set: (AUG-CC-PVTZ AUX)
    Blend: AUG-CC-PVTZ-RI
    Molecular point group: c1

    Geometry (in Angstrom), charge = 1, multiplicity = 1:

       Center              X                  Y                   Z               Mass
    ------------   -----------------  -----------------  -----------------  -----------------
         N           -0.407863742572     0.035502898520     0.043716689249    14.003074004430
         C            0.848083457428     0.819079098520     0.075354589249    12.000000000000
         C           -0.480920542572    -1.002851901480     1.121448589249    12.000000000000
         C           -1.595133542572     0.901064098520     0.084084589249    12.000000000000
         C           -0.481329542572    -0.757406901480    -1.312933410751    12.000000000000
         C            2.148459457428     0.044897098520    -0.003027410751    12.000000000000
         H            0.773788457428     1.541409098520    -0.741303410751     1.007825032230
         H            0.774157457428     1.363727098520     1.019867589249     1.007825032230
         H           -0.388216642572    -0.411067401480     2.032323189249     1.007825032230
         H           -1.440190542572    -1.518333901480     1.076039589249     1.007825032230
         H            0.328466457428    -1.722783901480     1.022821589249     1.007825032230
         H           -1.552423542572     1.609832098520    -0.742612410751     1.007825032230
         H           -2.509495542572     0.311068098520     0.024810589249     1.007825032230
         H           -1.552034542572     1.430579098520     1.035586589249     1.007825032230
         H           -0.392950542572    -0.037093901480    -2.126467410751     1.007825032230
         H            0.328028457428    -1.482552901480    -1.360267410751     1.007825032230
         H           -1.440628542572    -1.271568901480    -1.371043410751     1.007825032230
         H            2.959832457428     0.773328098520     0.070329589249     1.007825032230
         H            2.275013457428    -0.657829901480     0.821347589249     1.007825032230
         H            2.274660457428    -0.478934901480    -0.951238410751     1.007825032230

  Basis Set: AUG-CC-PVTZ
    Blend: AUG-CC-PVTZ
  Basis Set: (AUG-CC-PVTZ AUX)
    Blend: AUG-CC-PVTZ-JKFIT
	 Reference Energy          =    -251.8047429431839817 [Eh]
	 Singles Energy            =      -0.0000000000000000 [Eh]
	 Same-Spin Energy          =      -0.2613532062265166 [Eh]
	 Opposite-Spin Energy      =      -0.9716522425620041 [Eh]
	 Correlation Energy        =      -1.2330054487885207 [Eh]
	 Total Energy              =    -253.0377483919725137 [Eh]

	 ================> DF-SCS-MP2 Energies <==================
	-----------------------------------------------------------
	 SCS Same-Spin Scale       =       0.3333333333333333 [-]
	 SCS Opposite-Spin Scale   =       1.2000000000000000 [-]
	 SCS Same-Spin Energy      =      -0.0871177354088389 [Eh]
	 SCS Opposite-Spin Energy  =      -1.1659826910744049 [Eh]
	 SCS Correlation Energy    =      -1.2531004264832437 [Eh]
	 SCS Total Energy          =    -253.0578433696672391 [Eh]
	-----------------------------------------------------------

  Dipole Moment: [D]
     X:    -1.2093      Y:    -0.1793      Z:    -0.1421     Total:     1.2308

*** Psi4 exiting successfully. Buy a developer a beer!
