                               Psi4 1.3.2 release

  ==> Input File <==

--------------------------------------------------------------------------
#psi4
#
memory 32 gb

molecule  {
1 1
  N       -0.4143790    -0.0121880    -0.0011520
  C        0.9324936     0.8840609     0.0889870
  C       -0.4796340    -0.9931830     1.1295180
  C       -1.5938470     0.9107330     0.0921540
  C       -0.4800430    -0.7477380    -1.3048640
  C        2.1497460     0.0545660     0.0050420
  H        0.7750750     1.5510780    -0.7332340
  H        0.7754440     1.3733960     1.0279370
  H       -0.3910070    -0.4497550     2.0704360
  H       -1.4389040    -1.5086650     1.0841090
  H        0.3297530    -1.7131150     1.0308910
  H       -1.5511370     1.6195010    -0.7345430
  H       -2.5082090     0.3207370     0.0328800
  H       -1.5507480     1.4402480     1.0436560
  H       -0.3916640    -0.0274250    -2.1183980
  H        0.3293150    -1.4728840    -1.3521980
  H       -1.4393420    -1.2619000    -1.3629740
  H        2.9611190     0.7829970     0.0783990
  H        2.2763000    -0.6481610     0.8294170
  H        2.2759470    -0.4692660    -0.9431690
units angstrom
no_reorient  #important for SAPT in psi4, default
symmetry c1  #important for SAPT in psi4, default
}

set PROPERTIES_ORIGIN ["COM"]
properties('MP2/aug-cc-pvtz', properties = ['dipole'])
--------------------------------------------------------------------------

    Molecular point group: c1
  Charge       = 1
  Multiplicity = 1
  Basis Set: AUG-CC-PVTZ
    Blend: AUG-CC-PVTZ
  Basis Set: (AUG-CC-PVTZ AUX)
    Blend: AUG-CC-PVTZ-JKFIT

    Orbital Energies [Eh]
    ---------------------

    Doubly Occupied:

       1A    -15.851964     2A    -11.459225     3A    -11.444319
       4A    -11.443186     5A    -11.443172     6A    -11.384281
       7A     -1.481944     8A     -1.223750     9A     -1.160770
      10A     -1.160753    11A     -1.067307    12A     -0.992552
      13A     -0.864345    14A     -0.862286    15A     -0.840089
      16A     -0.803854    17A     -0.765936    18A     -0.742765
      19A     -0.732019    20A     -0.723336    21A     -0.722292
      22A     -0.712714    23A     -0.701056    24A     -0.680151
      25A     -0.661089

  @DF-RHF Final Energy:  -251.80498524568904

   => Energetics <=

    Nuclear Repulsion Energy =            282.7040864151788924
    One-Electron Energy =                -889.1678341755184647
    Two-Electron Energy =                 354.6587625146506184
    Total Energy =                       -251.8049852456890108
  Basis Set: (AUG-CC-PVTZ AUX)
    Blend: AUG-CC-PVTZ-RI
    Molecular point group: c1

    Geometry (in Angstrom), charge = 1, multiplicity = 1:

       Center              X                  Y                   Z               Mass
    ------------   -----------------  -----------------  -----------------  -----------------
         N           -0.425699578226    -0.019721071154    -0.001909613544    14.003074004430
         C            0.921173021774     0.876527828846     0.088229386456    12.000000000000
         C           -0.490954578226    -1.000716071154     1.128760386456    12.000000000000
         C           -1.605167578226     0.903199928846     0.091396386456    12.000000000000
         C           -0.491363578226    -0.755271071154    -1.305621613544    12.000000000000
         C            2.138425421774     0.047032928846     0.004284386456    12.000000000000
         H            0.763754421774     1.543544928846    -0.733991613544     1.007825032230
         H            0.764123421774     1.365862928846     1.027179386456     1.007825032230
         H           -0.402327578226    -0.457288071154     2.069678386456     1.007825032230
         H           -1.450224578226    -1.516198071154     1.083351386456     1.007825032230
         H            0.318432421774    -1.720648071154     1.030133386456     1.007825032230
         H           -1.562457578226     1.611967928846    -0.735300613544     1.007825032230
         H           -2.519529578226     0.313203928846     0.032122386456     1.007825032230
         H           -1.562068578226     1.432714928846     1.042898386456     1.007825032230
         H           -0.402984578226    -0.034958071154    -2.119155613544     1.007825032230
         H            0.317994421774    -1.480417071154    -1.352955613544     1.007825032230
         H           -1.450662578226    -1.269433071154    -1.363731613544     1.007825032230
         H            2.949798421774     0.775463928846     0.077641386456     1.007825032230
         H            2.264979421774    -0.655694071154     0.828659386456     1.007825032230
         H            2.264626421774    -0.476799071154    -0.943926613544     1.007825032230

  Basis Set: AUG-CC-PVTZ
    Blend: AUG-CC-PVTZ
  Basis Set: (AUG-CC-PVTZ AUX)
    Blend: AUG-CC-PVTZ-JKFIT
	 Reference Energy          =    -251.8049852456890392 [Eh]
	 Singles Energy            =      -0.0000000000000000 [Eh]
	 Same-Spin Energy          =      -0.2610913067667479 [Eh]
	 Opposite-Spin Energy      =      -0.9715055712409869 [Eh]
	 Correlation Energy        =      -1.2325968780077348 [Eh]
	 Total Energy              =    -253.0375821236967795 [Eh]

	 ================> DF-SCS-MP2 Energies <==================
	-----------------------------------------------------------
	 SCS Same-Spin Scale       =       0.3333333333333333 [-]
	 SCS Opposite-Spin Scale   =       1.2000000000000000 [-]
	 SCS Same-Spin Energy      =      -0.0870304355889159 [Eh]
	 SCS Opposite-Spin Energy  =      -1.1658066854891842 [Eh]
	 SCS Correlation Energy    =      -1.2528371210781002 [Eh]
	 SCS Total Energy          =    -253.0578223667671409 [Eh]
	-----------------------------------------------------------

  Dipole Moment: [D]
     X:    -0.9408      Y:     0.0497      Z:     0.0052     Total:     0.9421

*** Psi4 exiting successfully. Buy a developer a beer!
