                               Psi4 1.3.2 release

  ==> Input File <==

--------------------------------------------------------------------------
#psi4
#
memory 32 gb

molecule  {
1 1
  N       -0.4143790    -0.0121880    -0.0011520
  C        0.8419464     0.8396883     0.0845288
  C       -0.4796340    -0.9931830     1.1295180
  C       -1.5857071     0.9209387     0.0931818
  C       -0.4800430    -0.7477380    -1.3048640
  C        2.1497460     0.0545660     0.0050420
  H        0.7750750     1.5510780    -0.7332340
  H        0.7754440     1.3733960     1.0279370
  H       -0.3910070    -0.4497550     2.0704360
  H       -1.4389040    -1.5086650     1.0841090
  H        0.3297530    -1.7131150     1.0308910
  H       -1.5511370     1.6195010    -0.7345430
  H       -2.5082090     0.3207370     0.0328800
  H       -1.5507480     1.4402480     1.0436560
  H       -0.3916640    -0.0274250    -2.1183980
  H        0.3293150    -1.4728840    -1.3521980
  H       -1.4393420    -1.2619000    -1.3629740
  H        2.9611190     0.7829970     0.0783990
  H        2.2763000    -0.6481610     0.8294170
  H        2.2759470    -0.4692660    -0.9431690
units angstrom
no_reorient  #important for SAPT in psi4, default
symmetry c1  #important for SAPT in psi4, default
}

set PROPERTIES_ORIGIN ["COM"]
properties('MP2/aug-cc-pvtz', properties = ['dipole'])
--------------------------------------------------------------------------

    Molecular point group: c1
  Charge       = 1
  Multiplicity = 1
  Basis Set: AUG-CC-PVTZ
    Blend: AUG-CC-PVTZ
  Basis Set: (AUG-CC-PVTZ AUX)
    Blend: AUG-CC-PVTZ-JKFIT

    Orbital Energies [Eh]
    ---------------------

    Doubly Occupied:

       1A    -15.861396     2A    -11.451836     3A    -11.447952
       4A    -11.447396     5A    -11.447383     6A    -11.382744
       7A     -1.500844     8A     -1.210532     9A     -1.167537
      10A     -1.166885    11A     -1.075336    12A     -0.990790
      13A     -0.871638    14A     -0.868287    15A     -0.845415
      16A     -0.796514    17A     -0.766268    18A     -0.741885
      19A     -0.732474    20A     -0.728035    21A     -0.720458
      22A     -0.718703    23A     -0.682494    24A     -0.680352
      25A     -0.673429

  @DF-RHF Final Energy:  -251.81215078161290

   => Energetics <=

    Nuclear Repulsion Energy =            283.9749488623340881
    One-Electron Energy =                -891.6210355476971472
    Two-Electron Energy =                 355.8339359037502163
    Total Energy =                       -251.8121507816128997
  Basis Set: (AUG-CC-PVTZ AUX)
    Blend: AUG-CC-PVTZ-RI
    Molecular point group: c1

    Geometry (in Angstrom), charge = 1, multiplicity = 1:

       Center              X                  Y                   Z               Mass
    ------------   -----------------  -----------------  -----------------  -----------------
         N           -0.414476582587    -0.015067903659    -0.001442429638    14.003074004430
         C            0.841848817413     0.836808396341     0.084238370362    12.000000000000
         C           -0.479731582587    -0.996062903659     1.129227570362    12.000000000000
         C           -1.585804682587     0.918058796341     0.092891370362    12.000000000000
         C           -0.480140582587    -0.750617903659    -1.305154429638    12.000000000000
         C            2.149648417413     0.051686096341     0.004751570362    12.000000000000
         H            0.774977417413     1.548198096341    -0.733524429638     1.007825032230
         H            0.775346417413     1.370516096341     1.027646570362     1.007825032230
         H           -0.391104582587    -0.452634903659     2.070145570362     1.007825032230
         H           -1.439001582587    -1.511544903659     1.083818570362     1.007825032230
         H            0.329655417413    -1.715994903659     1.030600570362     1.007825032230
         H           -1.551234582587     1.616621096341    -0.734833429638     1.007825032230
         H           -2.508306582587     0.317857096341     0.032589570362     1.007825032230
         H           -1.550845582587     1.437368096341     1.043365570362     1.007825032230
         H           -0.391761582587    -0.030304903659    -2.118688429638     1.007825032230
         H            0.329217417413    -1.475763903659    -1.352488429638     1.007825032230
         H           -1.439439582587    -1.264779903659    -1.363264429638     1.007825032230
         H            2.961021417413     0.780117096341     0.078108570362     1.007825032230
         H            2.276202417413    -0.651040903659     0.829126570362     1.007825032230
         H            2.275849417413    -0.472145903659    -0.943459429638     1.007825032230

  Basis Set: AUG-CC-PVTZ
    Blend: AUG-CC-PVTZ
  Basis Set: (AUG-CC-PVTZ AUX)
    Blend: AUG-CC-PVTZ-JKFIT
	 Reference Energy          =    -251.8121507816128997 [Eh]
	 Singles Energy            =      -0.0000000000000000 [Eh]
	 Same-Spin Energy          =      -0.2608646494069286 [Eh]
	 Opposite-Spin Energy      =      -0.9707317079242410 [Eh]
	 Correlation Energy        =      -1.2315963573311697 [Eh]
	 Total Energy              =    -253.0437471389440702 [Eh]

	 ================> DF-SCS-MP2 Energies <==================
	-----------------------------------------------------------
	 SCS Same-Spin Scale       =       0.3333333333333333 [-]
	 SCS Opposite-Spin Scale   =       1.2000000000000000 [-]
	 SCS Same-Spin Energy      =      -0.0869548831356428 [Eh]
	 SCS Opposite-Spin Energy  =      -1.1648780495090891 [Eh]
	 SCS Correlation Energy    =      -1.2518329326447319 [Eh]
	 SCS Total Energy          =    -253.0639837142576312 [Eh]
	-----------------------------------------------------------

  Dipole Moment: [D]
     X:    -1.1939      Y:    -0.0443      Z:    -0.0042     Total:     1.1947

*** Psi4 exiting successfully. Buy a developer a beer!
