                               Psi4 1.3.2 release

  ==> Input File <==

--------------------------------------------------------------------------
#psi4
#
memory 32 gb

molecule  {
1 1
  N       -0.4091566     0.0263605     0.0338045
  C        0.8493700     0.8287480     0.0834240
  C       -0.4796340    -0.9931830     1.1295180
  C       -1.5938470     0.9107330     0.0921540
  C       -0.4800430    -0.7477380    -1.3048640
  C        2.1497460     0.0545660     0.0050420
  H        0.7750750     1.5510780    -0.7332340
  H        0.7754440     1.3733960     1.0279370
  H       -0.3882614    -0.4173435     2.0506887
  H       -1.4389040    -1.5086650     1.0841090
  H        0.3297530    -1.7131150     1.0308910
  H       -1.5511370     1.6195010    -0.7345430
  H       -2.5082090     0.3207370     0.0328800
  H       -1.5507480     1.4402480     1.0436560
  H       -0.3916640    -0.0274250    -2.1183980
  H        0.3293150    -1.4728840    -1.3521980
  H       -1.4393420    -1.2619000    -1.3629740
  H        2.9611190     0.7829970     0.0783990
  H        2.2763000    -0.6481610     0.8294170
  H        2.2759470    -0.4692660    -0.9431690
units angstrom
no_reorient  #important for SAPT in psi4, default
symmetry c1  #important for SAPT in psi4, default
}

set PROPERTIES_ORIGIN ["COM"]
properties('MP2/aug-cc-pvtz', properties = ['dipole'])
--------------------------------------------------------------------------

    Molecular point group: c1
  Charge       = 1
  Multiplicity = 1
  Basis Set: AUG-CC-PVTZ
    Blend: AUG-CC-PVTZ
  Basis Set: (AUG-CC-PVTZ AUX)
    Blend: AUG-CC-PVTZ-JKFIT

    Orbital Energies [Eh]
    ---------------------

    Doubly Occupied:

       1A    -15.861175     2A    -11.451107     3A    -11.450239
       4A    -11.447822     5A    -11.446497     6A    -11.382863
       7A     -1.501594     8A     -1.214160     9A     -1.169203
      10A     -1.160830    11A     -1.080982    12A     -0.988148
      13A     -0.870042    14A     -0.869448    15A     -0.844533
      16A     -0.795566    17A     -0.771943    18A     -0.741552
      19A     -0.734916    20A     -0.726482    21A     -0.723483
      22A     -0.707021    23A     -0.692938    24A     -0.679817
      25A     -0.668027

  @DF-RHF Final Energy:  -251.80889877298151

   => Energetics <=

    Nuclear Repulsion Energy =            284.1315680262854926
    One-Electron Energy =                -891.9201525181789521
    Two-Electron Energy =                 355.9796857189119805
    Total Energy =                       -251.8088987729815358
  Basis Set: (AUG-CC-PVTZ AUX)
    Blend: AUG-CC-PVTZ-RI
    Molecular point group: c1

    Geometry (in Angstrom), charge = 1, multiplicity = 1:

       Center              X                  Y                   Z               Mass
    ------------   -----------------  -----------------  -----------------  -----------------
         N           -0.410017990708     0.019863513985     0.028475003191    14.003074004430
         C            0.848508609292     0.822251013985     0.078094503191    12.000000000000
         C           -0.480495390708    -0.999679986015     1.124188503191    12.000000000000
         C           -1.594708390708     0.904236013985     0.086824503191    12.000000000000
         C           -0.480904390708    -0.754234986015    -1.310193496809    12.000000000000
         C            2.148884609292     0.048069013985    -0.000287496809    12.000000000000
         H            0.774213609292     1.544581013985    -0.738563496809     1.007825032230
         H            0.774582609292     1.366899013985     1.022607503191     1.007825032230
         H           -0.389122790708    -0.423840486015     2.045359203191     1.007825032230
         H           -1.439765390708    -1.515161986015     1.078779503191     1.007825032230
         H            0.328891609292    -1.719611986015     1.025561503191     1.007825032230
         H           -1.551998390708     1.613004013985    -0.739872496809     1.007825032230
         H           -2.509070390708     0.314240013985     0.027550503191     1.007825032230
         H           -1.551609390708     1.433751013985     1.038326503191     1.007825032230
         H           -0.392525390708    -0.033921986015    -2.123727496809     1.007825032230
         H            0.328453609292    -1.479380986015    -1.357527496809     1.007825032230
         H           -1.440203390708    -1.268396986015    -1.368303496809     1.007825032230
         H            2.960257609292     0.776500013985     0.073069503191     1.007825032230
         H            2.275438609292    -0.654657986015     0.824087503191     1.007825032230
         H            2.275085609292    -0.475762986015    -0.948498496809     1.007825032230

  Basis Set: AUG-CC-PVTZ
    Blend: AUG-CC-PVTZ
  Basis Set: (AUG-CC-PVTZ AUX)
    Blend: AUG-CC-PVTZ-JKFIT
	 Reference Energy          =    -251.8088987729815074 [Eh]
	 Singles Energy            =      -0.0000000000000000 [Eh]
	 Same-Spin Energy          =      -0.2611490003462626 [Eh]
	 Opposite-Spin Energy      =      -0.9712229825275487 [Eh]
	 Correlation Energy        =      -1.2323719828738113 [Eh]
	 Total Energy              =    -253.0412707558553222 [Eh]

	 ================> DF-SCS-MP2 Energies <==================
	-----------------------------------------------------------
	 SCS Same-Spin Scale       =       0.3333333333333333 [-]
	 SCS Opposite-Spin Scale   =       1.2000000000000000 [-]
	 SCS Same-Spin Energy      =      -0.0870496667820875 [Eh]
	 SCS Opposite-Spin Energy  =      -1.1654675790330584 [Eh]
	 SCS Correlation Energy    =      -1.2525172458151459 [Eh]
	 SCS Total Energy          =    -253.0614160187966490 [Eh]
	-----------------------------------------------------------

  Dipole Moment: [D]
     X:    -1.2024      Y:    -0.1342      Z:    -0.0957     Total:     1.2136

*** Psi4 exiting successfully. Buy a developer a beer!
