                               Psi4 1.3.2 release

  ==> Input File <==

--------------------------------------------------------------------------
#psi4
#
memory 32 gb

molecule  {
1 1
  N       -0.3841129    -0.0555565    -0.0055339
  C        0.8493700     0.8287480     0.0834240
  C       -0.4796340    -0.9931830     1.1295180
  C       -1.5938470     0.9107330     0.0921540
  C       -0.4800430    -0.7477380    -1.3048640
  C        2.1217972     0.0098838     0.0005399
  H        0.7750750     1.5510780    -0.7332340
  H        0.7754440     1.3733960     1.0279370
  H       -0.3910070    -0.4497550     2.0704360
  H       -1.4389040    -1.5086650     1.0841090
  H        0.3297530    -1.7131150     1.0308910
  H       -1.5511370     1.6195010    -0.7345430
  H       -2.5082090     0.3207370     0.0328800
  H       -1.5507480     1.4402480     1.0436560
  H       -0.3916640    -0.0274250    -2.1183980
  H        0.3293150    -1.4728840    -1.3521980
  H       -1.4393420    -1.2619000    -1.3629740
  H        2.9611190     0.7829970     0.0783990
  H        2.2763000    -0.6481610     0.8294170
  H        2.2759470    -0.4692660    -0.9431690
units angstrom
no_reorient  #important for SAPT in psi4, default
symmetry c1  #important for SAPT in psi4, default
}

set PROPERTIES_ORIGIN ["COM"]
properties('MP2/aug-cc-pvtz', properties = ['dipole'])
--------------------------------------------------------------------------

    Molecular point group: c1
  Charge       = 1
  Multiplicity = 1
  Basis Set: AUG-CC-PVTZ
    Blend: AUG-CC-PVTZ
  Basis Set: (AUG-CC-PVTZ AUX)
    Blend: AUG-CC-PVTZ-JKFIT

    Orbital Energies [Eh]
    ---------------------

    Doubly Occupied:

       1A    -15.859657     2A    -11.453805     3A    -11.451845
       4A    -11.444973     5A    -11.444959     6A    -11.381746
       7A     -1.500715     8A     -1.212559     9A     -1.171601
      10A     -1.162237    11A     -1.074639    12A     -0.989689
      13A     -0.872595    14A     -0.865568    15A     -0.846482
      16A     -0.798032    17A     -0.767600    18A     -0.746962
      19A     -0.730143    20A     -0.726172    21A     -0.725064
      22A     -0.718045    23A     -0.680447    24A     -0.679948
      25A     -0.663951

  @DF-RHF Final Energy:  -251.80564950005746

   => Energetics <=

    Nuclear Repulsion Energy =            284.4560151697625656
    One-Electron Energy =                -892.5844646190895446
    Two-Electron Energy =                 356.3227999492695517
    Total Energy =                       -251.8056495000574841
  Basis Set: (AUG-CC-PVTZ AUX)
    Blend: AUG-CC-PVTZ-RI
    Molecular point group: c1

    Geometry (in Angstrom), charge = 1, multiplicity = 1:

       Center              X                  Y                   Z               Mass
    ------------   -----------------  -----------------  -----------------  -----------------
         N           -0.385116564305    -0.042579076476    -0.004224371961    14.003074004430
         C            0.848366335695     0.841725423524     0.084733528039    12.000000000000
         C           -0.480637664305    -0.980205576476     1.130827528039    12.000000000000
         C           -1.594850664305     0.923710423524     0.093463528039    12.000000000000
         C           -0.481046664305    -0.734760576476    -1.303554471961    12.000000000000
         C            2.120793535695     0.022861223524     0.001849428039    12.000000000000
         H            0.774071335695     1.564055423524    -0.731924471961     1.007825032230
         H            0.774440335695     1.386373423524     1.029246528039     1.007825032230
         H           -0.392010664305    -0.436777576476     2.071745528039     1.007825032230
         H           -1.439907664305    -1.495687576476     1.085418528039     1.007825032230
         H            0.328749335695    -1.700137576476     1.032200528039     1.007825032230
         H           -1.552140664305     1.632478423524    -0.733233471961     1.007825032230
         H           -2.509212664305     0.333714423524     0.034189528039     1.007825032230
         H           -1.551751664305     1.453225423524     1.044965528039     1.007825032230
         H           -0.392667664305    -0.014447576476    -2.117088471961     1.007825032230
         H            0.328311335695    -1.459906576476    -1.350888471961     1.007825032230
         H           -1.440345664305    -1.248922576476    -1.361664471961     1.007825032230
         H            2.960115335695     0.795974423524     0.079708528039     1.007825032230
         H            2.275296335695    -0.635183576476     0.830726528039     1.007825032230
         H            2.274943335695    -0.456288576476    -0.941859471961     1.007825032230

  Basis Set: AUG-CC-PVTZ
    Blend: AUG-CC-PVTZ
  Basis Set: (AUG-CC-PVTZ AUX)
    Blend: AUG-CC-PVTZ-JKFIT
	 Reference Energy          =    -251.8056495000574557 [Eh]
	 Singles Energy            =      -0.0000000000000000 [Eh]
	 Same-Spin Energy          =      -0.2613657057885544 [Eh]
	 Opposite-Spin Energy      =      -0.9715786527939162 [Eh]
	 Correlation Energy        =      -1.2329443585824706 [Eh]
	 Total Energy              =    -253.0385938586399277 [Eh]

	 ================> DF-SCS-MP2 Energies <==================
	-----------------------------------------------------------
	 SCS Same-Spin Scale       =       0.3333333333333333 [-]
	 SCS Opposite-Spin Scale   =       1.2000000000000000 [-]
	 SCS Same-Spin Energy      =      -0.0871219019295181 [Eh]
	 SCS Opposite-Spin Energy  =      -1.1658943833526993 [Eh]
	 SCS Correlation Energy    =      -1.2530162852822175 [Eh]
	 SCS Total Energy          =    -253.0586657853396844 [Eh]
	-----------------------------------------------------------

  Dipole Moment: [D]
     X:    -1.2167      Y:     0.1039      Z:     0.0108     Total:     1.2212

*** Psi4 exiting successfully. Buy a developer a beer!
