                               Psi4 1.3.2 release

  ==> Input File <==

--------------------------------------------------------------------------
#psi4
#
memory 32 gb

molecule  {
1 1
  N       -0.4221823     0.0020669    -0.0221276
  C        0.8493700     0.8287480     0.0834240
  C       -0.4796340    -0.9931830     1.1295180
  C       -1.5938470     0.9107330     0.0921540
  C       -0.4800430    -0.7477380    -1.3048640
  C        2.1497460     0.0545660     0.0050420
  H        0.7582733     1.5435198    -0.7381680
  H        0.7754440     1.3733960     1.0279370
  H       -0.3910070    -0.4497550     2.0704360
  H       -1.4389040    -1.5086650     1.0841090
  H        0.3297530    -1.7131150     1.0308910
  H       -1.5511370     1.6195010    -0.7345430
  H       -2.5082090     0.3207370     0.0328800
  H       -1.5507480     1.4402480     1.0436560
  H       -0.3916640    -0.0274250    -2.1183980
  H        0.3293150    -1.4728840    -1.3521980
  H       -1.4393420    -1.2619000    -1.3629740
  H        2.9611190     0.7829970     0.0783990
  H        2.2763000    -0.6481610     0.8294170
  H        2.2759470    -0.4692660    -0.9431690
units angstrom
no_reorient  #important for SAPT in psi4, default
symmetry c1  #important for SAPT in psi4, default
}

set PROPERTIES_ORIGIN ["COM"]
properties('MP2/aug-cc-pvtz', properties = ['dipole'])
--------------------------------------------------------------------------

    Molecular point group: c1
  Charge       = 1
  Multiplicity = 1
  Basis Set: AUG-CC-PVTZ
    Blend: AUG-CC-PVTZ
  Basis Set: (AUG-CC-PVTZ AUX)
    Blend: AUG-CC-PVTZ-JKFIT

    Orbital Energies [Eh]
    ---------------------

    Doubly Occupied:

       1A    -15.861086     2A    -11.452700     3A    -11.449107
       4A    -11.446951     5A    -11.446276     6A    -11.383177
       7A     -1.501138     8A     -1.212902     9A     -1.169434
      10A     -1.164017    11A     -1.076896    12A     -0.989638
      13A     -0.870547    14A     -0.867822    15A     -0.845945
      16A     -0.796321    17A     -0.769167    18A     -0.740846
      19A     -0.732962    20A     -0.726058    21A     -0.722226
      22A     -0.714289    23A     -0.689967    24A     -0.679321
      25A     -0.670773

  @DF-RHF Final Energy:  -251.81143356686414

   => Energetics <=

    Nuclear Repulsion Energy =            284.0506647088054706
    One-Electron Energy =                -891.7650649594046399
    Two-Electron Energy =                 355.9029666837350305
    Total Energy =                       -251.8114335668641388
  Basis Set: (AUG-CC-PVTZ AUX)
    Blend: AUG-CC-PVTZ-RI
    Molecular point group: c1

    Geometry (in Angstrom), charge = 1, multiplicity = 1:

       Center              X                  Y                   Z               Mass
    ------------   -----------------  -----------------  -----------------  -----------------
         N           -0.420750034145    -0.000112117447    -0.018737663859    14.003074004430
         C            0.850802265855     0.826568982553     0.086813936141    12.000000000000
         C           -0.478201734145    -0.995362017447     1.132907936141    12.000000000000
         C           -1.592414734145     0.908553982553     0.095543936141    12.000000000000
         C           -0.478610734145    -0.749917017447    -1.301474063859    12.000000000000
         C            2.151178265855     0.052386982553     0.008431936141    12.000000000000
         H            0.759705565855     1.541340782553    -0.734778063859     1.007825032230
         H            0.776876265855     1.371216982553     1.031326936141     1.007825032230
         H           -0.389574734145    -0.451934017447     2.073825936141     1.007825032230
         H           -1.437471734145    -1.510844017447     1.087498936141     1.007825032230
         H            0.331185265855    -1.715294017447     1.034280936141     1.007825032230
         H           -1.549704734145     1.617321982553    -0.731153063859     1.007825032230
         H           -2.506776734145     0.318557982553     0.036269936141     1.007825032230
         H           -1.549315734145     1.438068982553     1.047045936141     1.007825032230
         H           -0.390231734145    -0.029604017447    -2.115008063859     1.007825032230
         H            0.330747265855    -1.475063017447    -1.348808063859     1.007825032230
         H           -1.437909734145    -1.264079017447    -1.359584063859     1.007825032230
         H            2.962551265855     0.780817982553     0.081788936141     1.007825032230
         H            2.277732265855    -0.650340017447     0.832806936141     1.007825032230
         H            2.277379265855    -0.471445017447    -0.939779063859     1.007825032230

  Basis Set: AUG-CC-PVTZ
    Blend: AUG-CC-PVTZ
  Basis Set: (AUG-CC-PVTZ AUX)
    Blend: AUG-CC-PVTZ-JKFIT
	 Reference Energy          =    -251.8114335668641388 [Eh]
	 Singles Energy            =      -0.0000000000000000 [Eh]
	 Same-Spin Energy          =      -0.2610378143247284 [Eh]
	 Opposite-Spin Energy      =      -0.9709297814852821 [Eh]
	 Correlation Energy        =      -1.2319675958100105 [Eh]
	 Total Energy              =    -253.0434011626741437 [Eh]

	 ================> DF-SCS-MP2 Energies <==================
	-----------------------------------------------------------
	 SCS Same-Spin Scale       =       0.3333333333333333 [-]
	 SCS Opposite-Spin Scale   =       1.2000000000000000 [-]
	 SCS Same-Spin Energy      =      -0.0870126047749095 [Eh]
	 SCS Opposite-Spin Energy  =      -1.1651157377823385 [Eh]
	 SCS Correlation Energy    =      -1.2521283425572478 [Eh]
	 SCS Total Energy          =    -253.0635619094213951 [Eh]
	-----------------------------------------------------------

  Dipole Moment: [D]
     X:    -1.1637      Y:    -0.0788      Z:     0.0469     Total:     1.1673

*** Psi4 exiting successfully. Buy a developer a beer!
