                               Psi4 1.3.2 release

  ==> Input File <==

--------------------------------------------------------------------------
#psi4
#
memory 32 gb

molecule  {
1 1
  N       -0.4143790    -0.0121880    -0.0011520
  C        0.8780965     0.7843547     0.0789412
  C       -0.4796340    -0.9931830     1.1295180
  C       -1.6255022     0.8692151     0.0879726
  C       -0.4800430    -0.7477380    -1.3048640
  C        2.1497460     0.0545660     0.0050420
  H        0.7750750     1.5510780    -0.7332340
  H        0.7754440     1.3733960     1.0279370
  H       -0.3910070    -0.4497550     2.0704360
  H       -1.4389040    -1.5086650     1.0841090
  H        0.3297530    -1.7131150     1.0308910
  H       -1.5511370     1.6195010    -0.7345430
  H       -2.5082090     0.3207370     0.0328800
  H       -1.5507480     1.4402480     1.0436560
  H       -0.3916640    -0.0274250    -2.1183980
  H        0.3293150    -1.4728840    -1.3521980
  H       -1.4393420    -1.2619000    -1.3629740
  H        2.9611190     0.7829970     0.0783990
  H        2.2763000    -0.6481610     0.8294170
  H        2.2759470    -0.4692660    -0.9431690
units angstrom
no_reorient  #important for SAPT in psi4, default
symmetry c1  #important for SAPT in psi4, default
}

set PROPERTIES_ORIGIN ["COM"]
properties('MP2/aug-cc-pvtz', properties = ['dipole'])
--------------------------------------------------------------------------

    Molecular point group: c1
  Charge       = 1
  Multiplicity = 1
  Basis Set: AUG-CC-PVTZ
    Blend: AUG-CC-PVTZ
  Basis Set: (AUG-CC-PVTZ AUX)
    Blend: AUG-CC-PVTZ-JKFIT

    Orbital Energies [Eh]
    ---------------------

    Doubly Occupied:

       1A    -15.861774     2A    -11.455957     3A    -11.449335
       4A    -11.446577     5A    -11.446564     6A    -11.381773
       7A     -1.501352     8A     -1.222328     9A     -1.166920
      10A     -1.164156    11A     -1.080694    12A     -0.984970
      13A     -0.870511    14A     -0.862436    15A     -0.851189
      16A     -0.794226    17A     -0.776876    18A     -0.739205
      19A     -0.734553    20A     -0.725344    21A     -0.721440
      22A     -0.710538    23A     -0.703133    24A     -0.675767
      25A     -0.659793

  @DF-RHF Final Energy:  -251.80426635104396

   => Energetics <=

    Nuclear Repulsion Energy =            284.3591040188385364
    One-Electron Energy =                -892.3519206841722280
    Two-Electron Energy =                 356.1885503142897846
    Total Energy =                       -251.8042663510439638
  Basis Set: (AUG-CC-PVTZ AUX)
    Blend: AUG-CC-PVTZ-RI
    Molecular point group: c1

    Geometry (in Angstrom), charge = 1, multiplicity = 1:

       Center              X                  Y                   Z               Mass
    ------------   -----------------  -----------------  -----------------  -----------------
         N           -0.413980172450    -0.000487854455     0.000027979407    14.003074004430
         C            0.878495327550     0.796054845545     0.080121179407    12.000000000000
         C           -0.479235172450    -0.981482854455     1.130697979407    12.000000000000
         C           -1.625103372450     0.880915245545     0.089152579407    12.000000000000
         C           -0.479644172450    -0.736037854455    -1.303684020593    12.000000000000
         C            2.150144827550     0.066266145545     0.006221979407    12.000000000000
         H            0.775473827550     1.562778145545    -0.732054020593     1.007825032230
         H            0.775842827550     1.385096145545     1.029116979407     1.007825032230
         H           -0.390608172450    -0.438054854455     2.071615979407     1.007825032230
         H           -1.438505172450    -1.496964854455     1.085288979407     1.007825032230
         H            0.330151827550    -1.701414854455     1.032070979407     1.007825032230
         H           -1.550738172450     1.631201145545    -0.733363020593     1.007825032230
         H           -2.507810172450     0.332437145545     0.034059979407     1.007825032230
         H           -1.550349172450     1.451948145545     1.044835979407     1.007825032230
         H           -0.391265172450    -0.015724854455    -2.117218020593     1.007825032230
         H            0.329713827550    -1.461183854455    -1.351018020593     1.007825032230
         H           -1.438943172450    -1.250199854455    -1.361794020593     1.007825032230
         H            2.961517827550     0.794697145545     0.079578979407     1.007825032230
         H            2.276698827550    -0.636460854455     0.830596979407     1.007825032230
         H            2.276345827550    -0.457565854455    -0.941989020593     1.007825032230

  Basis Set: AUG-CC-PVTZ
    Blend: AUG-CC-PVTZ
  Basis Set: (AUG-CC-PVTZ AUX)
    Blend: AUG-CC-PVTZ-JKFIT
	 Reference Energy          =    -251.8042663510439638 [Eh]
	 Singles Energy            =      -0.0000000000000000 [Eh]
	 Same-Spin Energy          =      -0.2616319499278992 [Eh]
	 Opposite-Spin Energy      =      -0.9717018741404262 [Eh]
	 Correlation Energy        =      -1.2333338240683254 [Eh]
	 Total Energy              =    -253.0376001751122885 [Eh]

	 ================> DF-SCS-MP2 Energies <==================
	-----------------------------------------------------------
	 SCS Same-Spin Scale       =       0.3333333333333333 [-]
	 SCS Opposite-Spin Scale   =       1.2000000000000000 [-]
	 SCS Same-Spin Energy      =      -0.0872106499759664 [Eh]
	 SCS Opposite-Spin Energy  =      -1.1660422489685114 [Eh]
	 SCS Correlation Energy    =      -1.2532528989444778 [Eh]
	 SCS Total Energy          =    -253.0575192499884452 [Eh]
	-----------------------------------------------------------

  Dipole Moment: [D]
     X:    -1.1440      Y:    -0.0245      Z:    -0.0022     Total:     1.1443

*** Psi4 exiting successfully. Buy a developer a beer!
