                               Psi4 1.3.2 release

  ==> Input File <==

--------------------------------------------------------------------------
#psi4
#
memory 32 gb

molecule  {
1 1
  N       -0.4143790    -0.0121880    -0.0011520
  C        0.8566974     0.8177436     0.0823127
  C       -0.4796340    -0.9931830     1.1295180
  C       -1.6018970     0.9004570     0.0911191
  C       -0.4800430    -0.7477380    -1.3048640
  C        2.1497460     0.0545660     0.0050420
  H        0.7750750     1.5510780    -0.7332340
  H        0.7754440     1.3733960     1.0279370
  H       -0.3910070    -0.4497550     2.0704360
  H       -1.4389040    -1.5086650     1.0841090
  H        0.3297530    -1.7131150     1.0308910
  H       -1.5511370     1.6195010    -0.7345430
  H       -2.5082090     0.3207370     0.0328800
  H       -1.5507480     1.4402480     1.0436560
  H       -0.3916640    -0.0274250    -2.1183980
  H        0.3293150    -1.4728840    -1.3521980
  H       -1.4393420    -1.2619000    -1.3629740
  H        2.9611190     0.7829970     0.0783990
  H        2.2763000    -0.6481610     0.8294170
  H        2.2759470    -0.4692660    -0.9431690
units angstrom
no_reorient  #important for SAPT in psi4, default
symmetry c1  #important for SAPT in psi4, default
}

set PROPERTIES_ORIGIN ["COM"]
properties('MP2/aug-cc-pvtz', properties = ['dipole'])
--------------------------------------------------------------------------

    Molecular point group: c1
  Charge       = 1
  Multiplicity = 1
  Basis Set: AUG-CC-PVTZ
    Blend: AUG-CC-PVTZ
  Basis Set: (AUG-CC-PVTZ AUX)
    Blend: AUG-CC-PVTZ-JKFIT

    Orbital Energies [Eh]
    ---------------------

    Doubly Occupied:

       1A    -15.861469     2A    -11.453293     3A    -11.448302
       4A    -11.447040     5A    -11.447026     6A    -11.382353
       7A     -1.500953     8A     -1.214920     9A     -1.166859
      10A     -1.166091    11A     -1.077365    12A     -0.988428
      13A     -0.871172    14A     -0.865738    15A     -0.847077
      16A     -0.795248    17A     -0.770796    18A     -0.740439
      19A     -0.733464    20A     -0.724258    21A     -0.721554
      22A     -0.716909    23A     -0.691775    24A     -0.678947
      25A     -0.668390

  @DF-RHF Final Energy:  -251.81166964971646

   => Energetics <=

    Nuclear Repulsion Energy =            284.1188985791402501
    One-Electron Energy =                -891.9014074935874987
    Two-Electron Energy =                 355.9708392647307846
    Total Energy =                       -251.8116696497164639
  Basis Set: (AUG-CC-PVTZ AUX)
    Blend: AUG-CC-PVTZ-RI
    Molecular point group: c1

    Geometry (in Angstrom), charge = 1, multiplicity = 1:

       Center              X                  Y                   Z               Mass
    ------------   -----------------  -----------------  -----------------  -----------------
         N           -0.414280619748    -0.009289880326    -0.000859702699    14.003074004430
         C            0.856795780252     0.820641719674     0.082604997301    12.000000000000
         C           -0.479535619748    -0.990284880326     1.129810297301    12.000000000000
         C           -1.601798619748     0.903355119674     0.091411397301    12.000000000000
         C           -0.479944619748    -0.744839880326    -1.304571702699    12.000000000000
         C            2.149844380252     0.057464119674     0.005334297301    12.000000000000
         H            0.775173380252     1.553976119674    -0.732941702699     1.007825032230
         H            0.775542380252     1.376294119674     1.028229297301     1.007825032230
         H           -0.390908619748    -0.446856880326     2.070728297301     1.007825032230
         H           -1.438805619748    -1.505766880326     1.084401297301     1.007825032230
         H            0.329851380252    -1.710216880326     1.031183297301     1.007825032230
         H           -1.551038619748     1.622399119674    -0.734250702699     1.007825032230
         H           -2.508110619748     0.323635119674     0.033172297301     1.007825032230
         H           -1.550649619748     1.443146119674     1.043948297301     1.007825032230
         H           -0.391565619748    -0.024526880326    -2.118105702699     1.007825032230
         H            0.329413380252    -1.469985880326    -1.351905702699     1.007825032230
         H           -1.439243619748    -1.259001880326    -1.362681702699     1.007825032230
         H            2.961217380252     0.785895119674     0.078691297301     1.007825032230
         H            2.276398380252    -0.645262880326     0.829709297301     1.007825032230
         H            2.276045380252    -0.466367880326    -0.942876702699     1.007825032230

  Basis Set: AUG-CC-PVTZ
    Blend: AUG-CC-PVTZ
  Basis Set: (AUG-CC-PVTZ AUX)
    Blend: AUG-CC-PVTZ-JKFIT
	 Reference Energy          =    -251.8116696497164639 [Eh]
	 Singles Energy            =      -0.0000000000000000 [Eh]
	 Same-Spin Energy          =      -0.2610975271972017 [Eh]
	 Opposite-Spin Energy      =      -0.9709581346538092 [Eh]
	 Correlation Energy        =      -1.2320556618510108 [Eh]
	 Total Energy              =    -253.0437253115674707 [Eh]

	 ================> DF-SCS-MP2 Energies <==================
	-----------------------------------------------------------
	 SCS Same-Spin Scale       =       0.3333333333333333 [-]
	 SCS Opposite-Spin Scale   =       1.2000000000000000 [-]
	 SCS Same-Spin Energy      =      -0.0870325090657339 [Eh]
	 SCS Opposite-Spin Energy  =      -1.1651497615845710 [Eh]
	 SCS Correlation Energy    =      -1.2521822706503047 [Eh]
	 SCS Total Energy          =    -253.0638519203667727 [Eh]
	-----------------------------------------------------------

  Dipole Moment: [D]
     X:    -1.1769      Y:    -0.0353      Z:    -0.0033     Total:     1.1775

*** Psi4 exiting successfully. Buy a developer a beer!
