                               Psi4 1.3.2 release

  ==> Input File <==

--------------------------------------------------------------------------
#psi4
#
memory 32 gb

molecule  {
1 1
  N       -0.4568803     0.0547690     0.0056123
  C        0.8493700     0.8287480     0.0834240
  C       -0.4796340    -0.9931830     1.1295180
  C       -1.5938470     0.9107330     0.0921540
  C       -0.4800430    -0.7477380    -1.3048640
  C        2.1886886     0.1233405     0.0119725
  H        0.7750750     1.5510780    -0.7332340
  H        0.7754440     1.3733960     1.0279370
  H       -0.3910070    -0.4497550     2.0704360
  H       -1.4389040    -1.5086650     1.0841090
  H        0.3297530    -1.7131150     1.0308910
  H       -1.5511370     1.6195010    -0.7345430
  H       -2.5082090     0.3207370     0.0328800
  H       -1.5507480     1.4402480     1.0436560
  H       -0.3916640    -0.0274250    -2.1183980
  H        0.3293150    -1.4728840    -1.3521980
  H       -1.4393420    -1.2619000    -1.3629740
  H        2.9611190     0.7829970     0.0783990
  H        2.2763000    -0.6481610     0.8294170
  H        2.2759470    -0.4692660    -0.9431690
units angstrom
no_reorient  #important for SAPT in psi4, default
symmetry c1  #important for SAPT in psi4, default
}

set PROPERTIES_ORIGIN ["COM"]
properties('MP2/aug-cc-pvtz', properties = ['dipole'])
--------------------------------------------------------------------------

    Molecular point group: c1
  Charge       = 1
  Multiplicity = 1
  Basis Set: AUG-CC-PVTZ
    Blend: AUG-CC-PVTZ
  Basis Set: (AUG-CC-PVTZ AUX)
    Blend: AUG-CC-PVTZ-JKFIT

    Orbital Energies [Eh]
    ---------------------

    Doubly Occupied:

       1A    -15.863297     2A    -11.451875     3A    -11.451224
       4A    -11.451213     5A    -11.442333     6A    -11.385533
       7A     -1.503811     8A     -1.215260     9A     -1.173034
      10A     -1.160225    11A     -1.080008    12A     -0.989717
      13A     -0.870487    14A     -0.869432    15A     -0.847848
      16A     -0.793340    17A     -0.773367    18A     -0.745404
      19A     -0.737037    20A     -0.730131    21A     -0.726813
      22A     -0.704590    23A     -0.701082    24A     -0.675073
      25A     -0.654725

  @DF-RHF Final Energy:  -251.79744603214715

   => Energetics <=

    Nuclear Repulsion Energy =            283.4889285964470105
    One-Electron Energy =                -890.5790272608220448
    Two-Electron Energy =                 355.2926526322279415
    Total Energy =                       -251.7974460321471497
  Basis Set: (AUG-CC-PVTZ AUX)
    Blend: AUG-CC-PVTZ-RI
    Molecular point group: c1

    Geometry (in Angstrom), charge = 1, multiplicity = 1:

       Center              X                  Y                   Z               Mass
    ------------   -----------------  -----------------  -----------------  -----------------
         N           -0.455429486429     0.034761632082     0.003593448419    14.003074004430
         C            0.850820813571     0.808740632082     0.081405148419    12.000000000000
         C           -0.478183186429    -1.013190367918     1.127499148419    12.000000000000
         C           -1.592396186429     0.890725632082     0.090135148419    12.000000000000
         C           -0.478592186429    -0.767745367918    -1.306882851581    12.000000000000
         C            2.190139413571     0.103333132082     0.009953648419    12.000000000000
         H            0.776525813571     1.531070632082    -0.735252851581     1.007825032230
         H            0.776894813571     1.353388632082     1.025918148419     1.007825032230
         H           -0.389556186429    -0.469762367918     2.068417148419     1.007825032230
         H           -1.437453186429    -1.528672367918     1.082090148419     1.007825032230
         H            0.331203813571    -1.733122367918     1.028872148419     1.007825032230
         H           -1.549686186429     1.599493632082    -0.736561851581     1.007825032230
         H           -2.506758186429     0.300729632082     0.030861148419     1.007825032230
         H           -1.549297186429     1.420240632082     1.041637148419     1.007825032230
         H           -0.390213186429    -0.047432367918    -2.120416851581     1.007825032230
         H            0.330765813571    -1.492891367918    -1.354216851581     1.007825032230
         H           -1.437891186429    -1.281907367918    -1.364992851581     1.007825032230
         H            2.962569813571     0.762989632082     0.076380148419     1.007825032230
         H            2.277750813571    -0.668168367918     0.827398148419     1.007825032230
         H            2.277397813571    -0.489273367918    -0.945187851581     1.007825032230

  Basis Set: AUG-CC-PVTZ
    Blend: AUG-CC-PVTZ
  Basis Set: (AUG-CC-PVTZ AUX)
    Blend: AUG-CC-PVTZ-JKFIT
	 Reference Energy          =    -251.7974460321471497 [Eh]
	 Singles Energy            =      -0.0000000000000000 [Eh]
	 Same-Spin Energy          =      -0.2611844817150452 [Eh]
	 Opposite-Spin Energy      =      -0.9714919391987423 [Eh]
	 Correlation Energy        =      -1.2326764209137875 [Eh]
	 Total Energy              =    -253.0301224530609261 [Eh]

	 ================> DF-SCS-MP2 Energies <==================
	-----------------------------------------------------------
	 SCS Same-Spin Scale       =       0.3333333333333333 [-]
	 SCS Opposite-Spin Scale   =       1.2000000000000000 [-]
	 SCS Same-Spin Energy      =      -0.0870614939050151 [Eh]
	 SCS Opposite-Spin Energy  =      -1.1657903270384908 [Eh]
	 SCS Correlation Energy    =      -1.2528518209435060 [Eh]
	 SCS Total Energy          =    -253.0502978530906546 [Eh]
	-----------------------------------------------------------

  Dipole Moment: [D]
     X:    -1.1562      Y:    -0.2589      Z:    -0.0259     Total:     1.1851

*** Psi4 exiting successfully. Buy a developer a beer!
