                               Psi4 1.3.2 release

  ==> Input File <==

--------------------------------------------------------------------------
#psi4
#
memory 32 gb

molecule  {
-1 1
  O       -1.7411470    -0.6399890    -0.1225600
  O       -0.5847590     1.3260370     0.0697860
  C        0.6259660    -0.7433870     0.1647240
  C        1.8800080     0.0729070    -0.1221640
  C       -0.7030090     0.0671670     0.0101180
  H        0.6586950    -1.1281730     1.1946430
  H        0.5657790    -1.6256900    -0.4841100
  H        1.8946620     0.3977130    -1.1675530
  H        1.8661090     0.9768400     0.4889820
  H        2.8042200    -0.4891930     0.0741590
units angstrom
no_reorient  #important for SAPT in psi4, default
symmetry c1  #important for SAPT in psi4, default
}

set PROPERTIES_ORIGIN ["COM"]
properties('MP2/aug-cc-pvtz', properties = ['dipole'])
--------------------------------------------------------------------------

    Molecular point group: c1
  Charge       = -1
  Multiplicity = 1
  Basis Set: AUG-CC-PVTZ
    Blend: AUG-CC-PVTZ
  Basis Set: (AUG-CC-PVTZ AUX)
    Blend: AUG-CC-PVTZ-JKFIT

    Orbital Energies [Eh]
    ---------------------

    Doubly Occupied:

       1A    -20.291993     2A    -20.289929     3A    -11.135736
       4A    -11.063898     5A    -11.054900     6A     -1.159236
       7A     -1.062339     8A     -0.866391     9A     -0.699123
      10A     -0.514108    11A     -0.453444    12A     -0.443649
      13A     -0.403712    14A     -0.372062    15A     -0.359909
      16A     -0.335774    17A     -0.308232    18A     -0.208028
      19A     -0.192342    20A     -0.191417

  @DF-RHF Final Energy:  -266.37499535988667

   => Energetics <=

    Nuclear Repulsion Energy =            167.7847239200745548
    One-Electron Energy =                -705.5069888387805577
    Two-Electron Energy =                 271.3472695588193915
    Total Energy =                       -266.3749953598866682
  Basis Set: (AUG-CC-PVTZ AUX)
    Blend: AUG-CC-PVTZ-RI
    Molecular point group: c1

    Geometry (in Angstrom), charge = -1, multiplicity = 1:

       Center              X                  Y                   Z               Mass
    ------------   -----------------  -----------------  -----------------  -----------------
         O           -1.635481101702    -0.665326882815    -0.121121827637    15.994914619570
         O           -0.479093101702     1.300699117185     0.071224172363    15.994914619570
         C            0.731631898298    -0.768724882815     0.166162172363    12.000000000000
         C            1.985673898298     0.047569117185    -0.120725827637    12.000000000000
         C           -0.597343101702     0.041829117185     0.011556172363    12.000000000000
         H            0.764360898298    -1.153510882815     1.196081172363     1.007825032230
         H            0.671444898298    -1.651027882815    -0.482671827637     1.007825032230
         H            2.000327898298     0.372375117185    -1.166114827637     1.007825032230
         H            1.971774898298     0.951502117185     0.490420172363     1.007825032230
         H            2.909885898298    -0.514530882815     0.075597172363     1.007825032230

  Basis Set: AUG-CC-PVTZ
    Blend: AUG-CC-PVTZ
  Basis Set: (AUG-CC-PVTZ AUX)
    Blend: AUG-CC-PVTZ-JKFIT
	 Reference Energy          =    -266.3749953598866682 [Eh]
	 Singles Energy            =      -0.0000000000000000 [Eh]
	 Same-Spin Energy          =      -0.2658429027299251 [Eh]
	 Opposite-Spin Energy      =      -0.8301618312595398 [Eh]
	 Correlation Energy        =      -1.0960047339894650 [Eh]
	 Total Energy              =    -267.4710000938761141 [Eh]

	 ================> DF-SCS-MP2 Energies <==================
	-----------------------------------------------------------
	 SCS Same-Spin Scale       =       0.3333333333333333 [-]
	 SCS Opposite-Spin Scale   =       1.2000000000000000 [-]
	 SCS Same-Spin Energy      =      -0.0886143009099750 [Eh]
	 SCS Opposite-Spin Energy  =      -0.9961941975114477 [Eh]
	 SCS Correlation Energy    =      -1.0848084984214226 [Eh]
	 SCS Total Energy          =    -267.4598038583080779 [Eh]
	-----------------------------------------------------------

  Dipole Moment: [D]
     X:     4.6157      Y:    -1.5036      Z:     0.2102     Total:     4.8589

*** Psi4 exiting successfully. Buy a developer a beer!
