                               Psi4 1.3.2 release

  ==> Input File <==

--------------------------------------------------------------------------
#psi4
#
memory 32 gb

molecule  {
-1 1
  O       -1.7411470    -0.6399890    -0.1225600
  O       -0.5847590     1.3260370     0.0697860
  C        0.6259660    -0.7433870     0.1647240
  C        1.8647722     0.0941113    -0.1271968
  C       -0.7030090     0.0671670     0.0101180
  H        0.6586950    -1.1281730     1.1946430
  H        0.5657790    -1.6256900    -0.4841100
  H        1.8946620     0.3977130    -1.1675530
  H        1.8661090     0.9768400     0.4889820
  H        2.8042200    -0.4891930     0.0741590
units angstrom
no_reorient  #important for SAPT in psi4, default
symmetry c1  #important for SAPT in psi4, default
}

set PROPERTIES_ORIGIN ["COM"]
properties('MP2/aug-cc-pvtz', properties = ['dipole'])
--------------------------------------------------------------------------

    Molecular point group: c1
  Charge       = -1
  Multiplicity = 1
  Basis Set: AUG-CC-PVTZ
    Blend: AUG-CC-PVTZ
  Basis Set: (AUG-CC-PVTZ AUX)
    Blend: AUG-CC-PVTZ-JKFIT

    Orbital Energies [Eh]
    ---------------------

    Doubly Occupied:

       1A    -20.291947     2A    -20.289673     3A    -11.135257
       4A    -11.064090     5A    -11.054937     6A     -1.159178
       7A     -1.062276     8A     -0.866446     9A     -0.699170
      10A     -0.514060    11A     -0.456619    12A     -0.441151
      13A     -0.403602    14A     -0.368247    15A     -0.360245
      16A     -0.338869    17A     -0.309547    18A     -0.207932
      19A     -0.191933    20A     -0.191042

  @DF-RHF Final Energy:  -266.37439225443205

   => Energetics <=

    Nuclear Repulsion Energy =            167.9193741713869770
    One-Electron Energy =                -705.7750918002642493
    Two-Electron Energy =                 271.4813253744452481
    Total Energy =                       -266.3743922544320526
  Basis Set: (AUG-CC-PVTZ AUX)
    Blend: AUG-CC-PVTZ-RI
    Molecular point group: c1

    Geometry (in Angstrom), charge = -1, multiplicity = 1:

       Center              X                  Y                   Z               Mass
    ------------   -----------------  -----------------  -----------------  -----------------
         O           -1.632977579620    -0.668811139191    -0.120294846059    15.994914619570
         O           -0.476589579620     1.297214860809     0.072051153941    15.994914619570
         C            0.734135420380    -0.772209139191     0.166989153941    12.000000000000
         C            1.972941620380     0.065289160809    -0.124931646059    12.000000000000
         C           -0.594839579620     0.038344860809     0.012383153941    12.000000000000
         H            0.766864420380    -1.156995139191     1.196908153941     1.007825032230
         H            0.673948420380    -1.654512139191    -0.481844846059     1.007825032230
         H            2.002831420380     0.368890860809    -1.165287846059     1.007825032230
         H            1.974278420380     0.948017860809     0.491247153941     1.007825032230
         H            2.912389420380    -0.518015139191     0.076424153941     1.007825032230

  Basis Set: AUG-CC-PVTZ
    Blend: AUG-CC-PVTZ
  Basis Set: (AUG-CC-PVTZ AUX)
    Blend: AUG-CC-PVTZ-JKFIT
	 Reference Energy          =    -266.3743922544320526 [Eh]
	 Singles Energy            =      -0.0000000000000000 [Eh]
	 Same-Spin Energy          =      -0.2658028478671633 [Eh]
	 Opposite-Spin Energy      =      -0.8301264616746169 [Eh]
	 Correlation Energy        =      -1.0959293095417801 [Eh]
	 Total Energy              =    -267.4703215639738119 [Eh]

	 ================> DF-SCS-MP2 Energies <==================
	-----------------------------------------------------------
	 SCS Same-Spin Scale       =       0.3333333333333333 [-]
	 SCS Opposite-Spin Scale   =       1.2000000000000000 [-]
	 SCS Same-Spin Energy      =      -0.0886009492890544 [Eh]
	 SCS Opposite-Spin Energy  =      -0.9961517540095403 [Eh]
	 SCS Correlation Energy    =      -1.0847527032985946 [Eh]
	 SCS Total Energy          =    -267.4591449577306435 [Eh]
	-----------------------------------------------------------

  Dipole Moment: [D]
     X:     4.5882      Y:    -1.4733      Z:     0.2010     Total:     4.8231

*** Psi4 exiting successfully. Buy a developer a beer!
