                               Psi4 1.3.2 release

  ==> Input File <==

--------------------------------------------------------------------------
#psi4
#
memory 32 gb

molecule  {
-1 1
  O       -1.7411470    -0.6399890    -0.1225600
  O       -0.5847590     1.3260370     0.0697860
  C        0.6259660    -0.7433870     0.1647240
  C        1.8491591     0.1150604    -0.1321408
  C       -0.7030090     0.0671670     0.0101180
  H        0.6586950    -1.1281730     1.1946430
  H        0.5657790    -1.6256900    -0.4841100
  H        1.8946620     0.3977130    -1.1675530
  H        1.8661090     0.9768400     0.4889820
  H        2.8042200    -0.4891930     0.0741590
units angstrom
no_reorient  #important for SAPT in psi4, default
symmetry c1  #important for SAPT in psi4, default
}

set PROPERTIES_ORIGIN ["COM"]
properties('MP2/aug-cc-pvtz', properties = ['dipole'])
--------------------------------------------------------------------------

    Molecular point group: c1
  Charge       = -1
  Multiplicity = 1
  Basis Set: AUG-CC-PVTZ
    Blend: AUG-CC-PVTZ
  Basis Set: (AUG-CC-PVTZ AUX)
    Blend: AUG-CC-PVTZ-JKFIT

    Orbital Energies [Eh]
    ---------------------

    Doubly Occupied:

       1A    -20.291985     2A    -20.289485     3A    -11.134862
       4A    -11.064552     5A    -11.055094     6A     -1.159200
       7A     -1.062292     8A     -0.866642     9A     -0.699493
      10A     -0.514030    11A     -0.460146    12A     -0.439029
      13A     -0.403888    14A     -0.368734    15A     -0.355700
      16A     -0.341774    17A     -0.310668    18A     -0.207913
      19A     -0.191814    20A     -0.190467

  @DF-RHF Final Energy:  -266.37239974470378

   => Energetics <=

    Nuclear Repulsion Energy =            168.0577258787428434
    One-Electron Energy =                -706.0447151076364207
    Two-Electron Energy =                 271.6145894841897643
    Total Energy =                       -266.3723997447037846
  Basis Set: (AUG-CC-PVTZ AUX)
    Blend: AUG-CC-PVTZ-RI
    Molecular point group: c1

    Geometry (in Angstrom), charge = -1, multiplicity = 1:

       Center              X                  Y                   Z               Mass
    ------------   -----------------  -----------------  -----------------  -----------------
         O           -1.630412060210    -0.672253461515    -0.119482455953    15.994914619570
         O           -0.474024060210     1.293772538485     0.072863544047    15.994914619570
         C            0.736700939790    -0.775651461515     0.167801544047    12.000000000000
         C            1.959894039790     0.082795938485    -0.129063255953    12.000000000000
         C           -0.592274060210     0.034902538485     0.013195544047    12.000000000000
         H            0.769429939790    -1.160437461515     1.197720544047     1.007825032230
         H            0.676513939790    -1.657954461515    -0.481032455953     1.007825032230
         H            2.005396939790     0.365448538485    -1.164475455953     1.007825032230
         H            1.976843939790     0.944575538485     0.492059544047     1.007825032230
         H            2.914954939790    -0.521457461515     0.077236544047     1.007825032230

  Basis Set: AUG-CC-PVTZ
    Blend: AUG-CC-PVTZ
  Basis Set: (AUG-CC-PVTZ AUX)
    Blend: AUG-CC-PVTZ-JKFIT
	 Reference Energy          =    -266.3723997447037846 [Eh]
	 Singles Energy            =      -0.0000000000000000 [Eh]
	 Same-Spin Energy          =      -0.2657838400797359 [Eh]
	 Opposite-Spin Energy      =      -0.8301543184181605 [Eh]
	 Correlation Energy        =      -1.0959381584978964 [Eh]
	 Total Energy              =    -267.4683379032017001 [Eh]

	 ================> DF-SCS-MP2 Energies <==================
	-----------------------------------------------------------
	 SCS Same-Spin Scale       =       0.3333333333333333 [-]
	 SCS Opposite-Spin Scale   =       1.2000000000000000 [-]
	 SCS Same-Spin Energy      =      -0.0885946133599120 [Eh]
	 SCS Opposite-Spin Energy  =      -0.9961851821017925 [Eh]
	 SCS Correlation Energy    =      -1.0847797954617044 [Eh]
	 SCS Total Energy          =    -267.4571795401654981 [Eh]
	-----------------------------------------------------------

  Dipole Moment: [D]
     X:     4.5534      Y:    -1.4420      Z:     0.1917     Total:     4.7801

*** Psi4 exiting successfully. Buy a developer a beer!
