                               Psi4 1.3.2 release

  ==> Input File <==

--------------------------------------------------------------------------
#psi4
#
memory 32 gb

molecule  {
-1 1
  O       -1.7411470    -0.6399890    -0.1225600
  O       -0.5847590     1.3260370     0.0697860
  C        0.6259660    -0.7433870     0.1647240
  C        1.9093291     0.0297591    -0.1118377
  C       -0.7030090     0.0671670     0.0101180
  H        0.6586950    -1.1281730     1.1946430
  H        0.5657790    -1.6256900    -0.4841100
  H        1.8946620     0.3977130    -1.1675530
  H        1.8661090     0.9768400     0.4889820
  H        2.8042200    -0.4891930     0.0741590
units angstrom
no_reorient  #important for SAPT in psi4, default
symmetry c1  #important for SAPT in psi4, default
}

set PROPERTIES_ORIGIN ["COM"]
properties('MP2/aug-cc-pvtz', properties = ['dipole'])
--------------------------------------------------------------------------

    Molecular point group: c1
  Charge       = -1
  Multiplicity = 1
  Basis Set: AUG-CC-PVTZ
    Blend: AUG-CC-PVTZ
  Basis Set: (AUG-CC-PVTZ AUX)
    Blend: AUG-CC-PVTZ-JKFIT

    Orbital Energies [Eh]
    ---------------------

    Doubly Occupied:

       1A    -20.292316     2A    -20.290635     3A    -11.136933
       4A    -11.064291     5A    -11.055199     6A     -1.159582
       7A     -1.062687     8A     -0.866720     9A     -0.699998
      10A     -0.514238    11A     -0.450465    12A     -0.447614
      13A     -0.405525    14A     -0.381476    15A     -0.354975
      16A     -0.329369    17A     -0.304735    18A     -0.208444
      19A     -0.193725    20A     -0.191866

  @DF-RHF Final Energy:  -266.37161484980214

   => Energetics <=

    Nuclear Repulsion Energy =            167.5276247452779046
    One-Electron Energy =                -704.9768951472909748
    Two-Electron Energy =                 271.0776555522109561
    Total Energy =                       -266.3716148498021425
  Basis Set: (AUG-CC-PVTZ AUX)
    Blend: AUG-CC-PVTZ-RI
    Molecular point group: c1

    Geometry (in Angstrom), charge = -1, multiplicity = 1:

       Center              X                  Y                   Z               Mass
    ------------   -----------------  -----------------  -----------------  -----------------
         O           -1.640299097563    -0.658236889480    -0.122818628598    15.994914619570
         O           -0.483911097563     1.307789110520     0.069527371402    15.994914619570
         C            0.726813902437    -0.761634889480     0.164465371402    12.000000000000
         C            2.010177002437     0.011511210520    -0.112096328598    12.000000000000
         C           -0.602161097563     0.048919110520     0.009859371402    12.000000000000
         H            0.759542902437    -1.146420889480     1.194384371402     1.007825032230
         H            0.666626902437    -1.643937889480    -0.484368628598     1.007825032230
         H            1.995509902437     0.379465110520    -1.167811628598     1.007825032230
         H            1.966956902437     0.958592110520     0.488723371402     1.007825032230
         H            2.905067902437    -0.507440889480     0.073900371402     1.007825032230

  Basis Set: AUG-CC-PVTZ
    Blend: AUG-CC-PVTZ
  Basis Set: (AUG-CC-PVTZ AUX)
    Blend: AUG-CC-PVTZ-JKFIT
	 Reference Energy          =    -266.3716148498021425 [Eh]
	 Singles Energy            =      -0.0000000000000000 [Eh]
	 Same-Spin Energy          =      -0.2659886433721356 [Eh]
	 Opposite-Spin Energy      =      -0.8304344770781642 [Eh]
	 Correlation Energy        =      -1.0964231204502997 [Eh]
	 Total Energy              =    -267.4680379702524533 [Eh]

	 ================> DF-SCS-MP2 Energies <==================
	-----------------------------------------------------------
	 SCS Same-Spin Scale       =       0.3333333333333333 [-]
	 SCS Opposite-Spin Scale   =       1.2000000000000000 [-]
	 SCS Same-Spin Energy      =      -0.0886628811240452 [Eh]
	 SCS Opposite-Spin Energy  =      -0.9965213724937970 [Eh]
	 SCS Correlation Energy    =      -1.0851842536178422 [Eh]
	 SCS Total Energy          =    -267.4567991034199963 [Eh]
	-----------------------------------------------------------

  Dipole Moment: [D]
     X:     4.6492      Y:    -1.5616      Z:     0.2287     Total:     4.9097

*** Psi4 exiting successfully. Buy a developer a beer!
