                               Psi4 1.3.2 release

  ==> Input File <==

--------------------------------------------------------------------------
#psi4
#
memory 32 gb

molecule  {
-1 1
  O       -1.7411470    -0.6399890    -0.1225600
  O       -0.5847590     1.3260370     0.0697860
  C        0.6259660    -0.7433870     0.1647240
  C        1.8168199     0.1561679    -0.1417558
  C       -0.7030090     0.0671670     0.0101180
  H        0.6586950    -1.1281730     1.1946430
  H        0.5657790    -1.6256900    -0.4841100
  H        1.8946620     0.3977130    -1.1675530
  H        1.8661090     0.9768400     0.4889820
  H        2.8042200    -0.4891930     0.0741590
units angstrom
no_reorient  #important for SAPT in psi4, default
symmetry c1  #important for SAPT in psi4, default
}

set PROPERTIES_ORIGIN ["COM"]
properties('MP2/aug-cc-pvtz', properties = ['dipole'])
--------------------------------------------------------------------------

    Molecular point group: c1
  Charge       = -1
  Multiplicity = 1
  Basis Set: AUG-CC-PVTZ
    Blend: AUG-CC-PVTZ
  Basis Set: (AUG-CC-PVTZ AUX)
    Blend: AUG-CC-PVTZ-JKFIT

    Orbital Energies [Eh]
    ---------------------

    Doubly Occupied:

       1A    -20.292328     2A    -20.289318     3A    -11.134334
       4A    -11.066307     5A    -11.055763     6A     -1.159503
       7A     -1.062576     8A     -0.867444     9A     -0.700828
      10A     -0.514061    11A     -0.468107    12A     -0.435806
      13A     -0.405361    14A     -0.373559    15A     -0.348213
      16A     -0.340270    17A     -0.312516    18A     -0.208119
      19A     -0.192013    20A     -0.189154

  @DF-RHF Final Energy:  -266.36469025926726

   => Energetics <=

    Nuclear Repulsion Energy =            168.3443276671372359
    One-Electron Energy =                -706.5868768924590313
    Two-Electron Energy =                 271.8778589660545322
    Total Energy =                       -266.3646902592672632
  Basis Set: (AUG-CC-PVTZ AUX)
    Blend: AUG-CC-PVTZ-RI
    Molecular point group: c1

    Geometry (in Angstrom), charge = -1, multiplicity = 1:

       Center              X                  Y                   Z               Mass
    ------------   -----------------  -----------------  -----------------  -----------------
         O           -1.625098135025    -0.679008179613    -0.117902534661    15.994914619570
         O           -0.468710135025     1.287017820387     0.074443465339    15.994914619570
         C            0.742014864975    -0.782406179613     0.169381465339    12.000000000000
         C            1.932868764975     0.117148720387    -0.137098334661    12.000000000000
         C           -0.586960135025     0.028147820387     0.014775465339    12.000000000000
         H            0.774743864975    -1.167192179613     1.199300465339     1.007825032230
         H            0.681827864975    -1.664709179613    -0.479452534661     1.007825032230
         H            2.010710864975     0.358693820387    -1.162895534661     1.007825032230
         H            1.982157864975     0.937820820387     0.493639465339     1.007825032230
         H            2.920268864975    -0.528212179613     0.078816465339     1.007825032230

  Basis Set: AUG-CC-PVTZ
    Blend: AUG-CC-PVTZ
  Basis Set: (AUG-CC-PVTZ AUX)
    Blend: AUG-CC-PVTZ-JKFIT
	 Reference Energy          =    -266.3646902592672632 [Eh]
	 Singles Energy            =      -0.0000000000000000 [Eh]
	 Same-Spin Energy          =      -0.2658069593332273 [Eh]
	 Opposite-Spin Energy      =      -0.8303900312993029 [Eh]
	 Correlation Energy        =      -1.0961969906325302 [Eh]
	 Total Energy              =    -267.4608872498997698 [Eh]

	 ================> DF-SCS-MP2 Energies <==================
	-----------------------------------------------------------
	 SCS Same-Spin Scale       =       0.3333333333333333 [-]
	 SCS Opposite-Spin Scale   =       1.2000000000000000 [-]
	 SCS Same-Spin Energy      =      -0.0886023197777424 [Eh]
	 SCS Opposite-Spin Energy  =      -0.9964680375591635 [Eh]
	 SCS Correlation Energy    =      -1.0850703573369058 [Eh]
	 SCS Total Energy          =    -267.4497606166041805 [Eh]
	-----------------------------------------------------------

  Dipole Moment: [D]
     X:     4.4614      Y:    -1.3762      Z:     0.1729     Total:     4.6720

*** Psi4 exiting successfully. Buy a developer a beer!
