                               Psi4 1.3.2 release

  ==> Input File <==

--------------------------------------------------------------------------
#psi4
#
memory 32 gb

molecule  {
-1 1
  O       -1.7411470    -0.6399890    -0.1225600
  O       -0.5847590     1.3260370     0.0697860
  C        0.6259660    -0.7433870     0.1647240
  C        1.9370865    -0.0143308    -0.1011745
  C       -0.7030090     0.0671670     0.0101180
  H        0.6586950    -1.1281730     1.1946430
  H        0.5657790    -1.6256900    -0.4841100
  H        1.8946620     0.3977130    -1.1675530
  H        1.8661090     0.9768400     0.4889820
  H        2.8042200    -0.4891930     0.0741590
units angstrom
no_reorient  #important for SAPT in psi4, default
symmetry c1  #important for SAPT in psi4, default
}

set PROPERTIES_ORIGIN ["COM"]
properties('MP2/aug-cc-pvtz', properties = ['dipole'])
--------------------------------------------------------------------------

    Molecular point group: c1
  Charge       = -1
  Multiplicity = 1
  Basis Set: AUG-CC-PVTZ
    Blend: AUG-CC-PVTZ
  Basis Set: (AUG-CC-PVTZ AUX)
    Blend: AUG-CC-PVTZ-JKFIT

    Orbital Energies [Eh]
    ---------------------

    Doubly Occupied:

       1A    -20.292920     2A    -20.291586     3A    -11.138429
       4A    -11.065678     5A    -11.056002     6A     -1.160208
       7A     -1.063310     8A     -0.867653     9A     -0.702389
      10A     -0.514422    11A     -0.458215    12A     -0.443873
      13A     -0.409695    14A     -0.387321    15A     -0.349907
      16A     -0.323189    17A     -0.299527    18A     -0.209143
      19A     -0.195324    20A     -0.192428

  @DF-RHF Final Energy:  -266.36147172356880

   => Energetics <=

    Nuclear Repulsion Energy =            167.2883491300608512
    One-Electron Energy =                -704.4572000859568561
    Two-Electron Energy =                 270.8073792323272073
    Total Energy =                       -266.3614717235687976
  Basis Set: (AUG-CC-PVTZ AUX)
    Blend: AUG-CC-PVTZ-RI
    Molecular point group: c1

    Geometry (in Angstrom), charge = -1, multiplicity = 1:

       Center              X                  Y                   Z               Mass
    ------------   -----------------  -----------------  -----------------  -----------------
         O           -1.644860148761    -0.650992108224    -0.124570788424    15.994914619570
         O           -0.488472148761     1.315033891776     0.067775211576    15.994914619570
         C            0.722252851239    -0.754390108224     0.162713211576    12.000000000000
         C            2.033373351239    -0.025333908224    -0.103185288424    12.000000000000
         C           -0.606722148761     0.056163891776     0.008107211576    12.000000000000
         H            0.754981851239    -1.139176108224     1.192632211576     1.007825032230
         H            0.662065851239    -1.636693108224    -0.486120788424     1.007825032230
         H            1.990948851239     0.386709891776    -1.169563788424     1.007825032230
         H            1.962395851239     0.965836891776     0.486971211576     1.007825032230
         H            2.900506851239    -0.500196108224     0.072148211576     1.007825032230

  Basis Set: AUG-CC-PVTZ
    Blend: AUG-CC-PVTZ
  Basis Set: (AUG-CC-PVTZ AUX)
    Blend: AUG-CC-PVTZ-JKFIT
	 Reference Energy          =    -266.3614717235687976 [Eh]
	 Singles Energy            =      -0.0000000000000000 [Eh]
	 Same-Spin Energy          =      -0.2662264053963459 [Eh]
	 Opposite-Spin Energy      =      -0.8310006724484755 [Eh]
	 Correlation Energy        =      -1.0972270778448214 [Eh]
	 Total Energy              =    -267.4586988014136182 [Eh]

	 ================> DF-SCS-MP2 Energies <==================
	-----------------------------------------------------------
	 SCS Same-Spin Scale       =       0.3333333333333333 [-]
	 SCS Opposite-Spin Scale   =       1.2000000000000000 [-]
	 SCS Same-Spin Energy      =      -0.0887421351321153 [Eh]
	 SCS Opposite-Spin Energy  =      -0.9972008069381706 [Eh]
	 SCS Correlation Energy    =      -1.0859429420702860 [Eh]
	 SCS Total Energy          =    -267.4474146656390872 [Eh]
	-----------------------------------------------------------

  Dipole Moment: [D]
     X:     4.6551      Y:    -1.6169      Z:     0.2472     Total:     4.9341

*** Psi4 exiting successfully. Buy a developer a beer!
