                               Psi4 1.3.2 release

  ==> Input File <==

--------------------------------------------------------------------------
#psi4
#
memory 32 gb

molecule  {
-1 1
  O       -1.7411470    -0.6399890    -0.1225600
  O       -0.5847590     1.3260370     0.0697860
  C        0.6259660    -0.7433870     0.1647240
  C        1.8948618     0.0514541    -0.1170438
  C       -0.7030090     0.0671670     0.0101180
  H        0.6586950    -1.1281730     1.1946430
  H        0.5657790    -1.6256900    -0.4841100
  H        1.8946620     0.3977130    -1.1675530
  H        1.8661090     0.9768400     0.4889820
  H        2.8042200    -0.4891930     0.0741590
units angstrom
no_reorient  #important for SAPT in psi4, default
symmetry c1  #important for SAPT in psi4, default
}

set PROPERTIES_ORIGIN ["COM"]
properties('MP2/aug-cc-pvtz', properties = ['dipole'])
--------------------------------------------------------------------------

    Molecular point group: c1
  Charge       = -1
  Multiplicity = 1
  Basis Set: AUG-CC-PVTZ
    Blend: AUG-CC-PVTZ
  Basis Set: (AUG-CC-PVTZ AUX)
    Blend: AUG-CC-PVTZ-JKFIT

    Orbital Energies [Eh]
    ---------------------

    Doubly Occupied:

       1A    -20.292118     2A    -20.290251     3A    -11.136295
       4A    -11.063967     5A    -11.054988     6A     -1.159372
       7A     -1.062477     8A     -0.866481     9A     -0.699387
      10A     -0.514168    11A     -0.450712    12A     -0.446479
      13A     -0.404320    14A     -0.377076    15A     -0.357597
      16A     -0.332582    17A     -0.306656    18A     -0.208199
      19A     -0.192986    20A     -0.191646

  @DF-RHF Final Energy:  -266.37410326447412

   => Energetics <=

    Nuclear Repulsion Energy =            167.6540555994533008
    One-Electron Energy =                -705.2408013158765243
    Two-Electron Energy =                 271.2126424519491366
    Total Energy =                       -266.3741032644741153
  Basis Set: (AUG-CC-PVTZ AUX)
    Blend: AUG-CC-PVTZ-RI
    Molecular point group: c1

    Geometry (in Angstrom), charge = -1, multiplicity = 1:

       Center              X                  Y                   Z               Mass
    ------------   -----------------  -----------------  -----------------  -----------------
         O           -1.637921854161    -0.661801776888    -0.121963170643    15.994914619570
         O           -0.481533854161     1.304224223112     0.070382829357    15.994914619570
         C            0.729191145839    -0.765199776888     0.165320829357    12.000000000000
         C            1.998086945839     0.029641323112    -0.116446970643    12.000000000000
         C           -0.599783854161     0.045354223112     0.010714829357    12.000000000000
         H            0.761920145839    -1.149985776888     1.195239829357     1.007825032230
         H            0.669004145839    -1.647502776888    -0.483513170643     1.007825032230
         H            1.997887145839     0.375900223112    -1.166956170643     1.007825032230
         H            1.969334145839     0.955027223112     0.489578829357     1.007825032230
         H            2.907445145839    -0.511005776888     0.074755829357     1.007825032230

  Basis Set: AUG-CC-PVTZ
    Blend: AUG-CC-PVTZ
  Basis Set: (AUG-CC-PVTZ AUX)
    Blend: AUG-CC-PVTZ-JKFIT
	 Reference Energy          =    -266.3741032644741153 [Eh]
	 Singles Energy            =      -0.0000000000000000 [Eh]
	 Same-Spin Energy          =      -0.2659046139606067 [Eh]
	 Opposite-Spin Energy      =      -0.8302633723210318 [Eh]
	 Correlation Energy        =      -1.0961679862816385 [Eh]
	 Total Energy              =    -267.4702712507557294 [Eh]

	 ================> DF-SCS-MP2 Energies <==================
	-----------------------------------------------------------
	 SCS Same-Spin Scale       =       0.3333333333333333 [-]
	 SCS Opposite-Spin Scale   =       1.2000000000000000 [-]
	 SCS Same-Spin Energy      =      -0.0886348713202022 [Eh]
	 SCS Opposite-Spin Energy  =      -0.9963160467852381 [Eh]
	 SCS Correlation Energy    =      -1.0849509181054404 [Eh]
	 SCS Total Energy          =    -267.4590541825795640 [Eh]
	-----------------------------------------------------------

  Dipole Moment: [D]
     X:     4.6359      Y:    -1.5330      Z:     0.2195     Total:     4.8877

*** Psi4 exiting successfully. Buy a developer a beer!
