                               Psi4 1.3.2 release

  ==> Input File <==

--------------------------------------------------------------------------
#psi4
#
memory 32 gb

molecule  {
-1 1
  O       -1.7411470    -0.6399890    -0.1225600
  O       -0.5847590     1.3260370     0.0697860
  C        0.6259660    -0.7433870     0.1647240
  C        1.9632466    -0.0593089    -0.0901873
  C       -0.7030090     0.0671670     0.0101180
  H        0.6586950    -1.1281730     1.1946430
  H        0.5657790    -1.6256900    -0.4841100
  H        1.8946620     0.3977130    -1.1675530
  H        1.8661090     0.9768400     0.4889820
  H        2.8042200    -0.4891930     0.0741590
units angstrom
no_reorient  #important for SAPT in psi4, default
symmetry c1  #important for SAPT in psi4, default
}

set PROPERTIES_ORIGIN ["COM"]
properties('MP2/aug-cc-pvtz', properties = ['dipole'])
--------------------------------------------------------------------------

    Molecular point group: c1
  Charge       = -1
  Multiplicity = 1
  Basis Set: AUG-CC-PVTZ
    Blend: AUG-CC-PVTZ
  Basis Set: (AUG-CC-PVTZ AUX)
    Blend: AUG-CC-PVTZ-JKFIT

    Orbital Energies [Eh]
    ---------------------

    Doubly Occupied:

       1A    -20.293776     2A    -20.292767     3A    -11.140205
       4A    -11.068016     5A    -11.057318     6A     -1.161089
       7A     -1.064183     8A     -0.869203     9A     -0.706510
      10A     -0.514795    11A     -0.467276    12A     -0.441073
      13A     -0.415010    14A     -0.390156    15A     -0.345622
      16A     -0.317607    17A     -0.292258    18A     -0.210109
      19A     -0.197026    20A     -0.193183

  @DF-RHF Final Energy:  -266.34387962614494

   => Energetics <=

    Nuclear Repulsion Energy =            167.0682641712157306
    One-Electron Energy =                -703.9499224501706749
    Two-Electron Energy =                 270.5377786528100614
    Total Energy =                       -266.3438796261449397
  Basis Set: (AUG-CC-PVTZ AUX)
    Blend: AUG-CC-PVTZ-RI
    Molecular point group: c1

    Geometry (in Angstrom), charge = -1, multiplicity = 1:

       Center              X                  Y                   Z               Mass
    ------------   -----------------  -----------------  -----------------  -----------------
         O           -1.649158734200    -0.643601379376    -0.126376187407    15.994914619570
         O           -0.492770734200     1.322424620624     0.065969812593    15.994914619570
         C            0.717954265800    -0.746999379376     0.160907812593    12.000000000000
         C            2.055234865800    -0.062921279376    -0.094003487407    12.000000000000
         C           -0.611020734200     0.063554620624     0.006301812593    12.000000000000
         H            0.750683265800    -1.131785379376     1.190826812593     1.007825032230
         H            0.657767265800    -1.629302379376    -0.487926187407     1.007825032230
         H            1.986650265800     0.394100620624    -1.171369187407     1.007825032230
         H            1.958097265800     0.973227620624     0.485165812593     1.007825032230
         H            2.896208265800    -0.492805379376     0.070342812593     1.007825032230

  Basis Set: AUG-CC-PVTZ
    Blend: AUG-CC-PVTZ
  Basis Set: (AUG-CC-PVTZ AUX)
    Blend: AUG-CC-PVTZ-JKFIT
	 Reference Energy          =    -266.3438796261449397 [Eh]
	 Singles Energy            =      -0.0000000000000000 [Eh]
	 Same-Spin Energy          =      -0.2665615544860732 [Eh]
	 Opposite-Spin Energy      =      -0.8318913439379980 [Eh]
	 Correlation Energy        =      -1.0984528984240711 [Eh]
	 Total Energy              =    -267.4423325245689966 [Eh]

	 ================> DF-SCS-MP2 Energies <==================
	-----------------------------------------------------------
	 SCS Same-Spin Scale       =       0.3333333333333333 [-]
	 SCS Opposite-Spin Scale   =       1.2000000000000000 [-]
	 SCS Same-Spin Energy      =      -0.0888538514953577 [Eh]
	 SCS Opposite-Spin Energy  =      -0.9982696127255976 [Eh]
	 SCS Correlation Energy    =      -1.0871234642209553 [Eh]
	 SCS Total Energy          =    -267.4310030903658912 [Eh]
	-----------------------------------------------------------

  Dipole Moment: [D]
     X:     4.6349      Y:    -1.6703      Z:     0.2662     Total:     4.9338

*** Psi4 exiting successfully. Buy a developer a beer!
