                               Psi4 1.3.2 release

  ==> Input File <==

--------------------------------------------------------------------------
#psi4
#
memory 32 gb

molecule  {
-1 1
  O       -1.7411470    -0.6399890    -0.1225600
  O       -0.5847590     1.3260370     0.0697860
  C        0.6259660    -0.7433870     0.1647240
  C        1.7830298     0.1961795    -0.1509975
  C       -0.7030090     0.0671670     0.0101180
  H        0.6586950    -1.1281730     1.1946430
  H        0.5657790    -1.6256900    -0.4841100
  H        1.8946620     0.3977130    -1.1675530
  H        1.8661090     0.9768400     0.4889820
  H        2.8042200    -0.4891930     0.0741590
units angstrom
no_reorient  #important for SAPT in psi4, default
symmetry c1  #important for SAPT in psi4, default
}

set PROPERTIES_ORIGIN ["COM"]
properties('MP2/aug-cc-pvtz', properties = ['dipole'])
--------------------------------------------------------------------------

    Molecular point group: c1
  Charge       = -1
  Multiplicity = 1
  Basis Set: AUG-CC-PVTZ
    Blend: AUG-CC-PVTZ
  Basis Set: (AUG-CC-PVTZ AUX)
    Blend: AUG-CC-PVTZ-JKFIT

    Orbital Energies [Eh]
    ---------------------

    Doubly Occupied:

       1A    -20.293070     2A    -20.289446     3A    -11.134174
       4A    -11.069197     5A    -11.056884     6A     -1.160179
       7A     -1.063222     8A     -0.868755     9A     -0.702868
      10A     -0.514277    11A     -0.476949    12A     -0.433766
      13A     -0.407734    14A     -0.378492    15A     -0.352794
      16A     -0.325083    17A     -0.313754    18A     -0.208661
      19A     -0.192594    20A     -0.187814

  @DF-RHF Final Energy:  -266.35278895644535

   => Energetics <=

    Nuclear Repulsion Energy =            168.6420067843338870
    One-Electron Energy =                -707.1301644215816395
    Two-Electron Energy =                 272.1353686808023440
    Total Energy =                       -266.3527889564453517
  Basis Set: (AUG-CC-PVTZ AUX)
    Blend: AUG-CC-PVTZ-RI
    Molecular point group: c1

    Geometry (in Angstrom), charge = -1, multiplicity = 1:

       Center              X                  Y                   Z               Mass
    ------------   -----------------  -----------------  -----------------  -----------------
         O           -1.619545800292    -0.685582821192    -0.116383953422    15.994914619570
         O           -0.463157800292     1.280443178808     0.075962046578    15.994914619570
         C            0.747567199708    -0.788980821192     0.170900046578    12.000000000000
         C            1.904630999708     0.150585678808    -0.144821453422    12.000000000000
         C           -0.581407800292     0.021573178808     0.016294046578    12.000000000000
         H            0.780296199708    -1.173766821192     1.200819046578     1.007825032230
         H            0.687380199708    -1.671283821192    -0.477933953422     1.007825032230
         H            2.016263199708     0.352119178808    -1.161376953422     1.007825032230
         H            1.987710199708     0.931246178808     0.495158046578     1.007825032230
         H            2.925821199708    -0.534786821192     0.080335046578     1.007825032230

  Basis Set: AUG-CC-PVTZ
    Blend: AUG-CC-PVTZ
  Basis Set: (AUG-CC-PVTZ AUX)
    Blend: AUG-CC-PVTZ-JKFIT
	 Reference Energy          =    -266.3527889564453517 [Eh]
	 Singles Energy            =      -0.0000000000000000 [Eh]
	 Same-Spin Energy          =      -0.2659095476323465 [Eh]
	 Opposite-Spin Energy      =      -0.8308530475578628 [Eh]
	 Correlation Energy        =      -1.0967625951902094 [Eh]
	 Total Energy              =    -267.4495515516355795 [Eh]

	 ================> DF-SCS-MP2 Energies <==================
	-----------------------------------------------------------
	 SCS Same-Spin Scale       =       0.3333333333333333 [-]
	 SCS Opposite-Spin Scale   =       1.2000000000000000 [-]
	 SCS Same-Spin Energy      =      -0.0886365158774488 [Eh]
	 SCS Opposite-Spin Energy  =      -0.9970236570694353 [Eh]
	 SCS Correlation Energy    =      -1.0856601729468842 [Eh]
	 SCS Total Energy          =    -267.4384491293922110 [Eh]
	-----------------------------------------------------------

  Dipole Moment: [D]
     X:     4.3389      Y:    -1.3054      Z:     0.1540     Total:     4.5336

*** Psi4 exiting successfully. Buy a developer a beer!
