                               Psi4 1.3.2 release

  ==> Input File <==

--------------------------------------------------------------------------
#psi4
#
memory 32 gb

molecule  {
0 1
  O       -1.8720150     0.1455040    -0.0239620
  C        0.9797650    -0.0480790     0.0033120
  C       -1.2654920    -1.1739550     0.0157300
  C        0.2371350    -1.1840010    -0.0022480
  C        0.2779850     1.2351350     0.0170580
  C        2.4810890    -0.0479420    -0.0086670
  C       -1.0722470     1.2493700    -0.0013870
  H       -1.6715710    -1.7194360    -0.8464940
  H       -1.6521540    -1.6671500     0.9188080
  H        0.7071820    -2.1662500    -0.0128270
  H        0.8248538     2.1765276    -0.2196766
  H        2.8758370     0.4671910     0.8740370
  H        2.8626870     0.4795000    -0.8898540
  H        2.8779460    -1.0666660    -0.0186730
  H       -1.6754580     2.1523000    -0.0063760
units angstrom
no_reorient  #important for SAPT in psi4, default
symmetry c1  #important for SAPT in psi4, default
}

set PROPERTIES_ORIGIN ["COM"]
properties('MP2/aug-cc-pvtz', properties = ['dipole'])
--------------------------------------------------------------------------

    Molecular point group: c1
  Charge       = 0
  Multiplicity = 1
  Basis Set: AUG-CC-PVTZ
    Blend: AUG-CC-PVTZ
  Basis Set: (AUG-CC-PVTZ AUX)
    Blend: AUG-CC-PVTZ-JKFIT

    Orbital Energies [Eh]
    ---------------------

    Doubly Occupied:

       1A    -20.584996     2A    -11.301641     3A    -11.292283
       4A    -11.246808     5A    -11.226513     6A    -11.225874
       7A    -11.220630     8A     -1.399827     9A     -1.105819
      10A     -1.034822    11A     -0.971880    12A     -0.875471
      13A     -0.827343    14A     -0.692784    15A     -0.673309
      16A     -0.656482    17A     -0.648837    18A     -0.585829
      19A     -0.572889    20A     -0.557832    21A     -0.549764
      22A     -0.512519    23A     -0.501542    24A     -0.469946
      25A     -0.409357    26A     -0.285923

  @DF-RHF Final Energy:  -306.78607141989312

   => Energetics <=

    Nuclear Repulsion Energy =            288.4226563064135007
    One-Electron Energy =                -987.5556158455892728
    Two-Electron Energy =                 392.3468881192826530
    Total Energy =                       -306.7860714198931191
  Basis Set: (AUG-CC-PVTZ AUX)
    Blend: AUG-CC-PVTZ-RI
    Molecular point group: c1

    Geometry (in Angstrom), charge = 0, multiplicity = 1:

       Center              X                  Y                   Z               Mass
    ------------   -----------------  -----------------  -----------------  -----------------
         O           -1.818981318240     0.131562769633    -0.020835508428    15.994914619570
         C            1.032798681760    -0.062020230367     0.006438491572    12.000000000000
         C           -1.212458318240    -1.187896230367     0.018856491572    12.000000000000
         C            0.290168681760    -1.197942230367     0.000878491572    12.000000000000
         C            0.331018681760     1.221193769633     0.020184491572    12.000000000000
         C            2.534122681760    -0.061883230367    -0.005540508428    12.000000000000
         C           -1.019213318240     1.235428769633     0.001739491572    12.000000000000
         H           -1.618537318240    -1.733377230367    -0.843367508428     1.007825032230
         H           -1.599120318240    -1.681091230367     0.921934491572     1.007825032230
         H            0.760215681760    -2.180191230367    -0.009700508428     1.007825032230
         H            0.877887481760     2.162586369633    -0.216550108428     1.007825032230
         H            2.928870681760     0.453249769633     0.877163491572     1.007825032230
         H            2.915720681760     0.465558769633    -0.886727508428     1.007825032230
         H            2.930979681760    -1.080607230367    -0.015546508428     1.007825032230
         H           -1.622424318240     2.138358769633    -0.003249508428     1.007825032230

  Basis Set: AUG-CC-PVTZ
    Blend: AUG-CC-PVTZ
  Basis Set: (AUG-CC-PVTZ AUX)
    Blend: AUG-CC-PVTZ-JKFIT
	 Reference Energy          =    -306.7860714198931191 [Eh]
	 Singles Energy            =      -0.0000000000000000 [Eh]
	 Same-Spin Energy          =      -0.3157875562218015 [Eh]
	 Opposite-Spin Energy      =      -1.0412136145267470 [Eh]
	 Correlation Energy        =      -1.3570011707485485 [Eh]
	 Total Energy              =    -308.1430725906416797 [Eh]

	 ================> DF-SCS-MP2 Energies <==================
	-----------------------------------------------------------
	 SCS Same-Spin Scale       =       0.3333333333333333 [-]
	 SCS Opposite-Spin Scale   =       1.2000000000000000 [-]
	 SCS Same-Spin Energy      =      -0.1052625187406005 [Eh]
	 SCS Opposite-Spin Energy  =      -1.2494563374320964 [Eh]
	 SCS Correlation Energy    =      -1.3547188561726968 [Eh]
	 SCS Total Energy          =    -308.1407902760658430 [Eh]
	-----------------------------------------------------------

  Dipole Moment: [D]
     X:     0.8634      Y:    -0.5621      Z:    -0.1493     Total:     1.0410

*** Psi4 exiting successfully. Buy a developer a beer!
