                               Psi4 1.3.2 release

  ==> Input File <==

--------------------------------------------------------------------------
#psi4
#
memory 32 gb

molecule  {
0 1
  O       -1.8720150     0.1455040    -0.0239620
  C        0.9797650    -0.0480790     0.0033120
  C       -1.2654920    -1.1739550     0.0157300
  C        0.2371350    -1.1840010    -0.0022480
  C        0.2779850     1.2351350     0.0170580
  C        2.4810890    -0.0479420    -0.0086670
  C       -1.0722470     1.2493700    -0.0013870
  H       -1.6715710    -1.7194360    -0.8464940
  H       -1.6521540    -1.6671500     0.9188080
  H        0.7071820    -2.1662500    -0.0128270
  H        0.8243320     2.1758835    -0.1696835
  H        2.8758370     0.4671910     0.8740370
  H        2.8626870     0.4795000    -0.8898540
  H        2.8779460    -1.0666660    -0.0186730
  H       -1.6754580     2.1523000    -0.0063760
units angstrom
no_reorient  #important for SAPT in psi4, default
symmetry c1  #important for SAPT in psi4, default
}

set PROPERTIES_ORIGIN ["COM"]
properties('MP2/aug-cc-pvtz', properties = ['dipole'])
--------------------------------------------------------------------------

    Molecular point group: c1
  Charge       = 0
  Multiplicity = 1
  Basis Set: AUG-CC-PVTZ
    Blend: AUG-CC-PVTZ
  Basis Set: (AUG-CC-PVTZ AUX)
    Blend: AUG-CC-PVTZ-JKFIT

    Orbital Energies [Eh]
    ---------------------

    Doubly Occupied:

       1A    -20.584610     2A    -11.301119     3A    -11.292133
       4A    -11.246802     5A    -11.226480     6A    -11.225959
       7A    -11.219785     8A     -1.399493     9A     -1.105879
      10A     -1.034789    11A     -0.971914    12A     -0.875720
      13A     -0.827289    14A     -0.693148    15A     -0.673397
      16A     -0.656932    17A     -0.649111    18A     -0.585816
      19A     -0.572897    20A     -0.557770    21A     -0.550734
      22A     -0.512140    23A     -0.502311    24A     -0.469791
      25A     -0.409671    26A     -0.285763

  @DF-RHF Final Energy:  -306.78746530666416

   => Energetics <=

    Nuclear Repulsion Energy =            288.4616477695079197
    One-Electron Energy =                -987.6353195449063378
    Two-Electron Energy =                 392.3862064687342013
    Total Energy =                       -306.7874653066641599
  Basis Set: (AUG-CC-PVTZ AUX)
    Blend: AUG-CC-PVTZ-RI
    Molecular point group: c1

    Geometry (in Angstrom), charge = 0, multiplicity = 1:

       Center              X                  Y                   Z               Mass
    ------------   -----------------  -----------------  -----------------  -----------------
         O           -1.818975843571     0.131569527460    -0.021360030614    15.994914619570
         C            1.032804156429    -0.062013472540     0.005913969386    12.000000000000
         C           -1.212452843571    -1.187889472540     0.018331969386    12.000000000000
         C            0.290174156429    -1.197935472540     0.000353969386    12.000000000000
         C            0.331024156429     1.221200527460     0.019659969386    12.000000000000
         C            2.534128156429    -0.061876472540    -0.006065030614    12.000000000000
         C           -1.019207843571     1.235435527460     0.001214969386    12.000000000000
         H           -1.618531843571    -1.733370472540    -0.843892030614     1.007825032230
         H           -1.599114843571    -1.681084472540     0.921409969386     1.007825032230
         H            0.760221156429    -2.180184472540    -0.010225030614     1.007825032230
         H            0.877371156429     2.161949027460    -0.167081530614     1.007825032230
         H            2.928876156429     0.453256527460     0.876638969386     1.007825032230
         H            2.915726156429     0.465565527460    -0.887252030614     1.007825032230
         H            2.930985156429    -1.080600472540    -0.016071030614     1.007825032230
         H           -1.622418843571     2.138365527460    -0.003774030614     1.007825032230

  Basis Set: AUG-CC-PVTZ
    Blend: AUG-CC-PVTZ
  Basis Set: (AUG-CC-PVTZ AUX)
    Blend: AUG-CC-PVTZ-JKFIT
	 Reference Energy          =    -306.7874653066641599 [Eh]
	 Singles Energy            =      -0.0000000000000000 [Eh]
	 Same-Spin Energy          =      -0.3157240870870015 [Eh]
	 Opposite-Spin Energy      =      -1.0410609668377173 [Eh]
	 Correlation Energy        =      -1.3567850539247188 [Eh]
	 Total Energy              =    -308.1442503605888987 [Eh]

	 ================> DF-SCS-MP2 Energies <==================
	-----------------------------------------------------------
	 SCS Same-Spin Scale       =       0.3333333333333333 [-]
	 SCS Opposite-Spin Scale   =       1.2000000000000000 [-]
	 SCS Same-Spin Energy      =      -0.1052413623623338 [Eh]
	 SCS Opposite-Spin Energy  =      -1.2492731602052607 [Eh]
	 SCS Correlation Energy    =      -1.3545145225675945 [Eh]
	 SCS Total Energy          =    -308.1419798292317296 [Eh]
	-----------------------------------------------------------

  Dipole Moment: [D]
     X:     0.8786      Y:    -0.5467      Z:    -0.1141     Total:     1.0410

*** Psi4 exiting successfully. Buy a developer a beer!
