                               Psi4 1.3.2 release

  ==> Input File <==

--------------------------------------------------------------------------
#psi4
#
memory 32 gb

molecule  {
0 1
  O       -1.8720150     0.1455040    -0.0239620
  C        0.9797650    -0.0480790     0.0033120
  C       -1.2654920    -1.1739550     0.0157300
  C        0.2371350    -1.1840010    -0.0022480
  C        0.2779850     1.2351350     0.0170580
  C        2.4810890    -0.0479420    -0.0086670
  C       -1.0722470     1.2493700    -0.0013870
  H       -1.6715710    -1.7194360    -0.8464940
  H       -1.6521540    -1.6671500     0.9188080
  H        0.7071820    -2.1662500    -0.0128270
  H        0.8227668     2.1739511    -0.0197041
  H        2.8758370     0.4671910     0.8740370
  H        2.8626870     0.4795000    -0.8898540
  H        2.8779460    -1.0666660    -0.0186730
  H       -1.6754580     2.1523000    -0.0063760
units angstrom
no_reorient  #important for SAPT in psi4, default
symmetry c1  #important for SAPT in psi4, default
}

set PROPERTIES_ORIGIN ["COM"]
properties('MP2/aug-cc-pvtz', properties = ['dipole'])
--------------------------------------------------------------------------

    Molecular point group: c1
  Charge       = 0
  Multiplicity = 1
  Basis Set: AUG-CC-PVTZ
    Blend: AUG-CC-PVTZ
  Basis Set: (AUG-CC-PVTZ AUX)
    Blend: AUG-CC-PVTZ-JKFIT

    Orbital Energies [Eh]
    ---------------------

    Doubly Occupied:

       1A    -20.583928     2A    -11.300205     3A    -11.291876
       4A    -11.246801     5A    -11.226445     6A    -11.226106
       7A    -11.218331     8A     -1.398905     9A     -1.105993
      10A     -1.034738    11A     -0.971978    12A     -0.876181
      13A     -0.827201    14A     -0.693926    15A     -0.673587
      16A     -0.657672    17A     -0.649610    18A     -0.585810
      19A     -0.572884    20A     -0.557696    21A     -0.552334
      22A     -0.511304    23A     -0.503797    24A     -0.469509
      25A     -0.410172    26A     -0.285495

  @DF-RHF Final Energy:  -306.78959854921982

   => Energetics <=

    Nuclear Repulsion Energy =            288.5291606716786532
    One-Electron Energy =                -987.7725502332536962
    Two-Electron Energy =                 392.4537910123551683
    Total Energy =                       -306.7895985492198179
  Basis Set: (AUG-CC-PVTZ AUX)
    Blend: AUG-CC-PVTZ-RI
    Molecular point group: c1

    Geometry (in Angstrom), charge = 0, multiplicity = 1:

       Center              X                  Y                   Z               Mass
    ------------   -----------------  -----------------  -----------------  -----------------
         O           -1.818959421662     0.131589801992    -0.022933598219    15.994914619570
         C            1.032820578338    -0.061993198008     0.004340401781    12.000000000000
         C           -1.212436421662    -1.187869198008     0.016758401781    12.000000000000
         C            0.290190578338    -1.197915198008    -0.001219598219    12.000000000000
         C            0.331040578338     1.221220801992     0.018086401781    12.000000000000
         C            2.534144578338    -0.061856198008    -0.007638598219    12.000000000000
         C           -1.019191421662     1.235455801992    -0.000358598219    12.000000000000
         H           -1.618515421662    -1.733350198008    -0.845465598219     1.007825032230
         H           -1.599098421662    -1.681064198008     0.919836401781     1.007825032230
         H            0.760237578338    -2.180164198008    -0.011798598219     1.007825032230
         H            0.875822378338     2.160036901992    -0.018675698219     1.007825032230
         H            2.928892578338     0.453276801992     0.875065401781     1.007825032230
         H            2.915742578338     0.465585801992    -0.888825598219     1.007825032230
         H            2.931001578338    -1.080580198008    -0.017644598219     1.007825032230
         H           -1.622402421662     2.138385801992    -0.005347598219     1.007825032230

  Basis Set: AUG-CC-PVTZ
    Blend: AUG-CC-PVTZ
  Basis Set: (AUG-CC-PVTZ AUX)
    Blend: AUG-CC-PVTZ-JKFIT
	 Reference Energy          =    -306.7895985492198179 [Eh]
	 Singles Energy            =      -0.0000000000000000 [Eh]
	 Same-Spin Energy          =      -0.3156137386593286 [Eh]
	 Opposite-Spin Energy      =      -1.0408274668864492 [Eh]
	 Correlation Energy        =      -1.3564412055457780 [Eh]
	 Total Energy              =    -308.1460397547655816 [Eh]

	 ================> DF-SCS-MP2 Energies <==================
	-----------------------------------------------------------
	 SCS Same-Spin Scale       =       0.3333333333333333 [-]
	 SCS Opposite-Spin Scale   =       1.2000000000000000 [-]
	 SCS Same-Spin Energy      =      -0.1052045795531095 [Eh]
	 SCS Opposite-Spin Energy  =      -1.2489929602637391 [Eh]
	 SCS Correlation Energy    =      -1.3541975398168486 [Eh]
	 SCS Total Energy          =    -308.1437960890366412 [Eh]
	-----------------------------------------------------------

  Dipole Moment: [D]
     X:     0.9051      Y:    -0.5208      Z:    -0.0046     Total:     1.0443

*** Psi4 exiting successfully. Buy a developer a beer!
