                               Psi4 1.3.2 release

  ==> Input File <==

--------------------------------------------------------------------------
#psi4
#
memory 32 gb

molecule  {
0 1
  O       -1.8720150     0.1455040    -0.0239620
  C        0.9797650    -0.0480790     0.0033120
  C       -1.2654920    -1.1739550     0.0157300
  C        0.2371350    -1.1840010    -0.0022480
  C        0.2779850     1.2351350     0.0170580
  C        2.4810890    -0.0479420    -0.0086670
  C       -1.0722470     1.2493700    -0.0013870
  H       -1.6715710    -1.7194360    -0.8464940
  H       -1.6521540    -1.6671500     0.9188080
  H        0.7071820    -2.1662500    -0.0128270
  H        0.8222450     2.1733070     0.0302890
  H        2.8758370     0.4671910     0.8740370
  H        2.8626870     0.4795000    -0.8898540
  H        2.8779460    -1.0666660    -0.0186730
  H       -1.6762280     2.1519373     0.0436168
units angstrom
no_reorient  #important for SAPT in psi4, default
symmetry c1  #important for SAPT in psi4, default
}

set PROPERTIES_ORIGIN ["COM"]
properties('MP2/aug-cc-pvtz', properties = ['dipole'])
--------------------------------------------------------------------------

    Molecular point group: c1
  Charge       = 0
  Multiplicity = 1
  Basis Set: AUG-CC-PVTZ
    Blend: AUG-CC-PVTZ
  Basis Set: (AUG-CC-PVTZ AUX)
    Blend: AUG-CC-PVTZ-JKFIT

    Orbital Energies [Eh]
    ---------------------

    Doubly Occupied:

       1A    -20.583814     2A    -11.300184     3A    -11.291867
       4A    -11.246808     5A    -11.226495     6A    -11.226124
       7A    -11.218269     8A     -1.398820     9A     -1.106022
      10A     -1.034698    11A     -0.971990    12A     -0.876221
      13A     -0.827094    14A     -0.693885    15A     -0.673620
      16A     -0.657871    17A     -0.649444    18A     -0.585749
      19A     -0.572883    20A     -0.557686    21A     -0.552467
      22A     -0.511444    23A     -0.503736    24A     -0.469328
      25A     -0.410209    26A     -0.285511

  @DF-RHF Final Energy:  -306.78959927099902

   => Energetics <=

    Nuclear Repulsion Energy =            288.5299572190726280
    One-Electron Energy =                -987.7746360268390617
    Two-Electron Energy =                 392.4550795367673572
    Total Energy =                       -306.7895992709990196
  Basis Set: (AUG-CC-PVTZ AUX)
    Blend: AUG-CC-PVTZ-RI
    Molecular point group: c1

    Geometry (in Angstrom), charge = 0, multiplicity = 1:

       Center              X                  Y                   Z               Mass
    ------------   -----------------  -----------------  -----------------  -----------------
         O           -1.818945868237     0.131600365228    -0.023982639442    15.994914619570
         C            1.032834131763    -0.061982634772     0.003291360558    12.000000000000
         C           -1.212422868237    -1.187858634772     0.015709360558    12.000000000000
         C            0.290204131763    -1.197904634772    -0.002268639442    12.000000000000
         C            0.331054131763     1.221231365228     0.017037360558    12.000000000000
         C            2.534158131763    -0.061845634772    -0.008687639442    12.000000000000
         C           -1.019177868237     1.235466365228    -0.001407639442    12.000000000000
         H           -1.618501868237    -1.733339634772    -0.846514639442     1.007825032230
         H           -1.599084868237    -1.681053634772     0.918787360558     1.007825032230
         H            0.760251131763    -2.180153634772    -0.012847639442     1.007825032230
         H            0.875314131763     2.159403365228     0.030268360558     1.007825032230
         H            2.928906131763     0.453287365228     0.874016360558     1.007825032230
         H            2.915756131763     0.465596365228    -0.889874639442     1.007825032230
         H            2.931015131763    -1.080569634772    -0.018693639442     1.007825032230
         H           -1.623158868237     2.138033665228     0.043596160558     1.007825032230

  Basis Set: AUG-CC-PVTZ
    Blend: AUG-CC-PVTZ
  Basis Set: (AUG-CC-PVTZ AUX)
    Blend: AUG-CC-PVTZ-JKFIT
	 Reference Energy          =    -306.7895992709990196 [Eh]
	 Singles Energy            =      -0.0000000000000000 [Eh]
	 Same-Spin Energy          =      -0.3156094302292982 [Eh]
	 Opposite-Spin Energy      =      -1.0408285925936942 [Eh]
	 Correlation Energy        =      -1.3564380228229924 [Eh]
	 Total Energy              =    -308.1460372938220189 [Eh]

	 ================> DF-SCS-MP2 Energies <==================
	-----------------------------------------------------------
	 SCS Same-Spin Scale       =       0.3333333333333333 [-]
	 SCS Opposite-Spin Scale   =       1.2000000000000000 [-]
	 SCS Same-Spin Energy      =      -0.1052031434097661 [Eh]
	 SCS Opposite-Spin Energy  =      -1.2489943111124331 [Eh]
	 SCS Correlation Energy    =      -1.3541974545221991 [Eh]
	 SCS Total Energy          =    -308.1437967255212129 [Eh]
	-----------------------------------------------------------

  Dipole Moment: [D]
     X:     0.9091      Y:    -0.5213      Z:     0.0656     Total:     1.0500

*** Psi4 exiting successfully. Buy a developer a beer!
