                               Psi4 1.3.2 release

  ==> Input File <==

--------------------------------------------------------------------------
#psi4
#
memory 32 gb

molecule  {
0 1
  O       -1.8720150     0.1455040    -0.0239620
  C        0.9797650    -0.0480790     0.0033120
  C       -1.2654920    -1.1739550     0.0157300
  C        0.2371350    -1.1840010    -0.0022480
  C        0.2779850     1.2351350     0.0170580
  C        2.4810890    -0.0479420    -0.0086670
  C       -1.0722470     1.2493700    -0.0013870
  H       -1.6715710    -1.7194360    -0.8464940
  H       -1.6521540    -1.6671500     0.9188080
  H        0.7071820    -2.1662500    -0.0128270
  H        0.8222450     2.1733070     0.0302890
  H        2.8758370     0.4671910     0.8740370
  H        2.8626870     0.4795000    -0.8898540
  H        2.8779460    -1.0666660    -0.0186730
  H       -1.6754580     2.1523000    -0.0063760
units angstrom
no_reorient  #important for SAPT in psi4, default
symmetry c1  #important for SAPT in psi4, default
}

set PROPERTIES_ORIGIN ["COM"]
properties('MP2/aug-cc-pvtz', properties = ['dipole'])
--------------------------------------------------------------------------

    Molecular point group: c1
  Charge       = 0
  Multiplicity = 1
  Basis Set: AUG-CC-PVTZ
    Blend: AUG-CC-PVTZ
  Basis Set: (AUG-CC-PVTZ AUX)
    Blend: AUG-CC-PVTZ-JKFIT

    Orbital Energies [Eh]
    ---------------------

    Doubly Occupied:

       1A    -20.583867     2A    -11.300126     3A    -11.291855
       4A    -11.246800     5A    -11.226451     6A    -11.226117
       7A    -11.218221     8A     -1.398853     9A     -1.106002
      10A     -1.034730    11A     -0.971982    12A     -0.876215
      13A     -0.827194    14A     -0.693987    15A     -0.673595
      16A     -0.657658    17A     -0.649747    18A     -0.585816
      19A     -0.572873    20A     -0.557688    21A     -0.552445
      22A     -0.511188    23A     -0.503984    24A     -0.469477
      25A     -0.410183    26A     -0.285477

  @DF-RHF Final Energy:  -306.78973973654553

   => Energetics <=

    Nuclear Repulsion Energy =            288.5341477835881960
    One-Electron Energy =                -987.7827214334038217
    Two-Electron Energy =                 392.4588339132700980
    Total Energy =                       -306.7897397365455276
  Basis Set: (AUG-CC-PVTZ AUX)
    Blend: AUG-CC-PVTZ-RI
    Molecular point group: c1

    Geometry (in Angstrom), charge = 0, multiplicity = 1:

       Center              X                  Y                   Z               Mass
    ------------   -----------------  -----------------  -----------------  -----------------
         O           -1.818953946993     0.131596559819    -0.023458120404    15.994914619570
         C            1.032826053007    -0.061986440181     0.003815879596    12.000000000000
         C           -1.212430946993    -1.187862440181     0.016233879596    12.000000000000
         C            0.290196053007    -1.197908440181    -0.001744120404    12.000000000000
         C            0.331046053007     1.221227559819     0.017561879596    12.000000000000
         C            2.534150053007    -0.061849440181    -0.008163120404    12.000000000000
         C           -1.019185946993     1.235462559819    -0.000883120404    12.000000000000
         H           -1.618509946993    -1.733343440181    -0.845990120404     1.007825032230
         H           -1.599092946993    -1.681057440181     0.919311879596     1.007825032230
         H            0.760243053007    -2.180157440181    -0.012323120404     1.007825032230
         H            0.875306053007     2.159399559819     0.030792879596     1.007825032230
         H            2.928898053007     0.453283559819     0.874540879596     1.007825032230
         H            2.915748053007     0.465592559819    -0.889350120404     1.007825032230
         H            2.931007053007    -1.080573440181    -0.018169120404     1.007825032230
         H           -1.622396946993     2.138392559819    -0.005872120404     1.007825032230

  Basis Set: AUG-CC-PVTZ
    Blend: AUG-CC-PVTZ
  Basis Set: (AUG-CC-PVTZ AUX)
    Blend: AUG-CC-PVTZ-JKFIT
	 Reference Energy          =    -306.7897397365455276 [Eh]
	 Singles Energy            =      -0.0000000000000000 [Eh]
	 Same-Spin Energy          =      -0.3156046387927067 [Eh]
	 Opposite-Spin Energy      =      -1.0408112751657463 [Eh]
	 Correlation Energy        =      -1.3564159139584531 [Eh]
	 Total Energy              =    -308.1461556505039994 [Eh]

	 ================> DF-SCS-MP2 Energies <==================
	-----------------------------------------------------------
	 SCS Same-Spin Scale       =       0.3333333333333333 [-]
	 SCS Opposite-Spin Scale   =       1.2000000000000000 [-]
	 SCS Same-Spin Energy      =      -0.1052015462642356 [Eh]
	 SCS Opposite-Spin Energy  =      -1.2489735301988956 [Eh]
	 SCS Correlation Energy    =      -1.3541750764631311 [Eh]
	 SCS Total Energy          =    -308.1439148130086778 [Eh]
	-----------------------------------------------------------

  Dipole Moment: [D]
     X:     0.9073      Y:    -0.5193      Z:     0.0326     Total:     1.0458

*** Psi4 exiting successfully. Buy a developer a beer!
