                               Psi4 1.3.2 release

  ==> Input File <==

--------------------------------------------------------------------------
#psi4
#
memory 32 gb

molecule  {
0 1
  O       -1.8720150     0.1455040    -0.0239620
  C        0.9797650    -0.0480790     0.0033120
  C       -1.2654920    -1.1739550     0.0157300
  C        0.2371350    -1.1840010    -0.0022480
  C        0.2779850     1.2351350     0.0170580
  C        2.4810890    -0.0479420    -0.0086670
  C       -1.0722470     1.2493700    -0.0013870
  H       -1.6715710    -1.7194360    -0.8464940
  H       -1.6521540    -1.6671500     0.9188080
  H        0.7071820    -2.1662500    -0.0128270
  H        0.8222450     2.1733070     0.0302890
  H        2.8758370     0.4671910     0.8740370
  H        2.8626870     0.4795000    -0.8898540
  H        2.8779460    -1.0666660    -0.0186730
  H       -1.6785380     2.1508493     0.1935950
units angstrom
no_reorient  #important for SAPT in psi4, default
symmetry c1  #important for SAPT in psi4, default
}

set PROPERTIES_ORIGIN ["COM"]
properties('MP2/aug-cc-pvtz', properties = ['dipole'])
--------------------------------------------------------------------------

    Molecular point group: c1
  Charge       = 0
  Multiplicity = 1
  Basis Set: AUG-CC-PVTZ
    Blend: AUG-CC-PVTZ
  Basis Set: (AUG-CC-PVTZ AUX)
    Blend: AUG-CC-PVTZ-JKFIT

    Orbital Energies [Eh]
    ---------------------

    Doubly Occupied:

       1A    -20.583490     2A    -11.301411     3A    -11.291962
       4A    -11.247020     5A    -11.226974     6A    -11.226300
       7A    -11.218924     8A     -1.398598     9A     -1.106320
      10A     -1.034301    11A     -0.972143    12A     -0.876353
      13A     -0.825580    14A     -0.692527    15A     -0.673725
      16A     -0.658313    17A     -0.648071    18A     -0.584426
      19A     -0.573069    20A     -0.557627    21A     -0.552733
      22A     -0.512917    23A     -0.501917    24A     -0.468281
      25A     -0.410337    26A     -0.285742

  @DF-RHF Final Energy:  -306.78721426540727

   => Energetics <=

    Nuclear Repulsion Energy =            288.4643110062407345
    One-Electron Energy =                -987.6449325159002228
    Two-Electron Energy =                 392.3934072442521597
    Total Energy =                       -306.7872142654072718
  Basis Set: (AUG-CC-PVTZ AUX)
    Blend: AUG-CC-PVTZ-RI
    Molecular point group: c1

    Geometry (in Angstrom), charge = 0, multiplicity = 1:

       Center              X                  Y                   Z               Mass
    ------------   -----------------  -----------------  -----------------  -----------------
         O           -1.818921631967     0.131611780406    -0.025556194457    15.994914619570
         C            1.032858368033    -0.061971219594     0.001717805543    12.000000000000
         C           -1.212398631967    -1.187847219594     0.014135805543    12.000000000000
         C            0.290228368033    -1.197893219594    -0.003842194457    12.000000000000
         C            0.331078368033     1.221242780406     0.015463805543    12.000000000000
         C            2.534182368033    -0.061834219594    -0.010261194457    12.000000000000
         C           -1.019153631967     1.235477780406    -0.002981194457    12.000000000000
         H           -1.618477631967    -1.733328219594    -0.848088194457     1.007825032230
         H           -1.599060631967    -1.681042219594     0.917213805543     1.007825032230
         H            0.760275368033    -2.180142219594    -0.014421194457     1.007825032230
         H            0.875338368033     2.159414780406     0.028694805543     1.007825032230
         H            2.928930368033     0.453298780406     0.872442805543     1.007825032230
         H            2.915780368033     0.465607780406    -0.891448194457     1.007825032230
         H            2.931039368033    -1.080558219594    -0.020267194457     1.007825032230
         H           -1.625444631967     2.136957080406     0.192000805543     1.007825032230

  Basis Set: AUG-CC-PVTZ
    Blend: AUG-CC-PVTZ
  Basis Set: (AUG-CC-PVTZ AUX)
    Blend: AUG-CC-PVTZ-JKFIT
	 Reference Energy          =    -306.7872142654072718 [Eh]
	 Singles Energy            =      -0.0000000000000000 [Eh]
	 Same-Spin Energy          =      -0.3157510718582803 [Eh]
	 Opposite-Spin Energy      =      -1.0411748111758521 [Eh]
	 Correlation Energy        =      -1.3569258830341324 [Eh]
	 Total Energy              =    -308.1441401484414087 [Eh]

	 ================> DF-SCS-MP2 Energies <==================
	-----------------------------------------------------------
	 SCS Same-Spin Scale       =       0.3333333333333333 [-]
	 SCS Opposite-Spin Scale   =       1.2000000000000000 [-]
	 SCS Same-Spin Energy      =      -0.1052503572860934 [Eh]
	 SCS Opposite-Spin Energy  =      -1.2494097734110226 [Eh]
	 SCS Correlation Energy    =      -1.3546601306971160 [Eh]
	 SCS Total Energy          =    -308.1418743961044129 [Eh]
	-----------------------------------------------------------

  Dipole Moment: [D]
     X:     0.9372      Y:    -0.5452      Z:     0.1634     Total:     1.0965

*** Psi4 exiting successfully. Buy a developer a beer!
