                               Psi4 1.3.2 release

  ==> Input File <==

--------------------------------------------------------------------------
#psi4
#
memory 32 gb

molecule  {
0 1
  O       -1.8720150     0.1455040    -0.0239620
  C        0.9797650    -0.0480790     0.0033120
  C       -1.2654920    -1.1739550     0.0157300
  C        0.2371350    -1.1840010    -0.0022480
  C        0.2779850     1.2351350     0.0170580
  C        2.4810890    -0.0479420    -0.0086670
  C       -1.0722470     1.2493700    -0.0013870
  H       -1.6715710    -1.7194360    -0.8464940
  H       -1.6521540    -1.6671500     0.9188080
  H        0.7071820    -2.1662500    -0.0128270
  H        0.8222450     2.1733070     0.0302890
  H        2.8758370     0.4671910     0.8740370
  H        2.8626870     0.4795000    -0.8898540
  H        2.8779460    -1.0666660    -0.0186730
  H       -1.6793080     2.1504866     0.2435878
units angstrom
no_reorient  #important for SAPT in psi4, default
symmetry c1  #important for SAPT in psi4, default
}

set PROPERTIES_ORIGIN ["COM"]
properties('MP2/aug-cc-pvtz', properties = ['dipole'])
--------------------------------------------------------------------------

    Molecular point group: c1
  Charge       = 0
  Multiplicity = 1
  Basis Set: AUG-CC-PVTZ
    Blend: AUG-CC-PVTZ
  Basis Set: (AUG-CC-PVTZ AUX)
    Blend: AUG-CC-PVTZ-JKFIT

    Orbital Energies [Eh]
    ---------------------

    Doubly Occupied:

       1A    -20.583338     2A    -11.302158     3A    -11.292015
       4A    -11.247152     5A    -11.227245     6A    -11.226409
       7A    -11.219308     8A     -1.398490     9A     -1.106498
      10A     -1.034086    11A     -0.972237    12A     -0.876436
      13A     -0.824734    14A     -0.691802    15A     -0.673767
      16A     -0.658372    17A     -0.647484    18A     -0.583607
      19A     -0.573182    20A     -0.557586    21A     -0.552886
      22A     -0.513508    23A     -0.501110    24A     -0.467707
      25A     -0.410394    26A     -0.285863

  @DF-RHF Final Energy:  -306.78566253734135

   => Energetics <=

    Nuclear Repulsion Energy =            288.4257370775191589
    One-Electron Energy =                -987.5680471408853691
    Two-Electron Energy =                 392.3566475260249149
    Total Energy =                       -306.7856625373413522
  Basis Set: (AUG-CC-PVTZ AUX)
    Blend: AUG-CC-PVTZ-RI
    Molecular point group: c1

    Geometry (in Angstrom), charge = 0, multiplicity = 1:

       Center              X                  Y                   Z               Mass
    ------------   -----------------  -----------------  -----------------  -----------------
         O           -1.818913553210     0.131615585815    -0.026080713494    15.994914619570
         C            1.032866446790    -0.061967414185     0.001193286506    12.000000000000
         C           -1.212390553210    -1.187843414185     0.013611286506    12.000000000000
         C            0.290236446790    -1.197889414185    -0.004366713494    12.000000000000
         C            0.331086446790     1.221246585815     0.014939286506    12.000000000000
         C            2.534190446790    -0.061830414185    -0.010785713494    12.000000000000
         C           -1.019145553210     1.235481585815    -0.003505713494    12.000000000000
         H           -1.618469553210    -1.733324414185    -0.848612713494     1.007825032230
         H           -1.599052553210    -1.681038414185     0.916689286506     1.007825032230
         H            0.760283446790    -2.180138414185    -0.014945713494     1.007825032230
         H            0.875346446790     2.159418585815     0.028170286506     1.007825032230
         H            2.928938446790     0.453302585815     0.871918286506     1.007825032230
         H            2.915788446790     0.465611585815    -0.891972713494     1.007825032230
         H            2.931047446790    -1.080554414185    -0.020791713494     1.007825032230
         H           -1.626206553210     2.136598185815     0.241469086506     1.007825032230

  Basis Set: AUG-CC-PVTZ
    Blend: AUG-CC-PVTZ
  Basis Set: (AUG-CC-PVTZ AUX)
    Blend: AUG-CC-PVTZ-JKFIT
	 Reference Energy          =    -306.7856625373413522 [Eh]
	 Singles Energy            =      -0.0000000000000000 [Eh]
	 Same-Spin Energy          =      -0.3158393573411312 [Eh]
	 Opposite-Spin Energy      =      -1.0413961787212322 [Eh]
	 Correlation Energy        =      -1.3572355360623634 [Eh]
	 Total Energy              =    -308.1428980734037282 [Eh]

	 ================> DF-SCS-MP2 Energies <==================
	-----------------------------------------------------------
	 SCS Same-Spin Scale       =       0.3333333333333333 [-]
	 SCS Opposite-Spin Scale   =       1.2000000000000000 [-]
	 SCS Same-Spin Energy      =      -0.1052797857803771 [Eh]
	 SCS Opposite-Spin Energy  =      -1.2496754144654787 [Eh]
	 SCS Correlation Energy    =      -1.3549552002458558 [Eh]
	 SCS Total Energy          =    -308.1406177375872062 [Eh]
	-----------------------------------------------------------

  Dipole Moment: [D]
     X:     0.9537      Y:    -0.5591      Z:     0.1950     Total:     1.1225

*** Psi4 exiting successfully. Buy a developer a beer!
