                               Psi4 1.3.2 release

  ==> Input File <==

--------------------------------------------------------------------------
#psi4
#
memory 32 gb

molecule  {
0 1
  O       -1.8720150     0.1455040    -0.0239620
  C        0.9797650    -0.0480790     0.0033120
  C       -1.2654920    -1.1739550     0.0157300
  C        0.2371350    -1.1840010    -0.0022480
  C        0.2779850     1.2351350     0.0170580
  C        2.4810890    -0.0479420    -0.0086670
  C       -1.0722470     1.2493700    -0.0013870
  H       -1.6715710    -1.7194360    -0.8464940
  H       -1.6521540    -1.6671500     0.9188080
  H        0.7071820    -2.1662500    -0.0128270
  H        0.8222450     2.1733070     0.0302890
  H        2.8758370     0.4671910     0.8740370
  H        2.8626870     0.4795000    -0.8898540
  H        2.8779460    -1.0666660    -0.0186730
  H       -1.6777680     2.1512120     0.1436023
units angstrom
no_reorient  #important for SAPT in psi4, default
symmetry c1  #important for SAPT in psi4, default
}

set PROPERTIES_ORIGIN ["COM"]
properties('MP2/aug-cc-pvtz', properties = ['dipole'])
--------------------------------------------------------------------------

    Molecular point group: c1
  Charge       = 0
  Multiplicity = 1
  Basis Set: AUG-CC-PVTZ
    Blend: AUG-CC-PVTZ
  Basis Set: (AUG-CC-PVTZ AUX)
    Blend: AUG-CC-PVTZ-JKFIT

    Orbital Energies [Eh]
    ---------------------

    Doubly Occupied:

       1A    -20.583622     2A    -11.300830     3A    -11.291920
       4A    -11.246918     5A    -11.226758     6A    -11.226216
       7A    -11.218621     8A     -1.398691     9A     -1.106181
      10A     -1.034479    11A     -0.972071    12A     -0.876289
      13A     -0.826272    14A     -0.693136    15A     -0.673686
      16A     -0.658206    17A     -0.648598    18A     -0.585055
      19A     -0.572981    20A     -0.557656    21A     -0.552612
      22A     -0.512354    23A     -0.502651    24A     -0.468736
      25A     -0.410287    26A     -0.285643

  @DF-RHF Final Energy:  -306.78836251076370

   => Energetics <=

    Nuclear Repulsion Energy =            288.4947935178581702
    One-Electron Energy =                -987.7053765704907846
    Two-Electron Energy =                 392.4222205418689100
    Total Energy =                       -306.7883625107637044
  Basis Set: (AUG-CC-PVTZ AUX)
    Blend: AUG-CC-PVTZ-RI
    Molecular point group: c1

    Geometry (in Angstrom), charge = 0, multiplicity = 1:

       Center              X                  Y                   Z               Mass
    ------------   -----------------  -----------------  -----------------  -----------------
         O           -1.818929710723     0.131607974997    -0.025031676468    15.994914619570
         C            1.032850289277    -0.061975025003     0.002242323532    12.000000000000
         C           -1.212406710723    -1.187851025003     0.014660323532    12.000000000000
         C            0.290220289277    -1.197897025003    -0.003317676468    12.000000000000
         C            0.331070289277     1.221238974997     0.015988323532    12.000000000000
         C            2.534174289277    -0.061838025003    -0.009736676468    12.000000000000
         C           -1.019161710723     1.235473974997    -0.002456676468    12.000000000000
         H           -1.618485710723    -1.733332025003    -0.847563676468     1.007825032230
         H           -1.599068710723    -1.681046025003     0.917738323532     1.007825032230
         H            0.760267289277    -2.180146025003    -0.013896676468     1.007825032230
         H            0.875330289277     2.159410974997     0.029219323532     1.007825032230
         H            2.928922289277     0.453294974997     0.872967323532     1.007825032230
         H            2.915772289277     0.465603974997    -0.890923676468     1.007825032230
         H            2.931031289277    -1.080562025003    -0.019742676468     1.007825032230
         H           -1.624682710723     2.137315974997     0.142532623532     1.007825032230

  Basis Set: AUG-CC-PVTZ
    Blend: AUG-CC-PVTZ
  Basis Set: (AUG-CC-PVTZ AUX)
    Blend: AUG-CC-PVTZ-JKFIT
	 Reference Energy          =    -306.7883625107637044 [Eh]
	 Singles Energy            =      -0.0000000000000000 [Eh]
	 Same-Spin Energy          =      -0.3156829442163235 [Eh]
	 Opposite-Spin Energy      =      -1.0410078635187809 [Eh]
	 Correlation Energy        =      -1.3566908077351045 [Eh]
	 Total Energy              =    -308.1450533184988103 [Eh]

	 ================> DF-SCS-MP2 Energies <==================
	-----------------------------------------------------------
	 SCS Same-Spin Scale       =       0.3333333333333333 [-]
	 SCS Opposite-Spin Scale   =       1.2000000000000000 [-]
	 SCS Same-Spin Energy      =      -0.1052276480721078 [Eh]
	 SCS Opposite-Spin Energy  =      -1.2492094362225370 [Eh]
	 SCS Correlation Energy    =      -1.3544370842946449 [Eh]
	 SCS Total Energy          =    -308.1427995950583636 [Eh]
	-----------------------------------------------------------

  Dipole Moment: [D]
     X:     0.9242      Y:    -0.5343      Z:     0.1312     Total:     1.0755

*** Psi4 exiting successfully. Buy a developer a beer!
