                               Psi4 1.3.2 release

  ==> Input File <==

--------------------------------------------------------------------------
#psi4
#
memory 32 gb

molecule  {
0 1
  O       -1.8720150     0.1455040    -0.0239620
  C        0.9797650    -0.0480790     0.0033120
  C       -1.2654920    -1.1739550     0.0157300
  C        0.2371350    -1.1840010    -0.0022480
  C        0.2779850     1.2351350     0.0170580
  C        2.4810890    -0.0479420    -0.0086670
  C       -1.0722470     1.2493700    -0.0013870
  H       -1.6715710    -1.7194360    -0.8464940
  H       -1.6521540    -1.6671500     0.9188080
  H        0.7071820    -2.1662500    -0.0128270
  H        0.8222450     2.1733070     0.0302890
  H        2.8758370     0.4671910     0.8740370
  H        2.8626870     0.4795000    -0.8898540
  H        2.8779460    -1.0666660    -0.0186730
  H       -1.6769980     2.1515746     0.0936095
units angstrom
no_reorient  #important for SAPT in psi4, default
symmetry c1  #important for SAPT in psi4, default
}

set PROPERTIES_ORIGIN ["COM"]
properties('MP2/aug-cc-pvtz', properties = ['dipole'])
--------------------------------------------------------------------------

    Molecular point group: c1
  Charge       = 0
  Multiplicity = 1
  Basis Set: AUG-CC-PVTZ
    Blend: AUG-CC-PVTZ
  Basis Set: (AUG-CC-PVTZ AUX)
    Blend: AUG-CC-PVTZ-JKFIT

    Orbital Energies [Eh]
    ---------------------

    Doubly Occupied:

       1A    -20.583732     2A    -11.300419     3A    -11.291889
       4A    -11.246847     5A    -11.226598     6A    -11.226158
       7A    -11.218402     8A     -1.398766     9A     -1.106082
      10A     -1.034613    11A     -0.972020    12A     -0.876246
      13A     -0.826783    14A     -0.693597    15A     -0.673650
      16A     -0.658056    17A     -0.649058    18A     -0.585496
      19A     -0.572919    20A     -0.557675    21A     -0.552523
      22A     -0.511850    23A     -0.503273    24A     -0.469082
      25A     -0.410244    26A     -0.285566

  @DF-RHF Final Energy:  -306.78914694508472

   => Energetics <=

    Nuclear Repulsion Energy =            288.5167772473641321
    One-Electron Energy =                -987.7487631447129388
    Two-Electron Energy =                 392.4428389522640259
    Total Energy =                       -306.7891469450847239
  Basis Set: (AUG-CC-PVTZ AUX)
    Blend: AUG-CC-PVTZ-RI
    Molecular point group: c1

    Geometry (in Angstrom), charge = 0, multiplicity = 1:

       Center              X                  Y                   Z               Mass
    ------------   -----------------  -----------------  -----------------  -----------------
         O           -1.818937789480     0.131604170637    -0.024507157430    15.994914619570
         C            1.032842210520    -0.061978829363     0.002766842570    12.000000000000
         C           -1.212414789480    -1.187854829363     0.015184842570    12.000000000000
         C            0.290212210520    -1.197900829363    -0.002793157430    12.000000000000
         C            0.331062210520     1.221235170637     0.016512842570    12.000000000000
         C            2.534166210520    -0.061841829363    -0.009212157430    12.000000000000
         C           -1.019169789480     1.235470170637    -0.001932157430    12.000000000000
         H           -1.618493789480    -1.733335829363    -0.847039157430     1.007825032230
         H           -1.599076789480    -1.681049829363     0.918262842570     1.007825032230
         H            0.760259210520    -2.180149829363    -0.013372157430     1.007825032230
         H            0.875322210520     2.159407170637     0.029743842570     1.007825032230
         H            2.928914210520     0.453291170637     0.873491842570     1.007825032230
         H            2.915764210520     0.465600170637    -0.890399157430     1.007825032230
         H            2.931023210520    -1.080565829363    -0.019218157430     1.007825032230
         H           -1.623920789480     2.137674770637     0.093064342570     1.007825032230

  Basis Set: AUG-CC-PVTZ
    Blend: AUG-CC-PVTZ
  Basis Set: (AUG-CC-PVTZ AUX)
    Blend: AUG-CC-PVTZ-JKFIT
	 Reference Energy          =    -306.7891469450847239 [Eh]
	 Singles Energy            =      -0.0000000000000000 [Eh]
	 Same-Spin Energy          =      -0.3156355971437703 [Eh]
	 Opposite-Spin Energy      =      -1.0408933410865355 [Eh]
	 Correlation Energy        =      -1.3565289382303058 [Eh]
	 Total Energy              =    -308.1456758833150502 [Eh]

	 ================> DF-SCS-MP2 Energies <==================
	-----------------------------------------------------------
	 SCS Same-Spin Scale       =       0.3333333333333333 [-]
	 SCS Opposite-Spin Scale   =       1.2000000000000000 [-]
	 SCS Same-Spin Energy      =      -0.1052118657145901 [Eh]
	 SCS Opposite-Spin Energy  =      -1.2490720093038425 [Eh]
	 SCS Correlation Energy    =      -1.3542838750184327 [Eh]
	 SCS Total Energy          =    -308.1434308201031627 [Eh]
	-----------------------------------------------------------

  Dipole Moment: [D]
     X:     0.9147      Y:    -0.5263      Z:     0.0986     Total:     1.0599

*** Psi4 exiting successfully. Buy a developer a beer!
