                               Psi4 1.3.2 release

  ==> Input File <==

--------------------------------------------------------------------------
#psi4
#
memory 32 gb

molecule  {
0 1
  O       -1.8720150     0.1455040    -0.0239620
  C        0.9797650    -0.0480790     0.0033120
  C       -1.2654920    -1.1739550     0.0157300
  C        0.2371350    -1.1840010    -0.0022480
  C        0.2779850     1.2351350     0.0170580
  C        2.4810890    -0.0479420    -0.0086670
  C       -1.0722470     1.2493700    -0.0013870
  H       -1.6715710    -1.7194360    -0.8464940
  H       -1.6521540    -1.6671500     0.9188080
  H        0.7071820    -2.1662500    -0.0128270
  H        0.8232885     2.1745953    -0.0696973
  H        2.8758370     0.4671910     0.8740370
  H        2.8626870     0.4795000    -0.8898540
  H        2.8779460    -1.0666660    -0.0186730
  H       -1.6754580     2.1523000    -0.0063760
units angstrom
no_reorient  #important for SAPT in psi4, default
symmetry c1  #important for SAPT in psi4, default
}

set PROPERTIES_ORIGIN ["COM"]
properties('MP2/aug-cc-pvtz', properties = ['dipole'])
--------------------------------------------------------------------------

    Molecular point group: c1
  Charge       = 0
  Multiplicity = 1
  Basis Set: AUG-CC-PVTZ
    Blend: AUG-CC-PVTZ
  Basis Set: (AUG-CC-PVTZ AUX)
    Blend: AUG-CC-PVTZ-JKFIT

    Orbital Energies [Eh]
    ---------------------

    Doubly Occupied:

       1A    -20.584074     2A    -11.300398     3A    -11.291929
       4A    -11.246801     5A    -11.226447     6A    -11.226076
       7A    -11.218630     8A     -1.399030     9A     -1.105969
      10A     -1.034749    11A     -0.971964    12A     -0.876083
      13A     -0.827219    14A     -0.693751    15A     -0.673546
      16A     -0.657548    17A     -0.649469    18A     -0.585807
      19A     -0.572893    20A     -0.557709    21A     -0.552016
      22A     -0.511515    23A     -0.503447    24A     -0.469572
      25A     -0.410081    26A     -0.285549

  @DF-RHF Final Energy:  -306.78918988230919

   => Energetics <=

    Nuclear Repulsion Energy =            288.5152631900452320
    One-Electron Energy =                -987.7443582709461225
    Two-Electron Energy =                 392.4399051985916458
    Total Energy =                       -306.7891898823091879
  Basis Set: (AUG-CC-PVTZ AUX)
    Blend: AUG-CC-PVTZ-RI
    Molecular point group: c1

    Geometry (in Angstrom), charge = 0, multiplicity = 1:

       Center              X                  Y                   Z               Mass
    ------------   -----------------  -----------------  -----------------  -----------------
         O           -1.818964895282     0.131583043115    -0.022409074984    15.994914619570
         C            1.032815104718    -0.061999956885     0.004864925016    12.000000000000
         C           -1.212441895282    -1.187875956885     0.017282925016    12.000000000000
         C            0.290185104718    -1.197921956885    -0.000695074984    12.000000000000
         C            0.331035104718     1.221214043115     0.018610925016    12.000000000000
         C            2.534139104718    -0.061862956885    -0.007114074984    12.000000000000
         C           -1.019196895282     1.235449043115     0.000165925016    12.000000000000
         H           -1.618520895282    -1.733356956885    -0.844941074984     1.007825032230
         H           -1.599103895282    -1.681070956885     0.920360925016     1.007825032230
         H            0.760232104718    -2.180170956885    -0.011274074984     1.007825032230
         H            0.876338604718     2.160674343115    -0.068144374984     1.007825032230
         H            2.928887104718     0.453270043115     0.875589925016     1.007825032230
         H            2.915737104718     0.465579043115    -0.888301074984     1.007825032230
         H            2.930996104718    -1.080586956885    -0.017120074984     1.007825032230
         H           -1.622407895282     2.138379043115    -0.004823074984     1.007825032230

  Basis Set: AUG-CC-PVTZ
    Blend: AUG-CC-PVTZ
  Basis Set: (AUG-CC-PVTZ AUX)
    Blend: AUG-CC-PVTZ-JKFIT
	 Reference Energy          =    -306.7891898823091879 [Eh]
	 Singles Energy            =      -0.0000000000000000 [Eh]
	 Same-Spin Energy          =      -0.3156367793826955 [Eh]
	 Opposite-Spin Energy      =      -1.0408715449705559 [Eh]
	 Correlation Energy        =      -1.3565083243532514 [Eh]
	 Total Energy              =    -308.1456982066624164 [Eh]

	 ================> DF-SCS-MP2 Energies <==================
	-----------------------------------------------------------
	 SCS Same-Spin Scale       =       0.3333333333333333 [-]
	 SCS Opposite-Spin Scale   =       1.2000000000000000 [-]
	 SCS Same-Spin Energy      =      -0.1052122597942318 [Eh]
	 SCS Opposite-Spin Energy  =      -1.2490458539646669 [Eh]
	 SCS Correlation Energy    =      -1.3542581137588987 [Eh]
	 SCS Total Energy          =    -308.1434479960680619 [Eh]
	-----------------------------------------------------------

  Dipole Moment: [D]
     X:     0.8996      Y:    -0.5259      Z:    -0.0416     Total:     1.0429

*** Psi4 exiting successfully. Buy a developer a beer!
