                               Psi4 1.3.2 release

  ==> Input File <==

--------------------------------------------------------------------------
#psi4
#
memory 32 gb

molecule  {
0 1
  O       -1.8720150     0.1455040    -0.0239620
  C        0.9797650    -0.0480790     0.0033120
  C       -1.2654920    -1.1739550     0.0157300
  C        0.2371350    -1.1840010    -0.0022480
  C        0.2779850     1.2351350     0.0170580
  C        2.4810890    -0.0479420    -0.0086670
  C       -1.0722470     1.2493700    -0.0013870
  H       -1.6715710    -1.7194360    -0.8464940
  H       -1.6521540    -1.6671500     0.9188080
  H        0.7071820    -2.1662500    -0.0128270
  H        0.8238103     2.1752394    -0.1196904
  H        2.8758370     0.4671910     0.8740370
  H        2.8626870     0.4795000    -0.8898540
  H        2.8779460    -1.0666660    -0.0186730
  H       -1.6754580     2.1523000    -0.0063760
units angstrom
no_reorient  #important for SAPT in psi4, default
symmetry c1  #important for SAPT in psi4, default
}

set PROPERTIES_ORIGIN ["COM"]
properties('MP2/aug-cc-pvtz', properties = ['dipole'])
--------------------------------------------------------------------------

    Molecular point group: c1
  Charge       = 0
  Multiplicity = 1
  Basis Set: AUG-CC-PVTZ
    Blend: AUG-CC-PVTZ
  Basis Set: (AUG-CC-PVTZ AUX)
    Blend: AUG-CC-PVTZ-JKFIT

    Orbital Energies [Eh]
    ---------------------

    Doubly Occupied:

       1A    -20.584302     2A    -11.300704     3A    -11.292015
       4A    -11.246800     5A    -11.226459     6A    -11.226027
       7A    -11.219116     8A     -1.399226     9A     -1.105930
      10A     -1.034765    11A     -0.971942    12A     -0.875928
      13A     -0.827248    14A     -0.693482    15A     -0.673480
      16A     -0.657296    17A     -0.649311    18A     -0.585809
      19A     -0.572897    20A     -0.557731    21A     -0.551484
      22A     -0.511800    23A     -0.502948    24A     -0.469666
      25A     -0.409913    26A     -0.285638

  @DF-RHF Final Energy:  -306.78849046369589

   => Energetics <=

    Nuclear Repulsion Energy =            288.4926544453140878
    One-Electron Energy =                -987.6984517627095101
    Two-Electron Energy =                 392.4173068536995288
    Total Energy =                       -306.7884904636958936
  Basis Set: (AUG-CC-PVTZ AUX)
    Blend: AUG-CC-PVTZ-RI
    Molecular point group: c1

    Geometry (in Angstrom), charge = 0, multiplicity = 1:

       Center              X                  Y                   Z               Mass
    ------------   -----------------  -----------------  -----------------  -----------------
         O           -1.818970369951     0.131576285288    -0.021884552799    15.994914619570
         C            1.032809630049    -0.062006714712     0.005389447201    12.000000000000
         C           -1.212447369951    -1.187882714712     0.017807447201    12.000000000000
         C            0.290179630049    -1.197928714712    -0.000170552799    12.000000000000
         C            0.331029630049     1.221207285288     0.019135447201    12.000000000000
         C            2.534133630049    -0.061869714712    -0.006589552799    12.000000000000
         C           -1.019202369951     1.235442285288     0.000690447201    12.000000000000
         H           -1.618526369951    -1.733363714712    -0.844416552799     1.007825032230
         H           -1.599109369951    -1.681077714712     0.920885447201     1.007825032230
         H            0.760226630049    -2.180177714712    -0.010749552799     1.007825032230
         H            0.876854930049     2.161311685288    -0.117612952799     1.007825032230
         H            2.928881630049     0.453263285288     0.876114447201     1.007825032230
         H            2.915731630049     0.465572285288    -0.887776552799     1.007825032230
         H            2.930990630049    -1.080593714712    -0.016595552799     1.007825032230
         H           -1.622413369951     2.138372285288    -0.004298552799     1.007825032230

  Basis Set: AUG-CC-PVTZ
    Blend: AUG-CC-PVTZ
  Basis Set: (AUG-CC-PVTZ AUX)
    Blend: AUG-CC-PVTZ-JKFIT
	 Reference Energy          =    -306.7884904636958936 [Eh]
	 Singles Energy            =      -0.0000000000000000 [Eh]
	 Same-Spin Energy          =      -0.3156736589868910 [Eh]
	 Opposite-Spin Energy      =      -1.0409479339131613 [Eh]
	 Correlation Energy        =      -1.3566215929000522 [Eh]
	 Total Energy              =    -308.1451120565959627 [Eh]

	 ================> DF-SCS-MP2 Energies <==================
	-----------------------------------------------------------
	 SCS Same-Spin Scale       =       0.3333333333333333 [-]
	 SCS Opposite-Spin Scale   =       1.2000000000000000 [-]
	 SCS Same-Spin Energy      =      -0.1052245529956303 [Eh]
	 SCS Opposite-Spin Energy  =      -1.2491375206957935 [Eh]
	 SCS Correlation Energy    =      -1.3543620736914239 [Eh]
	 SCS Total Energy          =    -308.1428525373873413 [Eh]
	-----------------------------------------------------------

  Dipole Moment: [D]
     X:     0.8907      Y:    -0.5346      Z:    -0.0782     Total:     1.0417

*** Psi4 exiting successfully. Buy a developer a beer!
