                               Psi4 1.3.2 release

  ==> Input File <==

--------------------------------------------------------------------------
#psi4
#
memory 32 gb

molecule  {
0 1
  P        0.1362690    -0.1317073    -0.3571596
  O        1.2658980     0.7202100     0.4017270
  O       -0.5335540    -0.9159530     0.8701820
  O       -0.9626110     1.1157580    -0.6302230
  O        0.4465310    -0.8472510    -1.5565760
  C        2.4314377    -0.0944333     0.6623907
  C       -1.5478570    -1.8846230     0.5157310
  C       -1.3164940     2.0084280     0.4478740
  H        2.9076370    -0.4029020    -0.2303870
  H        2.2294240    -0.8677130     1.3606750
  H        3.1371140     0.6611440     1.1918470
  H       -2.3893800    -1.3915170     0.0214860
  H       -1.8772340    -2.3283310     1.4531950
  H       -1.1270350    -2.6465320    -0.1425260
  H       -1.6199920     1.4414800     1.3301320
  H       -2.1494040     2.6019710     0.0764460
  H       -0.4694080     2.6502780     0.6903180
units angstrom
no_reorient  #important for SAPT in psi4, default
symmetry c1  #important for SAPT in psi4, default
}

set PROPERTIES_ORIGIN ["COM"]
properties('MP2/aug-cc-pvtz', properties = ['dipole'])
--------------------------------------------------------------------------

    Molecular point group: c1
  Charge       = 0
  Multiplicity = 1
  Basis Set: AUG-CC-PVTZ
    Blend: AUG-CC-PVTZ
  Basis Set: (AUG-CC-PVTZ AUX)
    Blend: AUG-CC-PVTZ-JKFIT

    Orbital Energies [Eh]
    ---------------------

    Doubly Occupied:

       1A    -80.098443     2A    -20.600461     3A    -20.600437
       4A    -20.570932     5A    -20.521368     6A    -11.299956
       7A    -11.298544     8A    -11.281260     9A     -7.616205
      10A     -5.514433    11A     -5.514003    12A     -5.513406
      13A     -1.448320    14A     -1.387418    15A     -1.351701
      16A     -1.320345    17A     -0.978240    18A     -0.952546
      19A     -0.935666    20A     -0.787000    21A     -0.716621
      22A     -0.703828    23A     -0.681221    24A     -0.660067
      25A     -0.642487    26A     -0.628560    27A     -0.618490
      28A     -0.602299    29A     -0.589676    30A     -0.544018
      31A     -0.527774    32A     -0.513943    33A     -0.507352
      34A     -0.486058    35A     -0.481160    36A     -0.478476
      37A     -0.464246

  @DF-RHF Final Energy:  -759.29942659058952

   => Energetics <=

    Nuclear Repulsion Energy =            549.4726679012428576
    One-Electron Energy =               -2138.6702739068846313
    Two-Electron Energy =                 829.8981794150522546
    Total Energy =                       -759.2994265905895190
  Basis Set: (AUG-CC-PVTZ AUX)
    Blend: AUG-CC-PVTZ-RI
    Molecular point group: c1

    Geometry (in Angstrom), charge = 0, multiplicity = 1:

       Center              X                  Y                   Z               Mass
    ------------   -----------------  -----------------  -----------------  -----------------
         P            0.128298774544    -0.111371579363    -0.354388455812    30.973761998420
         O            1.257927774544     0.740545720637     0.404498144188    15.994914619570
         O           -0.541524225456    -0.895617279363     0.872953144188    15.994914619570
         O           -0.970581225456     1.136093720637    -0.627451855812    15.994914619570
         O            0.438560774544    -0.826915279363    -1.553804855812    15.994914619570
         C            2.423467474544    -0.074097579363     0.665161844188    12.000000000000
         C           -1.555827225456    -1.864287279363     0.518502144188    12.000000000000
         C           -1.324464225456     2.028763720637     0.450645144188    12.000000000000
         H            2.899666774544    -0.382566279363    -0.227615855812     1.007825032230
         H            2.221453774544    -0.847377279363     1.363446144188     1.007825032230
         H            3.129143774544     0.681479720637     1.194618144188     1.007825032230
         H           -2.397350225456    -1.371181279363     0.024257144188     1.007825032230
         H           -1.885204225456    -2.307995279363     1.455966144188     1.007825032230
         H           -1.135005225456    -2.626196279363    -0.139754855812     1.007825032230
         H           -1.627962225456     1.461815720637     1.332903144188     1.007825032230
         H           -2.157374225456     2.622306720637     0.079217144188     1.007825032230
         H           -0.477378225456     2.670613720637     0.693089144188     1.007825032230

  Basis Set: AUG-CC-PVTZ
    Blend: AUG-CC-PVTZ
  Basis Set: (AUG-CC-PVTZ AUX)
    Blend: AUG-CC-PVTZ-JKFIT
	 Reference Energy          =    -759.2994265905895190 [Eh]
	 Singles Energy            =      -0.0000000000000000 [Eh]
	 Same-Spin Energy          =      -0.4440351491955786 [Eh]
	 Opposite-Spin Energy      =      -1.3835023715036192 [Eh]
	 Correlation Energy        =      -1.8275375206991979 [Eh]
	 Total Energy              =    -761.1269641112887712 [Eh]

	 ================> DF-SCS-MP2 Energies <==================
	-----------------------------------------------------------
	 SCS Same-Spin Scale       =       0.3333333333333333 [-]
	 SCS Opposite-Spin Scale   =       1.2000000000000000 [-]
	 SCS Same-Spin Energy      =      -0.1480117163985262 [Eh]
	 SCS Opposite-Spin Energy  =      -1.6602028458043430 [Eh]
	 SCS Correlation Energy    =      -1.8082145622028691 [Eh]
	 SCS Total Energy          =    -761.1076411527924392 [Eh]
	-----------------------------------------------------------

  Dipole Moment: [D]
     X:    -0.3274      Y:    -0.3639      Z:     3.4017     Total:     3.4368

*** Psi4 exiting successfully. Buy a developer a beer!
