                               Psi4 1.3.2 release

  ==> Input File <==

--------------------------------------------------------------------------
#psi4
#
memory 32 gb

molecule  {
0 1
  P        0.0877380    -0.0630770    -0.3573080
  O        1.2658980     0.7202100     0.4017270
  O       -0.5478585    -0.8976702     0.8602523
  O       -0.9626110     1.1157580    -0.6302230
  O        0.4465310    -0.8472510    -1.5565760
  C        2.4637000    -0.0342890     0.6951100
  C       -1.5478570    -1.8846230     0.5157310
  C       -1.3164940     2.0084280     0.4478740
  H        2.9076370    -0.4029020    -0.2303870
  H        2.2294240    -0.8677130     1.3606750
  H        3.1371140     0.6611440     1.1918470
  H       -2.3804363    -1.3747614     0.0233434
  H       -1.8772340    -2.3283310     1.4531950
  H       -1.1270350    -2.6465320    -0.1425260
  H       -1.6199920     1.4414800     1.3301320
  H       -2.1494040     2.6019710     0.0764460
  H       -0.4694080     2.6502780     0.6903180
units angstrom
no_reorient  #important for SAPT in psi4, default
symmetry c1  #important for SAPT in psi4, default
}

set PROPERTIES_ORIGIN ["COM"]
properties('MP2/aug-cc-pvtz', properties = ['dipole'])
--------------------------------------------------------------------------

    Molecular point group: c1
  Charge       = 0
  Multiplicity = 1
  Basis Set: AUG-CC-PVTZ
    Blend: AUG-CC-PVTZ
  Basis Set: (AUG-CC-PVTZ AUX)
    Blend: AUG-CC-PVTZ-JKFIT

    Orbital Energies [Eh]
    ---------------------

    Doubly Occupied:

       1A    -80.097998     2A    -20.592830     3A    -20.592697
       4A    -20.590686     5A    -20.508094     6A    -11.296407
       7A    -11.294783     8A    -11.294593     9A     -7.614312
      10A     -5.512755    11A     -5.512499    12A     -5.511228
      13A     -1.448265    14A     -1.379662    15A     -1.377390
      16A     -1.289997    17A     -0.979714    18A     -0.954142
      19A     -0.947679    20A     -0.785326    21A     -0.714928
      22A     -0.711681    23A     -0.673358    24A     -0.664030
      25A     -0.649264    26A     -0.630133    27A     -0.619556
      28A     -0.613688    29A     -0.582741    30A     -0.540590
      31A     -0.528721    32A     -0.516051    33A     -0.498100
      34A     -0.492076    35A     -0.482990    36A     -0.463959
      37A     -0.457926

  @DF-RHF Final Energy:  -759.31665259615386

   => Energetics <=

    Nuclear Repulsion Energy =            549.5965154200409870
    One-Electron Energy =               -2138.9846364380750856
    Two-Electron Energy =                 830.0714684218802404
    Total Energy =                       -759.3166525961538582
  Basis Set: (AUG-CC-PVTZ AUX)
    Blend: AUG-CC-PVTZ-RI
    Molecular point group: c1

    Geometry (in Angstrom), charge = 0, multiplicity = 1:

       Center              X                  Y                   Z               Mass
    ------------   -----------------  -----------------  -----------------  -----------------
         P            0.089307761164    -0.065285930232    -0.356187162751    30.973761998420
         O            1.267467761164     0.718001069768     0.402847837249    15.994914619570
         O           -0.546288738836    -0.899879130232     0.861373137249    15.994914619570
         O           -0.961041238836     1.113549069768    -0.629102162751    15.994914619570
         O            0.448100761164    -0.849459930232    -1.555455162751    15.994914619570
         C            2.465269761164    -0.036497930232     0.696230837249    12.000000000000
         C           -1.546287238836    -1.886831930232     0.516851837249    12.000000000000
         C           -1.314924238836     2.006219069768     0.448994837249    12.000000000000
         H            2.909206761164    -0.405110930232    -0.229266162751     1.007825032230
         H            2.230993761164    -0.869921930232     1.361795837249     1.007825032230
         H            3.138683761164     0.658935069768     1.192967837249     1.007825032230
         H           -2.378866538836    -1.376970330232     0.024464237249     1.007825032230
         H           -1.875664238836    -2.330539930232     1.454315837249     1.007825032230
         H           -1.125465238836    -2.648740930232    -0.141405162751     1.007825032230
         H           -1.618422238836     1.439271069768     1.331252837249     1.007825032230
         H           -2.147834238836     2.599762069768     0.077566837249     1.007825032230
         H           -0.467838238836     2.648069069768     0.691438837249     1.007825032230

  Basis Set: AUG-CC-PVTZ
    Blend: AUG-CC-PVTZ
  Basis Set: (AUG-CC-PVTZ AUX)
    Blend: AUG-CC-PVTZ-JKFIT
	 Reference Energy          =    -759.3166525961538582 [Eh]
	 Singles Energy            =      -0.0000000000000000 [Eh]
	 Same-Spin Energy          =      -0.4435594938683201 [Eh]
	 Opposite-Spin Energy      =      -1.3819547835862609 [Eh]
	 Correlation Energy        =      -1.8255142774545809 [Eh]
	 Total Energy              =    -761.1421668736084030 [Eh]

	 ================> DF-SCS-MP2 Energies <==================
	-----------------------------------------------------------
	 SCS Same-Spin Scale       =       0.3333333333333333 [-]
	 SCS Opposite-Spin Scale   =       1.2000000000000000 [-]
	 SCS Same-Spin Energy      =      -0.1478531646227733 [Eh]
	 SCS Opposite-Spin Energy  =      -1.6583457403035131 [Eh]
	 SCS Correlation Energy    =      -1.8061989049262865 [Eh]
	 SCS Total Energy          =    -761.1228515010801630 [Eh]
	-----------------------------------------------------------

  Dipole Moment: [D]
     X:    -0.7757      Y:     0.4647      Z:     3.5824     Total:     3.6948

*** Psi4 exiting successfully. Buy a developer a beer!
