                               Psi4 1.3.2 release

  ==> Input File <==

--------------------------------------------------------------------------
#psi4
#
memory 32 gb

molecule  {
0 1
  P        0.0877380    -0.0630770    -0.3573080
  O        1.2658980     0.7202100     0.4017270
  O       -0.5335540    -0.9159530     0.8701820
  O       -0.9626110     1.1157580    -0.6302230
  O        0.4465310    -0.8472510    -1.5565760
  C        2.4637000    -0.0342890     0.6951100
  C       -1.4777426    -1.8176630     0.5402327
  C       -1.3164940     2.0084280     0.4478740
  H        2.9076370    -0.4029020    -0.2303870
  H        2.2294240    -0.8677130     1.3606750
  H        3.1371140     0.6611440     1.1918470
  H       -2.3893800    -1.3915170     0.0214860
  H       -1.8772340    -2.3283310     1.4531950
  H       -1.1270350    -2.6465320    -0.1425260
  H       -1.6199920     1.4414800     1.3301320
  H       -2.1494040     2.6019710     0.0764460
  H       -0.4694080     2.6502780     0.6903180
units angstrom
no_reorient  #important for SAPT in psi4, default
symmetry c1  #important for SAPT in psi4, default
}

set PROPERTIES_ORIGIN ["COM"]
properties('MP2/aug-cc-pvtz', properties = ['dipole'])
--------------------------------------------------------------------------

    Molecular point group: c1
  Charge       = 0
  Multiplicity = 1
  Basis Set: AUG-CC-PVTZ
    Blend: AUG-CC-PVTZ
  Basis Set: (AUG-CC-PVTZ AUX)
    Blend: AUG-CC-PVTZ-JKFIT

    Orbital Energies [Eh]
    ---------------------

    Doubly Occupied:

       1A    -80.105576     2A    -20.602296     3A    -20.597410
       4A    -20.596636     5A    -20.512722     6A    -11.298163
       7A    -11.297776     8A    -11.295157     9A     -7.621760
      10A     -5.520141    11A     -5.519996    12A     -5.518591
      13A     -1.464114    14A     -1.404300    15A     -1.382456
      16A     -1.295148    17A     -0.982150    18A     -0.956016
      19A     -0.942630    20A     -0.793661    21A     -0.724110
      22A     -0.720387    23A     -0.684125    24A     -0.669038
      25A     -0.654687    26A     -0.637417    27A     -0.632312
      28A     -0.617243    29A     -0.582919    30A     -0.532924
      31A     -0.530654    32A     -0.515301    33A     -0.493560
      34A     -0.489505    35A     -0.477303    36A     -0.465924
      37A     -0.460876

  @DF-RHF Final Energy:  -759.30788463108706

   => Energetics <=

    Nuclear Repulsion Energy =            551.4032520209625545
    One-Electron Energy =               -2142.2323051520647823
    Two-Electron Energy =                 831.5211685000151647
    Total Energy =                       -759.3078846310870631
  Basis Set: (AUG-CC-PVTZ AUX)
    Blend: AUG-CC-PVTZ-RI
    Molecular point group: c1

    Geometry (in Angstrom), charge = 0, multiplicity = 1:

       Center              X                  Y                   Z               Mass
    ------------   -----------------  -----------------  -----------------  -----------------
         P            0.081729349318    -0.068815339521    -0.359407851106    30.973761998420
         O            1.259889349318     0.714471660479     0.399627148894    15.994914619570
         O           -0.539562650682    -0.921691339521     0.868082148894    15.994914619570
         O           -0.968619650682     1.110019660479    -0.632322851106    15.994914619570
         O            0.440522349318    -0.852989339521    -1.558675851106    15.994914619570
         C            2.457691349318    -0.040027339521     0.693010148894    12.000000000000
         C           -1.483751250682    -1.823401339521     0.538132848894    12.000000000000
         C           -1.322502650682     2.002689660479     0.445774148894    12.000000000000
         H            2.901628349318    -0.408640339521    -0.232486851106     1.007825032230
         H            2.223415349318    -0.873451339521     1.358575148894     1.007825032230
         H            3.131105349318     0.655405660479     1.189747148894     1.007825032230
         H           -2.395388650682    -1.397255339521     0.019386148894     1.007825032230
         H           -1.883242650682    -2.334069339521     1.451095148894     1.007825032230
         H           -1.133043650682    -2.652270339521    -0.144625851106     1.007825032230
         H           -1.626000650682     1.435741660479     1.328032148894     1.007825032230
         H           -2.155412650682     2.596232660479     0.074346148894     1.007825032230
         H           -0.475416650682     2.644539660479     0.688218148894     1.007825032230

  Basis Set: AUG-CC-PVTZ
    Blend: AUG-CC-PVTZ
  Basis Set: (AUG-CC-PVTZ AUX)
    Blend: AUG-CC-PVTZ-JKFIT
	 Reference Energy          =    -759.3078846310870631 [Eh]
	 Singles Energy            =      -0.0000000000000000 [Eh]
	 Same-Spin Energy          =      -0.4440285511056868 [Eh]
	 Opposite-Spin Energy      =      -1.3819073293726958 [Eh]
	 Correlation Energy        =      -1.8259358804783825 [Eh]
	 Total Energy              =    -761.1338205115654318 [Eh]

	 ================> DF-SCS-MP2 Energies <==================
	-----------------------------------------------------------
	 SCS Same-Spin Scale       =       0.3333333333333333 [-]
	 SCS Opposite-Spin Scale   =       1.2000000000000000 [-]
	 SCS Same-Spin Energy      =      -0.1480095170352289 [Eh]
	 SCS Opposite-Spin Energy  =      -1.6582887952472349 [Eh]
	 SCS Correlation Energy    =      -1.8062983122824638 [Eh]
	 SCS Total Energy          =    -761.1141829433695420 [Eh]
	-----------------------------------------------------------

  Dipole Moment: [D]
     X:    -0.4489      Y:     0.8992      Z:     3.5385     Total:     3.6784

*** Psi4 exiting successfully. Buy a developer a beer!
