                               Psi4 1.3.2 release

  ==> Input File <==

--------------------------------------------------------------------------
#psi4
#
memory 32 gb

molecule  {
0 1
  P        0.0956057    -0.0746696    -0.3574278
  O        1.2658980     0.7202100     0.4017270
  O       -0.5335540    -0.9159530     0.8701820
  O       -0.9626110     1.1157580    -0.6302230
  O        0.4465310    -0.8472510    -1.5565760
  C        2.4585487    -0.0444612     0.6897102
  C       -1.5478570    -1.8846230     0.5157310
  C       -1.3164940     2.0084280     0.4478740
  H        2.9076370    -0.4029020    -0.2303870
  H        2.2294240    -0.8677130     1.3606750
  H        3.1371140     0.6611440     1.1918470
  H       -2.3893800    -1.3915170     0.0214860
  H       -1.8772340    -2.3283310     1.4531950
  H       -1.1270350    -2.6465320    -0.1425260
  H       -1.6199920     1.4414800     1.3301320
  H       -2.1494040     2.6019710     0.0764460
  H       -0.4694080     2.6502780     0.6903180
units angstrom
no_reorient  #important for SAPT in psi4, default
symmetry c1  #important for SAPT in psi4, default
}

set PROPERTIES_ORIGIN ["COM"]
properties('MP2/aug-cc-pvtz', properties = ['dipole'])
--------------------------------------------------------------------------

    Molecular point group: c1
  Charge       = 0
  Multiplicity = 1
  Basis Set: AUG-CC-PVTZ
    Blend: AUG-CC-PVTZ
  Basis Set: (AUG-CC-PVTZ AUX)
    Blend: AUG-CC-PVTZ-JKFIT

    Orbital Energies [Eh]
    ---------------------

    Doubly Occupied:

       1A    -80.099131     2A    -20.594448     3A    -20.594222
       4A    -20.589096     5A    -20.510611     6A    -11.296087
       7A    -11.295180     8A    -11.293113     9A     -7.615448
      10A     -5.513869    11A     -5.513549    12A     -5.512407
      13A     -1.446500    14A     -1.379813    15A     -1.374315
      16A     -1.295666    17A     -0.978408    18A     -0.952131
      19A     -0.947460    20A     -0.785718    21A     -0.714005
      22A     -0.710650    23A     -0.673615    24A     -0.662772
      25A     -0.648160    26A     -0.629045    27A     -0.619330
      28A     -0.611753    29A     -0.584565    30A     -0.540643
      31A     -0.528815    32A     -0.515561    33A     -0.498982
      34A     -0.491591    35A     -0.482440    36A     -0.467621
      37A     -0.461109

  @DF-RHF Final Energy:  -759.31540434237024

   => Energetics <=

    Nuclear Repulsion Energy =            549.1153481808115657
    One-Electron Energy =               -2138.0058468529541642
    Two-Electron Energy =                 829.5750943297724689
    Total Energy =                       -759.3154043423702433
  Basis Set: (AUG-CC-PVTZ AUX)
    Blend: AUG-CC-PVTZ-RI
    Molecular point group: c1

    Geometry (in Angstrom), charge = 0, multiplicity = 1:

       Center              X                  Y                   Z               Mass
    ------------   -----------------  -----------------  -----------------  -----------------
         P            0.094306933760    -0.071233410524    -0.356938601686    30.973761998420
         O            1.264599233760     0.723646189476     0.402216198314    15.994914619570
         O           -0.534852766240    -0.912516810524     0.870671198314    15.994914619570
         O           -0.963909766240     1.119194189476    -0.629733801686    15.994914619570
         O            0.445232233760    -0.843814810524    -1.556086801686    15.994914619570
         C            2.457249933760    -0.041025010524     0.690199398314    12.000000000000
         C           -1.549155766240    -1.881186810524     0.516220198314    12.000000000000
         C           -1.317792766240     2.011864189476     0.448363198314    12.000000000000
         H            2.906338233760    -0.399465810524    -0.229897801686     1.007825032230
         H            2.228125233760    -0.864276810524     1.361164198314     1.007825032230
         H            3.135815233760     0.664580189476     1.192336198314     1.007825032230
         H           -2.390678766240    -1.388080810524     0.021975198314     1.007825032230
         H           -1.878532766240    -2.324894810524     1.453684198314     1.007825032230
         H           -1.128333766240    -2.643095810524    -0.142036801686     1.007825032230
         H           -1.621290766240     1.444916189476     1.330621198314     1.007825032230
         H           -2.150702766240     2.605407189476     0.076935198314     1.007825032230
         H           -0.470706766240     2.653714189476     0.690807198314     1.007825032230

  Basis Set: AUG-CC-PVTZ
    Blend: AUG-CC-PVTZ
  Basis Set: (AUG-CC-PVTZ AUX)
    Blend: AUG-CC-PVTZ-JKFIT
	 Reference Energy          =    -759.3154043423702433 [Eh]
	 Singles Energy            =      -0.0000000000000000 [Eh]
	 Same-Spin Energy          =      -0.4437110873573673 [Eh]
	 Opposite-Spin Energy      =      -1.3824681040621560 [Eh]
	 Correlation Energy        =      -1.8261791914195233 [Eh]
	 Total Energy              =    -761.1415835337897988 [Eh]

	 ================> DF-SCS-MP2 Energies <==================
	-----------------------------------------------------------
	 SCS Same-Spin Scale       =       0.3333333333333333 [-]
	 SCS Opposite-Spin Scale   =       1.2000000000000000 [-]
	 SCS Same-Spin Energy      =      -0.1479036957857891 [Eh]
	 SCS Opposite-Spin Energy  =      -1.6589617248745872 [Eh]
	 SCS Correlation Energy    =      -1.8068654206603763 [Eh]
	 SCS Total Energy          =    -761.1222697630306584 [Eh]
	-----------------------------------------------------------

  Dipole Moment: [D]
     X:    -0.7142      Y:     0.3921      Z:     3.5184     Total:     3.6115

*** Psi4 exiting successfully. Buy a developer a beer!
