                               Psi4 1.3.2 release

  ==> Input File <==

--------------------------------------------------------------------------
#psi4
#
memory 32 gb

molecule  {
0 1
  P        0.1197412    -0.1090808    -0.3574403
  O        1.2658980     0.7202100     0.4017270
  O       -0.5335540    -0.9159530     0.8701820
  O       -0.9626110     1.1157580    -0.6302230
  O        0.4465310    -0.8472510    -1.5565760
  C        2.4425513    -0.0746252     0.6733810
  C       -1.5478570    -1.8846230     0.5157310
  C       -1.3164940     2.0084280     0.4478740
  H        2.9076370    -0.4029020    -0.2303870
  H        2.2294240    -0.8677130     1.3606750
  H        3.1371140     0.6611440     1.1918470
  H       -2.3893800    -1.3915170     0.0214860
  H       -1.8772340    -2.3283310     1.4531950
  H       -1.1270350    -2.6465320    -0.1425260
  H       -1.6199920     1.4414800     1.3301320
  H       -2.1494040     2.6019710     0.0764460
  H       -0.4694080     2.6502780     0.6903180
units angstrom
no_reorient  #important for SAPT in psi4, default
symmetry c1  #important for SAPT in psi4, default
}

set PROPERTIES_ORIGIN ["COM"]
properties('MP2/aug-cc-pvtz', properties = ['dipole'])
--------------------------------------------------------------------------

    Molecular point group: c1
  Charge       = 0
  Multiplicity = 1
  Basis Set: AUG-CC-PVTZ
    Blend: AUG-CC-PVTZ
  Basis Set: (AUG-CC-PVTZ AUX)
    Blend: AUG-CC-PVTZ-JKFIT

    Orbital Energies [Eh]
    ---------------------

    Doubly Occupied:

       1A    -80.098635     2A    -20.598056     3A    -20.597832
       4A    -20.578252     5A    -20.517077     6A    -11.298449
       7A    -11.296978     8A    -11.285959     9A     -7.615744
      10A     -5.514051    11A     -5.513670    12A     -5.512856
      13A     -1.446738    14A     -1.384379    15A     -1.360677
      16A     -1.311162    17A     -0.977897    18A     -0.951049
      19A     -0.941805    20A     -0.786157    21A     -0.715166
      22A     -0.706413    23A     -0.677495    24A     -0.661057
      25A     -0.644265    26A     -0.626946    27A     -0.621092
      28A     -0.605574    29A     -0.588301    30A     -0.542093
      31A     -0.528072    32A     -0.514029    33A     -0.504277
      34A     -0.487827    35A     -0.478212    36A     -0.475723
      37A     -0.467881

  @DF-RHF Final Energy:  -759.30822232408570

   => Energetics <=

    Nuclear Repulsion Energy =            549.3215536793883302
    One-Electron Energy =               -2138.3958552276776572
    Two-Electron Energy =                 829.7660792242037360
    Total Energy =                       -759.3082223240857047
  Basis Set: (AUG-CC-PVTZ AUX)
    Blend: AUG-CC-PVTZ-RI
    Molecular point group: c1

    Geometry (in Angstrom), charge = 0, multiplicity = 1:

       Center              X                  Y                   Z               Mass
    ------------   -----------------  -----------------  -----------------  -----------------
         P            0.114474549364    -0.095447687913    -0.355548929285    30.973761998420
         O            1.260631349364     0.733843112087     0.403618370715    15.994914619570
         O           -0.538820650636    -0.902319887913     0.872073370715    15.994914619570
         O           -0.967877650636     1.129391112087    -0.628331629285    15.994914619570
         O            0.441264349364    -0.833617887913    -1.554684629285    15.994914619570
         C            2.437284649364    -0.060992087913     0.675272370715    12.000000000000
         C           -1.553123650636    -1.870989887913     0.517622370715    12.000000000000
         C           -1.321760650636     2.022061112087     0.449765370715    12.000000000000
         H            2.902370349364    -0.389268887913    -0.228495629285     1.007825032230
         H            2.224157349364    -0.854079887913     1.362566370715     1.007825032230
         H            3.131847349364     0.674777112087     1.193738370715     1.007825032230
         H           -2.394646650636    -1.377883887913     0.023377370715     1.007825032230
         H           -1.882500650636    -2.314697887913     1.455086370715     1.007825032230
         H           -1.132301650636    -2.632898887913    -0.140634629285     1.007825032230
         H           -1.625258650636     1.455113112087     1.332023370715     1.007825032230
         H           -2.154670650636     2.615604112087     0.078337370715     1.007825032230
         H           -0.474674650636     2.663911112087     0.692209370715     1.007825032230

  Basis Set: AUG-CC-PVTZ
    Blend: AUG-CC-PVTZ
  Basis Set: (AUG-CC-PVTZ AUX)
    Blend: AUG-CC-PVTZ-JKFIT
	 Reference Energy          =    -759.3082223240857047 [Eh]
	 Singles Energy            =      -0.0000000000000000 [Eh]
	 Same-Spin Energy          =      -0.4438479060477116 [Eh]
	 Opposite-Spin Energy      =      -1.3829652071907876 [Eh]
	 Correlation Energy        =      -1.8268131132384993 [Eh]
	 Total Energy              =    -761.1350354373241771 [Eh]

	 ================> DF-SCS-MP2 Energies <==================
	-----------------------------------------------------------
	 SCS Same-Spin Scale       =       0.3333333333333333 [-]
	 SCS Opposite-Spin Scale   =       1.2000000000000000 [-]
	 SCS Same-Spin Energy      =      -0.1479493020159038 [Eh]
	 SCS Opposite-Spin Energy  =      -1.6595582486289451 [Eh]
	 SCS Correlation Energy    =      -1.8075075506448490 [Eh]
	 SCS Total Energy          =    -761.1157298747305049 [Eh]
	-----------------------------------------------------------

  Dipole Moment: [D]
     X:    -0.4843      Y:    -0.0644      Z:     3.4463     Total:     3.4807

*** Psi4 exiting successfully. Buy a developer a beer!
