                               Psi4 1.3.2 release

  ==> Input File <==

--------------------------------------------------------------------------
#psi4
#
memory 32 gb

molecule  {
0 1
  P        0.0877380    -0.0630770    -0.3573080
  O        1.2841921     0.7104644     0.3828710
  O       -0.5335540    -0.9159530     0.8701820
  O       -0.9626110     1.1157580    -0.6302230
  O        0.4711243    -0.8401089    -1.5536112
  C        2.4637000    -0.0342890     0.6951100
  C       -1.5478570    -1.8846230     0.5157310
  C       -1.3164940     2.0084280     0.4478740
  H        2.9076370    -0.4029020    -0.2303870
  H        2.2294240    -0.8677130     1.3606750
  H        3.1371140     0.6611440     1.1918470
  H       -2.3893800    -1.3915170     0.0214860
  H       -1.8772340    -2.3283310     1.4531950
  H       -1.1270350    -2.6465320    -0.1425260
  H       -1.6199920     1.4414800     1.3301320
  H       -2.1494040     2.6019710     0.0764460
  H       -0.4694080     2.6502780     0.6903180
units angstrom
no_reorient  #important for SAPT in psi4, default
symmetry c1  #important for SAPT in psi4, default
}

set PROPERTIES_ORIGIN ["COM"]
properties('MP2/aug-cc-pvtz', properties = ['dipole'])
--------------------------------------------------------------------------

    Molecular point group: c1
  Charge       = 0
  Multiplicity = 1
  Basis Set: AUG-CC-PVTZ
    Blend: AUG-CC-PVTZ
  Basis Set: (AUG-CC-PVTZ AUX)
    Blend: AUG-CC-PVTZ-JKFIT

    Orbital Energies [Eh]
    ---------------------

    Doubly Occupied:

       1A    -80.100065     2A    -20.594958     3A    -20.594733
       4A    -20.591016     5A    -20.507312     6A    -11.296879
       7A    -11.296618     8A    -11.291609     9A     -7.616114
      10A     -5.514552    11A     -5.514282    12A     -5.513017
      13A     -1.448538    14A     -1.381682    15A     -1.379764
      16A     -1.289594    17A     -0.979959    18A     -0.955685
      19A     -0.946806    20A     -0.786580    21A     -0.715986
      22A     -0.712627    23A     -0.674127    24A     -0.665087
      25A     -0.650068    26A     -0.631823    27A     -0.619514
      28A     -0.616894    29A     -0.582458    30A     -0.541648
      31A     -0.527773    32A     -0.515422    33A     -0.498081
      34A     -0.491267    35A     -0.485037    36A     -0.463046
      37A     -0.456651

  @DF-RHF Final Energy:  -759.31644680425859

   => Energetics <=

    Nuclear Repulsion Energy =            549.1393797160102395
    One-Electron Energy =               -2138.0171122413430567
    Two-Electron Energy =                 829.5612857210741140
    Total Energy =                       -759.3164468042585895
  Basis Set: (AUG-CC-PVTZ AUX)
    Blend: AUG-CC-PVTZ-RI
    Molecular point group: c1

    Geometry (in Angstrom), charge = 0, multiplicity = 1:

       Center              X                  Y                   Z               Mass
    ------------   -----------------  -----------------  -----------------  -----------------
         P            0.082839106716    -0.062779490730    -0.355492812319    30.973761998420
         O            1.279293206716     0.710761909270     0.384686187681    15.994914619570
         O           -0.538452893284    -0.915655490730     0.871997187681    15.994914619570
         O           -0.967509893284     1.116055509270    -0.628407812319    15.994914619570
         O            0.466225406716    -0.839811390730    -1.551796012319    15.994914619570
         C            2.458801106716    -0.033991490730     0.696925187681    12.000000000000
         C           -1.552755893284    -1.884325490730     0.517546187681    12.000000000000
         C           -1.321392893284     2.008725509270     0.449689187681    12.000000000000
         H            2.902738106716    -0.402604490730    -0.228571812319     1.007825032230
         H            2.224525106716    -0.867415490730     1.362490187681     1.007825032230
         H            3.132215106716     0.661441509270     1.193662187681     1.007825032230
         H           -2.394278893284    -1.391219490730     0.023301187681     1.007825032230
         H           -1.882132893284    -2.328033490730     1.455010187681     1.007825032230
         H           -1.131933893284    -2.646234490730    -0.140710812319     1.007825032230
         H           -1.624890893284     1.441777509270     1.331947187681     1.007825032230
         H           -2.154302893284     2.602268509270     0.078261187681     1.007825032230
         H           -0.474306893284     2.650575509270     0.692133187681     1.007825032230

  Basis Set: AUG-CC-PVTZ
    Blend: AUG-CC-PVTZ
  Basis Set: (AUG-CC-PVTZ AUX)
    Blend: AUG-CC-PVTZ-JKFIT
	 Reference Energy          =    -759.3164468042585895 [Eh]
	 Singles Energy            =      -0.0000000000000000 [Eh]
	 Same-Spin Energy          =      -0.4435504549168015 [Eh]
	 Opposite-Spin Energy      =      -1.3818719172357050 [Eh]
	 Correlation Energy        =      -1.8254223721525065 [Eh]
	 Total Energy              =    -761.1418691764110918 [Eh]

	 ================> DF-SCS-MP2 Energies <==================
	-----------------------------------------------------------
	 SCS Same-Spin Scale       =       0.3333333333333333 [-]
	 SCS Opposite-Spin Scale   =       1.2000000000000000 [-]
	 SCS Same-Spin Energy      =      -0.1478501516389338 [Eh]
	 SCS Opposite-Spin Energy  =      -1.6582463006828461 [Eh]
	 SCS Correlation Energy    =      -1.8060964523217800 [Eh]
	 SCS Total Energy          =    -761.1225432565803430 [Eh]
	-----------------------------------------------------------

  Dipole Moment: [D]
     X:    -0.9730      Y:     0.5646      Z:     3.5695     Total:     3.7425

*** Psi4 exiting successfully. Buy a developer a beer!
