                               Psi4 1.3.2 release

  ==> Input File <==

--------------------------------------------------------------------------
#psi4
#
memory 32 gb

molecule  {
0 1
  P        0.0877380    -0.0630770    -0.3573080
  O        1.2658980     0.7202100     0.4017270
  O       -0.5195584    -0.9345308     0.8800037
  O       -0.9626110     1.1157580    -0.6302230
  O        0.4465310    -0.8472510    -1.5565760
  C        2.4637000    -0.0342890     0.6951100
  C       -1.5478570    -1.8846230     0.5157310
  C       -1.3164940     2.0084280     0.4478740
  H        2.9076370    -0.4029020    -0.2303870
  H        2.2294240    -0.8677130     1.3606750
  H        3.1371140     0.6611440     1.1918470
  H       -2.3980674    -1.4084228     0.0197791
  H       -1.8772340    -2.3283310     1.4531950
  H       -1.1270350    -2.6465320    -0.1425260
  H       -1.6199920     1.4414800     1.3301320
  H       -2.1494040     2.6019710     0.0764460
  H       -0.4694080     2.6502780     0.6903180
units angstrom
no_reorient  #important for SAPT in psi4, default
symmetry c1  #important for SAPT in psi4, default
}

set PROPERTIES_ORIGIN ["COM"]
properties('MP2/aug-cc-pvtz', properties = ['dipole'])
--------------------------------------------------------------------------

    Molecular point group: c1
  Charge       = 0
  Multiplicity = 1
  Basis Set: AUG-CC-PVTZ
    Blend: AUG-CC-PVTZ
  Basis Set: (AUG-CC-PVTZ AUX)
    Blend: AUG-CC-PVTZ-JKFIT

    Orbital Energies [Eh]
    ---------------------

    Doubly Occupied:

       1A    -80.100693     2A    -20.594652     3A    -20.593743
       4A    -20.593421     5A    -20.508845     6A    -11.296465
       7A    -11.294687     8A    -11.294107     9A     -7.616609
      10A     -5.515083    11A     -5.514719    12A     -5.513503
      13A     -1.446367    14A     -1.379571    15A     -1.376666
      16A     -1.290614    17A     -0.978445    18A     -0.954833
      19A     -0.946460    20A     -0.786392    21A     -0.713859
      22A     -0.711585    23A     -0.672836    24A     -0.663006
      25A     -0.649257    26A     -0.630770    27A     -0.615987
      28A     -0.614442    29A     -0.583093    30A     -0.540890
      31A     -0.529762    32A     -0.516200    33A     -0.498099
      34A     -0.490387    35A     -0.485809    36A     -0.464342
      37A     -0.457856

  @DF-RHF Final Energy:  -759.31490038676066

   => Energetics <=

    Nuclear Repulsion Energy =            548.4992591168580702
    One-Electron Energy =               -2136.7602044459531498
    Two-Electron Energy =                 828.9460449423345381
    Total Energy =                       -759.3149003867606552
  Basis Set: (AUG-CC-PVTZ AUX)
    Blend: AUG-CC-PVTZ-RI
    Molecular point group: c1

    Geometry (in Angstrom), charge = 0, multiplicity = 1:

       Center              X                  Y                   Z               Mass
    ------------   -----------------  -----------------  -----------------  -----------------
         P            0.086201942887    -0.060833067594    -0.358417709728    30.973761998420
         O            1.264361942887     0.722453932406     0.400617290272    15.994914619570
         O           -0.521094457113    -0.932286867594     0.878893990272    15.994914619570
         O           -0.964147057113     1.118001932406    -0.631332709728    15.994914619570
         O            0.444994942887    -0.845007067594    -1.557685709728    15.994914619570
         C            2.462163942887    -0.032045067594     0.694000290272    12.000000000000
         C           -1.549393057113    -1.882379067594     0.514621290272    12.000000000000
         C           -1.318030057113     2.010671932406     0.446764290272    12.000000000000
         H            2.906100942887    -0.400658067594    -0.231496709728     1.007825032230
         H            2.227887942887    -0.865469067594     1.359565290272     1.007825032230
         H            3.135577942887     0.663387932406     1.190737290272     1.007825032230
         H           -2.399603457113    -1.406178867594     0.018669390272     1.007825032230
         H           -1.878770057113    -2.326087067594     1.452085290272     1.007825032230
         H           -1.128571057113    -2.644288067594    -0.143635709728     1.007825032230
         H           -1.621528057113     1.443723932406     1.329022290272     1.007825032230
         H           -2.150940057113     2.604214932406     0.075336290272     1.007825032230
         H           -0.470944057113     2.652521932406     0.689208290272     1.007825032230

  Basis Set: AUG-CC-PVTZ
    Blend: AUG-CC-PVTZ
  Basis Set: (AUG-CC-PVTZ AUX)
    Blend: AUG-CC-PVTZ-JKFIT
	 Reference Energy          =    -759.3149003867606552 [Eh]
	 Singles Energy            =      -0.0000000000000000 [Eh]
	 Same-Spin Energy          =      -0.4438707014997663 [Eh]
	 Opposite-Spin Energy      =      -1.3828663532548244 [Eh]
	 Correlation Energy        =      -1.8267370547545907 [Eh]
	 Total Energy              =    -761.1416374415152859 [Eh]

	 ================> DF-SCS-MP2 Energies <==================
	-----------------------------------------------------------
	 SCS Same-Spin Scale       =       0.3333333333333333 [-]
	 SCS Opposite-Spin Scale   =       1.2000000000000000 [-]
	 SCS Same-Spin Energy      =      -0.1479569004999221 [Eh]
	 SCS Opposite-Spin Energy  =      -1.6594396239057894 [Eh]
	 SCS Correlation Energy    =      -1.8073965244057115 [Eh]
	 SCS Total Energy          =    -761.1222969111663588 [Eh]
	-----------------------------------------------------------

  Dipole Moment: [D]
     X:    -0.8015      Y:     0.6288      Z:     3.5046     Total:     3.6496

*** Psi4 exiting successfully. Buy a developer a beer!
