                               Psi4 1.3.2 release

  ==> Input File <==

--------------------------------------------------------------------------
#psi4
#
memory 32 gb

molecule  {
0 1
  P        0.1035626    -0.0862017    -0.3574898
  O        1.2658980     0.7202100     0.4017270
  O       -0.5335540    -0.9159530     0.8701820
  O       -0.9626110     1.1157580    -0.6302230
  O        0.4465310    -0.8472510    -1.5565760
  C        2.4533065    -0.0545751     0.6842885
  C       -1.5478570    -1.8846230     0.5157310
  C       -1.3164940     2.0084280     0.4478740
  H        2.9076370    -0.4029020    -0.2303870
  H        2.2294240    -0.8677130     1.3606750
  H        3.1371140     0.6611440     1.1918470
  H       -2.3893800    -1.3915170     0.0214860
  H       -1.8772340    -2.3283310     1.4531950
  H       -1.1270350    -2.6465320    -0.1425260
  H       -1.6199920     1.4414800     1.3301320
  H       -2.1494040     2.6019710     0.0764460
  H       -0.4694080     2.6502780     0.6903180
units angstrom
no_reorient  #important for SAPT in psi4, default
symmetry c1  #important for SAPT in psi4, default
}

set PROPERTIES_ORIGIN ["COM"]
properties('MP2/aug-cc-pvtz', properties = ['dipole'])
--------------------------------------------------------------------------

    Molecular point group: c1
  Charge       = 0
  Multiplicity = 1
  Basis Set: AUG-CC-PVTZ
    Blend: AUG-CC-PVTZ
  Basis Set: (AUG-CC-PVTZ AUX)
    Blend: AUG-CC-PVTZ-JKFIT

    Orbital Energies [Eh]
    ---------------------

    Doubly Occupied:

       1A    -80.098945     2A    -20.595655     3A    -20.595381
       4A    -20.585500     5A    -20.512770     6A    -11.296888
       7A    -11.295707     8A    -11.290713     9A     -7.615498
      10A     -5.513882    11A     -5.513545    12A     -5.512510
      13A     -1.446214    14A     -1.381336    15A     -1.369920
      16A     -1.300957    17A     -0.978053    18A     -0.950595
      19A     -0.946826    20A     -0.785732    21A     -0.714168
      22A     -0.709298    23A     -0.674586    24A     -0.662159
      25A     -0.646848    26A     -0.627818    27A     -0.620602
      28A     -0.609487    29A     -0.586031    30A     -0.540881
      31A     -0.528505    32A     -0.514988    33A     -0.500533
      34A     -0.490935    35A     -0.480119    36A     -0.470985
      37A     -0.464111

  @DF-RHF Final Energy:  -759.31385059001479

   => Energetics <=

    Nuclear Repulsion Energy =            549.1809210364787077
    One-Electron Energy =               -2138.1321848344077807
    Two-Electron Energy =                 829.6374132079143919
    Total Energy =                       -759.3138505900147948
  Basis Set: (AUG-CC-PVTZ AUX)
    Blend: AUG-CC-PVTZ-RI
    Molecular point group: c1

    Geometry (in Angstrom), charge = 0, multiplicity = 1:

       Center              X                  Y                   Z               Mass
    ------------   -----------------  -----------------  -----------------  -----------------
         P            0.100952994697    -0.079347811787    -0.356522249067    30.973761998420
         O            1.263288394697     0.727063888213     0.402694550933    15.994914619570
         O           -0.536163605303    -0.909099111787     0.871149550933    15.994914619570
         O           -0.965220605303     1.122611888213    -0.629255449067    15.994914619570
         O            0.443921394697    -0.840397111787    -1.555608449067    15.994914619570
         C            2.450696894697    -0.047721211787     0.685256050933    12.000000000000
         C           -1.550466605303    -1.877769111787     0.516698550933    12.000000000000
         C           -1.319103605303     2.015281888213     0.448841550933    12.000000000000
         H            2.905027394697    -0.396048111787    -0.229419449067     1.007825032230
         H            2.226814394697    -0.860859111787     1.361642550933     1.007825032230
         H            3.134504394697     0.667997888213     1.192814550933     1.007825032230
         H           -2.391989605303    -1.384663111787     0.022453550933     1.007825032230
         H           -1.879843605303    -2.321477111787     1.454162550933     1.007825032230
         H           -1.129644605303    -2.639678111787    -0.141558449067     1.007825032230
         H           -1.622601605303     1.448333888213     1.331099550933     1.007825032230
         H           -2.152013605303     2.608824888213     0.077413550933     1.007825032230
         H           -0.472017605303     2.657131888213     0.691285550933     1.007825032230

  Basis Set: AUG-CC-PVTZ
    Blend: AUG-CC-PVTZ
  Basis Set: (AUG-CC-PVTZ AUX)
    Blend: AUG-CC-PVTZ-JKFIT
	 Reference Energy          =    -759.3138505900147948 [Eh]
	 Singles Energy            =      -0.0000000000000000 [Eh]
	 Same-Spin Energy          =      -0.4437381725586247 [Eh]
	 Opposite-Spin Energy      =      -1.3825930016171153 [Eh]
	 Correlation Energy        =      -1.8263311741757400 [Eh]
	 Total Energy              =    -761.1401817641905154 [Eh]

	 ================> DF-SCS-MP2 Energies <==================
	-----------------------------------------------------------
	 SCS Same-Spin Scale       =       0.3333333333333333 [-]
	 SCS Opposite-Spin Scale   =       1.2000000000000000 [-]
	 SCS Same-Spin Energy      =      -0.1479127241862082 [Eh]
	 SCS Opposite-Spin Energy  =      -1.6591116019405383 [Eh]
	 SCS Correlation Energy    =      -1.8070243261267465 [Eh]
	 SCS Total Energy          =    -761.1208749161415881 [Eh]
	-----------------------------------------------------------

  Dipole Moment: [D]
     X:    -0.6382      Y:     0.2391      Z:     3.4937     Total:     3.5595

*** Psi4 exiting successfully. Buy a developer a beer!
