                               Psi4 1.4a3.dev225

  ==> Input File <==

--------------------------------------------------------------------------
#psi4
#
memory 32 gb

molecule  {
0 1
  P       -0.0574490    -0.0471570     0.4194890
  O       -1.2961560     0.7325110    -0.2482760
  O        0.4722150    -0.8939050    -0.8603530
  O        0.9903180     1.1487510     0.6268930
  O       -0.3042252    -0.8764005     1.6805485
  C       -2.4621590    -0.0544570    -0.5825580
  C        1.4026460    -1.9654260    -0.5785380
  C        1.2646580     2.0469880    -0.4710390
  H       -2.8060190    -0.6071020     0.2936840
  H       -2.2248990    -0.7417540    -1.3968370
  H       -3.2216950     0.6578470    -0.8995060
  H        2.3395400    -1.5606100    -0.1879150
  H        1.5821260    -2.4612230    -1.5311740
  H        0.9711350    -2.6604290     0.1425970
  H        1.5228770     1.4835030    -1.3699410
  H        2.1109000     2.6527310    -0.1513160
  H        0.3951430     2.6772290    -0.6597860
units angstrom
no_reorient  #important for SAPT in psi4, default
symmetry c1  #important for SAPT in psi4, default
}

set PROPERTIES_ORIGIN ["COM"]
properties('MP2/aug-cc-pvtz', properties = ['dipole'])
--------------------------------------------------------------------------

    Molecular point group: c1
  Charge       = 0
  Multiplicity = 1
  Basis Set: AUG-CC-PVTZ
    Blend: AUG-CC-PVTZ
  Basis Set: (AUG-CC-PVTZ AUX)
    Blend: AUG-CC-PVTZ-JKFIT

    Orbital Energies [Eh]
    ---------------------

    Doubly Occupied:

       1A    -80.109545     2A    -20.597368     3A    -20.596708
       4A    -20.595478     5A    -20.510432     6A    -11.297051
       7A    -11.296824     8A    -11.295003     9A     -7.623462
      10A     -5.522090    11A     -5.521829    12A     -5.519967
      13A     -1.446736    14A     -1.380457    15A     -1.379859
      16A     -1.268835    17A     -0.980815    18A     -0.955045
      19A     -0.949063    20A     -0.788368    21A     -0.714714
      22A     -0.711762    23A     -0.675364    24A     -0.663698
      25A     -0.651105    26A     -0.632126    27A     -0.619011
      28A     -0.616197    29A     -0.576522    30A     -0.539749
      31A     -0.527571    32A     -0.515529    33A     -0.497429
      34A     -0.493433    35A     -0.484634    36A     -0.454643
      37A     -0.450831

  @DF-RHF Final Energy:  -759.30772433287473

   => Energetics <=

    Nuclear Repulsion Energy =            545.9082793502349205
    One-Electron Energy =               -2131.5135032573084573
    Two-Electron Energy =                 826.2974995741989233
    Total Energy =                       -759.3077243328747272
  Basis Set: (AUG-CC-PVTZ AUX)
    Blend: AUG-CC-PVTZ-RI
    Molecular point group: c1

    Geometry (in Angstrom), charge = 0, multiplicity = 1:

       Center              X                  Y                   Z               Mass
    ------------   -----------------  -----------------  -----------------  -----------------
         P           -0.051391474254    -0.047693919504     0.371088898656    30.973761998420
         O           -1.290098474254     0.731974080496    -0.296676101344    15.994914619570
         O            0.478272525746    -0.894441919504    -0.908753101344    15.994914619570
         O            0.996375525746     1.148214080496     0.578492898656    15.994914619570
         O           -0.298167674254    -0.876937419504     1.632148398656    15.994914619570
         C           -2.456101474254    -0.054993919504    -0.630958101344    12.000000000000
         C            1.408703525746    -1.965962919504    -0.626938101344    12.000000000000
         C            1.270715525746     2.046451080496    -0.519439101344    12.000000000000
         H           -2.799961474254    -0.607638919504     0.245283898656     1.007825032230
         H           -2.218841474254    -0.742290919504    -1.445237101344     1.007825032230
         H           -3.215637474254     0.657310080496    -0.947906101344     1.007825032230
         H            2.345597525746    -1.561146919504    -0.236315101344     1.007825032230
         H            1.588183525746    -2.461759919504    -1.579574101344     1.007825032230
         H            0.977192525746    -2.660965919504     0.094196898656     1.007825032230
         H            1.528934525746     1.482966080496    -1.418341101344     1.007825032230
         H            2.116957525746     2.652194080496    -0.199716101344     1.007825032230
         H            0.401200525746     2.676692080496    -0.708186101344     1.007825032230

  Basis Set: AUG-CC-PVTZ
    Blend: AUG-CC-PVTZ
  Basis Set: (AUG-CC-PVTZ AUX)
    Blend: AUG-CC-PVTZ-JKFIT
	 Reference Energy          =    -759.3077243328747272 [Eh]
	 Singles Energy            =      -0.0000000000000000 [Eh]
	 Same-Spin Energy          =      -0.4450099702831251 [Eh]
	 Opposite-Spin Energy      =      -1.3855885409453079 [Eh]
	 Correlation Energy        =      -1.8305985112284331 [Eh]
	 Total Energy              =    -761.1383228441031861 [Eh]

	 ================> DF-SCS-MP2 Energies <==================
	-----------------------------------------------------------
	 SCS Same-Spin Scale       =       0.3333333333333333 [-]
	 SCS Opposite-Spin Scale   =       1.2000000000000000 [-]
	 SCS Same-Spin Energy      =      -0.1483366567610417 [Eh]
	 SCS Opposite-Spin Energy  =      -1.6627062491343694 [Eh]
	 SCS Correlation Energy    =      -1.8110429058954109 [Eh]
	 SCS Total Energy          =    -761.1187672387701468 [Eh]
	-----------------------------------------------------------

  Dipole Moment: [D]
     X:     0.4345      Y:     0.5500      Z:    -3.9205     Total:     3.9827

*** Psi4 exiting successfully. Buy a developer a beer!
