                               Psi4 1.3.2 release

  ==> Input File <==

--------------------------------------------------------------------------
#psi4
#
memory 32 gb

molecule  {
0 1
  P        0.0877380    -0.0630770    -0.3573080
  O        1.2658980     0.7202100     0.4017270
  O       -0.5335540    -0.9159530     0.8701820
  O       -0.9636191     1.1010434    -0.6841712
  O        0.4148882    -0.8175165    -1.5843772
  C        2.4637000    -0.0342890     0.6951100
  C       -1.5478570    -1.8846230     0.5157310
  C       -1.3164940     2.0084280     0.4478740
  H        2.9076370    -0.4029020    -0.2303870
  H        2.2294240    -0.8677130     1.3606750
  H        3.1371140     0.6611440     1.1918470
  H       -2.3893800    -1.3915170     0.0214860
  H       -1.8772340    -2.3283310     1.4531950
  H       -1.1270350    -2.6465320    -0.1425260
  H       -1.6199920     1.4414800     1.3301320
  H       -2.1494040     2.6019710     0.0764460
  H       -0.4694080     2.6502780     0.6903180
units angstrom
no_reorient  #important for SAPT in psi4, default
symmetry c1  #important for SAPT in psi4, default
}

set PROPERTIES_ORIGIN ["COM"]
properties('MP2/aug-cc-pvtz', properties = ['dipole'])
--------------------------------------------------------------------------

    Molecular point group: c1
  Charge       = 0
  Multiplicity = 1
  Basis Set: AUG-CC-PVTZ
    Blend: AUG-CC-PVTZ
  Basis Set: (AUG-CC-PVTZ AUX)
    Blend: AUG-CC-PVTZ-JKFIT

    Orbital Energies [Eh]
    ---------------------

    Doubly Occupied:

       1A    -80.096515     2A    -20.595194     3A    -20.594709
       4A    -20.592081     5A    -20.503210     6A    -11.299842
       7A    -11.296119     8A    -11.295638     9A     -7.612844
      10A     -5.511201    11A     -5.510944    12A     -5.509797
      13A     -1.444084    14A     -1.379541    15A     -1.369165
      16A     -1.285270    17A     -0.977103    18A     -0.954943
      19A     -0.948067    20A     -0.784881    21A     -0.712669
      22A     -0.708402    23A     -0.671434    24A     -0.660733
      25A     -0.645845    26A     -0.625665    27A     -0.618547
      28A     -0.612262    29A     -0.578062    30A     -0.542898
      31A     -0.531677    32A     -0.517466    33A     -0.500021
      34A     -0.492329    35A     -0.487139    36A     -0.459010
      37A     -0.454679

  @DF-RHF Final Energy:  -759.31221952933447

   => Energetics <=

    Nuclear Repulsion Energy =            548.1380171073601559
    One-Electron Energy =               -2136.1405008674255441
    Two-Electron Energy =                 828.6902642307309179
    Total Energy =                       -759.3122195293344703
  Basis Set: (AUG-CC-PVTZ AUX)
    Blend: AUG-CC-PVTZ-RI
    Molecular point group: c1

    Geometry (in Angstrom), charge = 0, multiplicity = 1:

       Center              X                  Y                   Z               Mass
    ------------   -----------------  -----------------  -----------------  -----------------
         P            0.091467841717    -0.064792610544    -0.347969834499    30.973761998420
         O            1.269627841717     0.718494389456     0.411065165501    15.994914619570
         O           -0.529824158283    -0.917668610544     0.879520165501    15.994914619570
         O           -0.959889258283     1.099327789456    -0.674833034499    15.994914619570
         O            0.418618041717    -0.819232110544    -1.575039034499    15.994914619570
         C            2.467429841717    -0.036004610544     0.704448165501    12.000000000000
         C           -1.544127158283    -1.886338610544     0.525069165501    12.000000000000
         C           -1.312764158283     2.006712389456     0.457212165501    12.000000000000
         H            2.911366841717    -0.404617610544    -0.221048834499     1.007825032230
         H            2.233153841717    -0.869428610544     1.370013165501     1.007825032230
         H            3.140843841717     0.659428389456     1.201185165501     1.007825032230
         H           -2.385650158283    -1.393232610544     0.030824165501     1.007825032230
         H           -1.873504158283    -2.330046610544     1.462533165501     1.007825032230
         H           -1.123305158283    -2.648247610544    -0.133187834499     1.007825032230
         H           -1.616262158283     1.439764389456     1.339470165501     1.007825032230
         H           -2.145674158283     2.600255389456     0.085784165501     1.007825032230
         H           -0.465678158283     2.648562389456     0.699656165501     1.007825032230

  Basis Set: AUG-CC-PVTZ
    Blend: AUG-CC-PVTZ
  Basis Set: (AUG-CC-PVTZ AUX)
    Blend: AUG-CC-PVTZ-JKFIT
	 Reference Energy          =    -759.3122195293344703 [Eh]
	 Singles Energy            =      -0.0000000000000000 [Eh]
	 Same-Spin Energy          =      -0.4439704506220050 [Eh]
	 Opposite-Spin Energy      =      -1.3836409166889871 [Eh]
	 Correlation Energy        =      -1.8276113673109922 [Eh]
	 Total Energy              =    -761.1398308966454351 [Eh]

	 ================> DF-SCS-MP2 Energies <==================
	-----------------------------------------------------------
	 SCS Same-Spin Scale       =       0.3333333333333333 [-]
	 SCS Opposite-Spin Scale   =       1.2000000000000000 [-]
	 SCS Same-Spin Energy      =      -0.1479901502073350 [Eh]
	 SCS Opposite-Spin Energy  =      -1.6603691000267846 [Eh]
	 SCS Correlation Energy    =      -1.8083592502341195 [Eh]
	 SCS Total Energy          =    -761.1205787795686319 [Eh]
	-----------------------------------------------------------

  Dipole Moment: [D]
     X:    -0.7508      Y:     0.5770      Z:     3.8089     Total:     3.9249

*** Psi4 exiting successfully. Buy a developer a beer!
