                               Psi4 1.3.2 release

  ==> Input File <==

--------------------------------------------------------------------------
#psi4
#
memory 32 gb

molecule  {
0 1
  P        0.0877380    -0.0630770    -0.3573080
  O        1.2658980     0.7202100     0.4017270
  O       -0.5335540    -0.9159530     0.8701820
  O       -0.9574973     1.1356954    -0.6447583
  O        0.4465310    -0.8472510    -1.5565760
  C        2.4637000    -0.0342890     0.6951100
  C       -1.5478570    -1.8846230     0.5157310
  C       -1.3164940     2.0084280     0.4478740
  H        2.9076370    -0.4029020    -0.2303870
  H        2.2294240    -0.8677130     1.3606750
  H        3.1371140     0.6611440     1.1918470
  H       -2.3893800    -1.3915170     0.0214860
  H       -1.8772340    -2.3283310     1.4531950
  H       -1.1270350    -2.6465320    -0.1425260
  H       -1.6229502     1.4578483     1.3394271
  H       -2.1494040     2.6019710     0.0764460
  H       -0.4694080     2.6502780     0.6903180
units angstrom
no_reorient  #important for SAPT in psi4, default
symmetry c1  #important for SAPT in psi4, default
}

set PROPERTIES_ORIGIN ["COM"]
properties('MP2/aug-cc-pvtz', properties = ['dipole'])
--------------------------------------------------------------------------

    Molecular point group: c1
  Charge       = 0
  Multiplicity = 1
  Basis Set: AUG-CC-PVTZ
    Blend: AUG-CC-PVTZ
  Basis Set: (AUG-CC-PVTZ AUX)
    Blend: AUG-CC-PVTZ-JKFIT

    Orbital Energies [Eh]
    ---------------------

    Doubly Occupied:

       1A    -80.100955     2A    -20.595250     3A    -20.593484
       4A    -20.593199     5A    -20.509146     6A    -11.296195
       7A    -11.295009     8A    -11.294128     9A     -7.616828
      10A     -5.515255    11A     -5.514948    12A     -5.513752
      13A     -1.446081    14A     -1.379305    15A     -1.376704
      16A     -1.290889    17A     -0.978713    18A     -0.953258
      19A     -0.947492    20A     -0.786356    21A     -0.713855
      22A     -0.711685    23A     -0.672577    24A     -0.662916
      25A     -0.649154    26A     -0.628862    27A     -0.618668
      28A     -0.614087    29A     -0.583384    30A     -0.540788
      31A     -0.528613    32A     -0.516825    33A     -0.498414
      34A     -0.491595    35A     -0.483765    36A     -0.464585
      37A     -0.458656

  @DF-RHF Final Energy:  -759.31474034940197

   => Energetics <=

    Nuclear Repulsion Energy =            548.3806926294395225
    One-Electron Energy =               -2136.5201154101855536
    Two-Electron Energy =                 828.8246824313439447
    Total Energy =                       -759.3147403494019727
  Basis Set: (AUG-CC-PVTZ AUX)
    Blend: AUG-CC-PVTZ-RI
    Molecular point group: c1

    Geometry (in Angstrom), charge = 0, multiplicity = 1:

       Center              X                  Y                   Z               Mass
    ------------   -----------------  -----------------  -----------------  -----------------
         P            0.087175285679    -0.065472147480    -0.355714598395    30.973761998420
         O            1.265335285679     0.717814852520     0.403320401605    15.994914619570
         O           -0.534116714321    -0.918348147480     0.871775401605    15.994914619570
         O           -0.958060014321     1.133300252520    -0.643164898395    15.994914619570
         O            0.445968285679    -0.849646147480    -1.554982598395    15.994914619570
         C            2.463137285679    -0.036684147480     0.696703401605    12.000000000000
         C           -1.548419714321    -1.887018147480     0.517324401605    12.000000000000
         C           -1.317056714321     2.006032852520     0.449467401605    12.000000000000
         H            2.907074285679    -0.405297147480    -0.228793598395     1.007825032230
         H            2.228861285679    -0.870108147480     1.362268401605     1.007825032230
         H            3.136551285679     0.658748852520     1.193440401605     1.007825032230
         H           -2.389942714321    -1.393912147480     0.023079401605     1.007825032230
         H           -1.877796714321    -2.330726147480     1.454788401605     1.007825032230
         H           -1.127597714321    -2.648927147480    -0.140932598395     1.007825032230
         H           -1.623512914321     1.455453152520     1.341020501605     1.007825032230
         H           -2.149966714321     2.599575852520     0.078039401605     1.007825032230
         H           -0.469970714321     2.647882852520     0.691911401605     1.007825032230

  Basis Set: AUG-CC-PVTZ
    Blend: AUG-CC-PVTZ
  Basis Set: (AUG-CC-PVTZ AUX)
    Blend: AUG-CC-PVTZ-JKFIT
	 Reference Energy          =    -759.3147403494019727 [Eh]
	 Singles Energy            =      -0.0000000000000000 [Eh]
	 Same-Spin Energy          =      -0.4438830135368288 [Eh]
	 Opposite-Spin Energy      =      -1.3829293070625277 [Eh]
	 Correlation Energy        =      -1.8268123205993565 [Eh]
	 Total Energy              =    -761.1415526700013743 [Eh]

	 ================> DF-SCS-MP2 Energies <==================
	-----------------------------------------------------------
	 SCS Same-Spin Scale       =       0.3333333333333333 [-]
	 SCS Opposite-Spin Scale   =       1.2000000000000000 [-]
	 SCS Same-Spin Energy      =      -0.1479610045122763 [Eh]
	 SCS Opposite-Spin Energy  =      -1.6595151684750331 [Eh]
	 SCS Correlation Energy    =      -1.8074761729873094 [Eh]
	 SCS Total Energy          =    -761.1222165223892944 [Eh]
	-----------------------------------------------------------

  Dipole Moment: [D]
     X:    -0.7769      Y:     0.4488      Z:     3.5749     Total:     3.6858

*** Psi4 exiting successfully. Buy a developer a beer!
