                               Psi4 1.3.2 release

  ==> Input File <==

--------------------------------------------------------------------------
#psi4
#
memory 32 gb

molecule  {
0 1
  P        0.0877380    -0.0630770    -0.3573080
  O        1.2750903     0.7153668     0.3923275
  O       -0.5335540    -0.9159530     0.8701820
  O       -0.9626110     1.1157580    -0.6302230
  O        0.4588418    -0.8437097    -1.5551392
  C        2.4637000    -0.0342890     0.6951100
  C       -1.5478570    -1.8846230     0.5157310
  C       -1.3164940     2.0084280     0.4478740
  H        2.9076370    -0.4029020    -0.2303870
  H        2.2294240    -0.8677130     1.3606750
  H        3.1371140     0.6611440     1.1918470
  H       -2.3893800    -1.3915170     0.0214860
  H       -1.8772340    -2.3283310     1.4531950
  H       -1.1270350    -2.6465320    -0.1425260
  H       -1.6199920     1.4414800     1.3301320
  H       -2.1494040     2.6019710     0.0764460
  H       -0.4694080     2.6502780     0.6903180
units angstrom
no_reorient  #important for SAPT in psi4, default
symmetry c1  #important for SAPT in psi4, default
}

set PROPERTIES_ORIGIN ["COM"]
properties('MP2/aug-cc-pvtz', properties = ['dipole'])
--------------------------------------------------------------------------

    Molecular point group: c1
  Charge       = 0
  Multiplicity = 1
  Basis Set: AUG-CC-PVTZ
    Blend: AUG-CC-PVTZ
  Basis Set: (AUG-CC-PVTZ AUX)
    Blend: AUG-CC-PVTZ-JKFIT

    Orbital Energies [Eh]
    ---------------------

    Doubly Occupied:

       1A    -80.099695     2A    -20.594099     3A    -20.593706
       4A    -20.592078     5A    -20.507886     6A    -11.296205
       7A    -11.295948     8A    -11.293161     9A     -7.615776
      10A     -5.514223    11A     -5.513934    12A     -5.512681
      13A     -1.447893    14A     -1.380113    15A     -1.378974
      16A     -1.289947    17A     -0.979481    18A     -0.955080
      19A     -0.946978    20A     -0.786228    21A     -0.715165
      22A     -0.712145    23A     -0.673605    24A     -0.664282
      25A     -0.649679    26A     -0.631082    27A     -0.618605
      28A     -0.615629    29A     -0.582681    30A     -0.541166
      31A     -0.528453    32A     -0.515809    33A     -0.498019
      34A     -0.491342    35A     -0.484816    36A     -0.463590
      37A     -0.457327

  @DF-RHF Final Energy:  -759.31637058077956

   => Energetics <=

    Nuclear Repulsion Energy =            549.0947509894537006
    One-Electron Energy =               -2137.9472731666305663
    Two-Electron Energy =                 829.5361515963974171
    Total Energy =                       -759.3163705807795623
  Basis Set: (AUG-CC-PVTZ AUX)
    Blend: AUG-CC-PVTZ-RI
    Molecular point group: c1

    Geometry (in Angstrom), charge = 0, multiplicity = 1:

       Center              X                  Y                   Z               Mass
    ------------   -----------------  -----------------  -----------------  -----------------
         P            0.085281833887    -0.062928172412    -0.356398484349    30.973761998420
         O            1.272634133887     0.715515627588     0.393237015651    15.994914619570
         O           -0.536010166113    -0.915804172412     0.871091515651    15.994914619570
         O           -0.965067166113     1.115906827588    -0.629313484349    15.994914619570
         O            0.456385633887    -0.843560872412    -1.554229684349    15.994914619570
         C            2.461243833887    -0.034140172412     0.696019515651    12.000000000000
         C           -1.550313166113    -1.884474172412     0.516640515651    12.000000000000
         C           -1.318950166113     2.008576827588     0.448783515651    12.000000000000
         H            2.905180833887    -0.402753172412    -0.229477484349     1.007825032230
         H            2.226967833887    -0.867564172412     1.361584515651     1.007825032230
         H            3.134657833887     0.661292827588     1.192756515651     1.007825032230
         H           -2.391836166113    -1.391368172412     0.022395515651     1.007825032230
         H           -1.879690166113    -2.328182172412     1.454104515651     1.007825032230
         H           -1.129491166113    -2.646383172412    -0.141616484349     1.007825032230
         H           -1.622448166113     1.441628827588     1.331041515651     1.007825032230
         H           -2.151860166113     2.602119827588     0.077355515651     1.007825032230
         H           -0.471864166113     2.650426827588     0.691227515651     1.007825032230

  Basis Set: AUG-CC-PVTZ
    Blend: AUG-CC-PVTZ
  Basis Set: (AUG-CC-PVTZ AUX)
    Blend: AUG-CC-PVTZ-JKFIT
	 Reference Energy          =    -759.3163705807795623 [Eh]
	 Singles Energy            =      -0.0000000000000000 [Eh]
	 Same-Spin Energy          =      -0.4436214217806129 [Eh]
	 Opposite-Spin Energy      =      -1.3821182216068999 [Eh]
	 Correlation Energy        =      -1.8257396433875128 [Eh]
	 Total Energy              =    -761.1421102241670269 [Eh]

	 ================> DF-SCS-MP2 Energies <==================
	-----------------------------------------------------------
	 SCS Same-Spin Scale       =       0.3333333333333333 [-]
	 SCS Opposite-Spin Scale   =       1.2000000000000000 [-]
	 SCS Same-Spin Energy      =      -0.1478738072602043 [Eh]
	 SCS Opposite-Spin Energy  =      -1.6585418659282798 [Eh]
	 SCS Correlation Energy    =      -1.8064156731884842 [Eh]
	 SCS Total Energy          =    -761.1227862539680018 [Eh]
	-----------------------------------------------------------

  Dipole Moment: [D]
     X:    -0.8814      Y:     0.5553      Z:     3.5567     Total:     3.7061

*** Psi4 exiting successfully. Buy a developer a beer!
