                               Psi4 1.3.2 release

  ==> Input File <==

--------------------------------------------------------------------------
#psi4
#
memory 32 gb

molecule  {
0 1
  P        0.0877380    -0.0630770    -0.3573080
  O        1.2658980     0.7202100     0.4017270
  O       -0.5335540    -0.9159530     0.8701820
  O       -0.9524930     1.1558987    -0.6589607
  O        0.4465310    -0.8472510    -1.5565760
  C        2.4637000    -0.0342890     0.6951100
  C       -1.5478570    -1.8846230     0.5157310
  C       -1.3164940     2.0084280     0.4478740
  H        2.9076370    -0.4029020    -0.2303870
  H        2.2294240    -0.8677130     1.3606750
  H        3.1371140     0.6611440     1.1918470
  H       -2.3893800    -1.3915170     0.0214860
  H       -1.8772340    -2.3283310     1.4531950
  H       -1.1270350    -2.6465320    -0.1425260
  H       -1.6258150     1.4743843     1.3484505
  H       -2.1494040     2.6019710     0.0764460
  H       -0.4694080     2.6502780     0.6903180
units angstrom
no_reorient  #important for SAPT in psi4, default
symmetry c1  #important for SAPT in psi4, default
}

set PROPERTIES_ORIGIN ["COM"]
properties('MP2/aug-cc-pvtz', properties = ['dipole'])
--------------------------------------------------------------------------

    Molecular point group: c1
  Charge       = 0
  Multiplicity = 1
  Basis Set: AUG-CC-PVTZ
    Blend: AUG-CC-PVTZ
  Basis Set: (AUG-CC-PVTZ AUX)
    Blend: AUG-CC-PVTZ-JKFIT

    Orbital Energies [Eh]
    ---------------------

    Doubly Occupied:

       1A    -80.102586     2A    -20.597238     3A    -20.593880
       4A    -20.593699     5A    -20.509877     6A    -11.297109
       7A    -11.295308     8A    -11.292712     9A     -7.618231
      10A     -5.516638    11A     -5.516309    12A     -5.515171
      13A     -1.445092    14A     -1.380360    15A     -1.374761
      16A     -1.291515    17A     -0.978595    18A     -0.952149
      19A     -0.947563    20A     -0.786847    21A     -0.713373
      22A     -0.711730    23A     -0.672327    24A     -0.662403
      25A     -0.649083    26A     -0.627011    27A     -0.619442
      28A     -0.613953    29A     -0.583923    30A     -0.540802
      31A     -0.527986    32A     -0.517741    33A     -0.498647
      34A     -0.491930    35A     -0.482783    36A     -0.464928
      37A     -0.459415

  @DF-RHF Final Energy:  -759.31274932107283

   => Energetics <=

    Nuclear Repulsion Energy =            547.7024138747674442
    One-Electron Energy =               -2135.1440891268161977
    Two-Electron Energy =                 828.1289259309759245
    Total Energy =                       -759.3127493210728289
  Basis Set: (AUG-CC-PVTZ AUX)
    Blend: AUG-CC-PVTZ-RI
    Molecular point group: c1

    Geometry (in Angstrom), charge = 0, multiplicity = 1:

       Center              X                  Y                   Z               Mass
    ------------   -----------------  -----------------  -----------------  -----------------
         P            0.086624264290    -0.067898987361    -0.354157205325    30.973761998420
         O            1.264784264290     0.715388012639     0.404877794675    15.994914619570
         O           -0.534667735710    -0.920774987361     0.873332794675    15.994914619570
         O           -0.953606735710     1.151076712639    -0.655809905325    15.994914619570
         O            0.445417264290    -0.852072987361    -1.553425205325    15.994914619570
         C            2.462586264290    -0.039110987361     0.698260794675    12.000000000000
         C           -1.548970735710    -1.889444987361     0.518881794675    12.000000000000
         C           -1.317607735710     2.003606012639     0.451024794675    12.000000000000
         H            2.906523264290    -0.407723987361    -0.227236205325     1.007825032230
         H            2.228310264290    -0.872534987361     1.363825794675     1.007825032230
         H            3.136000264290     0.656322012639     1.194997794675     1.007825032230
         H           -2.390493735710    -1.396338987361     0.024636794675     1.007825032230
         H           -1.878347735710    -2.333152987361     1.456345794675     1.007825032230
         H           -1.128148735710    -2.651353987361    -0.139375205325     1.007825032230
         H           -1.626928735710     1.469562312639     1.351601294675     1.007825032230
         H           -2.150517735710     2.597149012639     0.079596794675     1.007825032230
         H           -0.470521735710     2.645456012639     0.693468794675     1.007825032230

  Basis Set: AUG-CC-PVTZ
    Blend: AUG-CC-PVTZ
  Basis Set: (AUG-CC-PVTZ AUX)
    Blend: AUG-CC-PVTZ-JKFIT
	 Reference Energy          =    -759.3127493210728289 [Eh]
	 Singles Energy            =      -0.0000000000000000 [Eh]
	 Same-Spin Energy          =      -0.4440893777172109 [Eh]
	 Opposite-Spin Energy      =      -1.3835260068622544 [Eh]
	 Correlation Energy        =      -1.8276153845794654 [Eh]
	 Total Energy              =    -761.1403647056522459 [Eh]

	 ================> DF-SCS-MP2 Energies <==================
	-----------------------------------------------------------
	 SCS Same-Spin Scale       =       0.3333333333333333 [-]
	 SCS Opposite-Spin Scale   =       1.2000000000000000 [-]
	 SCS Same-Spin Energy      =      -0.1480297925724036 [Eh]
	 SCS Opposite-Spin Energy  =      -1.6602312082347053 [Eh]
	 SCS Correlation Energy    =      -1.8082610008071089 [Eh]
	 SCS Total Energy          =    -761.1210103218799077 [Eh]
	-----------------------------------------------------------

  Dipole Moment: [D]
     X:    -0.7628      Y:     0.3507      Z:     3.6045     Total:     3.7009

*** Psi4 exiting successfully. Buy a developer a beer!
