                               Psi4 1.4a3.dev225

  ==> Input File <==

--------------------------------------------------------------------------
#psi4
#
memory 32 gb

molecule  {
0 1
  P       -0.0574490    -0.0471570     0.4194890
  O       -1.2961560     0.7325110    -0.2482760
  O        0.4722150    -0.8939050    -0.8603530
  O        0.9903180     1.1487510     0.6268930
  O       -0.2961570    -0.8492890     1.6393190
  C       -2.4621590    -0.0544570    -0.5825580
  C        1.4348004    -2.0024563    -0.5687989
  C        1.2646580     2.0469880    -0.4710390
  H       -2.8060190    -0.6071020     0.2936840
  H       -2.2248990    -0.7417540    -1.3968370
  H       -3.2216950     0.6578470    -0.8995060
  H        2.3395400    -1.5606100    -0.1879150
  H        1.5821260    -2.4612230    -1.5311740
  H        0.9711350    -2.6604290     0.1425970
  H        1.5228770     1.4835030    -1.3699410
  H        2.1109000     2.6527310    -0.1513160
  H        0.3951430     2.6772290    -0.6597860
units angstrom
no_reorient  #important for SAPT in psi4, default
symmetry c1  #important for SAPT in psi4, default
}

set PROPERTIES_ORIGIN ["COM"]
properties('MP2/aug-cc-pvtz', properties = ['dipole'])
--------------------------------------------------------------------------

    Molecular point group: c1
  Charge       = 0
  Multiplicity = 1
  Basis Set: AUG-CC-PVTZ
    Blend: AUG-CC-PVTZ
  Basis Set: (AUG-CC-PVTZ AUX)
    Blend: AUG-CC-PVTZ-JKFIT

    Orbital Energies [Eh]
    ---------------------

    Doubly Occupied:

       1A    -80.097879     2A    -20.592036     3A    -20.590548
       4A    -20.588615     5A    -20.507133     6A    -11.295843
       7A    -11.294184     8A    -11.293809     9A     -7.613617
      10A     -5.512090    11A     -5.511752    12A     -5.510563
      13A     -1.440929    14A     -1.375801    15A     -1.364567
      16A     -1.287417    17A     -0.978036    18A     -0.954407
      19A     -0.948419    20A     -0.781796    21A     -0.711027
      22A     -0.705409    23A     -0.669421    24A     -0.660512
      25A     -0.647860    26A     -0.631494    27A     -0.613008
      28A     -0.608023    29A     -0.583042    30A     -0.543847
      31A     -0.526496    32A     -0.516380    33A     -0.498113
      34A     -0.493121    35A     -0.482457    36A     -0.462624
      37A     -0.456397

  @DF-RHF Final Energy:  -759.31282864630441

   => Energetics <=

    Nuclear Repulsion Energy =            547.1055289217445079
    One-Electron Energy =               -2134.1393715904619057
    Two-Electron Energy =                 827.7210140224129873
    Total Energy =                       -759.3128286463044105
  Basis Set: (AUG-CC-PVTZ AUX)
    Blend: AUG-CC-PVTZ-RI
    Molecular point group: c1

    Geometry (in Angstrom), charge = 0, multiplicity = 1:

       Center              X                  Y                   Z               Mass
    ------------   -----------------  -----------------  -----------------  -----------------
         P           -0.055068726277    -0.047617379167     0.374963903870    30.973761998420
         O           -1.293775726277     0.732050620833    -0.292801096130    15.994914619570
         O            0.474595273723    -0.894365379167    -0.904878096130    15.994914619570
         O            0.992698273723     1.148290620833     0.582367903870    15.994914619570
         O           -0.293776726277    -0.849749379167     1.594793903870    15.994914619570
         C           -2.459778726277    -0.054917379167    -0.627083096130    12.000000000000
         C            1.437180673723    -2.002916679167    -0.613323996130    12.000000000000
         C            1.267038273723     2.046527620833    -0.515564096130    12.000000000000
         H           -2.803638726277    -0.607562379167     0.249158903870     1.007825032230
         H           -2.222518726277    -0.742214379167    -1.441362096130     1.007825032230
         H           -3.219314726277     0.657386620833    -0.944031096130     1.007825032230
         H            2.341920273723    -1.561070379167    -0.232440096130     1.007825032230
         H            1.584506273723    -2.461683379167    -1.575699096130     1.007825032230
         H            0.973515273723    -2.660889379167     0.098071903870     1.007825032230
         H            1.525257273723     1.483042620833    -1.414466096130     1.007825032230
         H            2.113280273723     2.652270620833    -0.195841096130     1.007825032230
         H            0.397523273723     2.676768620833    -0.704311096130     1.007825032230

  Basis Set: AUG-CC-PVTZ
    Blend: AUG-CC-PVTZ
  Basis Set: (AUG-CC-PVTZ AUX)
    Blend: AUG-CC-PVTZ-JKFIT
	 Reference Energy          =    -759.3128286463044105 [Eh]
	 Singles Energy            =      -0.0000000000000000 [Eh]
	 Same-Spin Energy          =      -0.4438558886744012 [Eh]
	 Opposite-Spin Energy      =      -1.3833451388684272 [Eh]
	 Correlation Energy        =      -1.8272010275428285 [Eh]
	 Total Energy              =    -761.1400296738472662 [Eh]

	 ================> DF-SCS-MP2 Energies <==================
	-----------------------------------------------------------
	 SCS Same-Spin Scale       =       0.3333333333333333 [-]
	 SCS Opposite-Spin Scale   =       1.2000000000000000 [-]
	 SCS Same-Spin Energy      =      -0.1479519628914671 [Eh]
	 SCS Opposite-Spin Energy  =      -1.6600141666421127 [Eh]
	 SCS Correlation Energy    =      -1.8079661295335798 [Eh]
	 SCS Total Energy          =    -761.1207947758380215 [Eh]
	-----------------------------------------------------------

  Dipole Moment: [D]
     X:     0.5382      Y:     0.2605      Z:    -3.7314     Total:     3.7791

*** Psi4 exiting successfully. Buy a developer a beer!
