                               Psi4 1.3.2 release

  ==> Input File <==

--------------------------------------------------------------------------
#psi4
#
memory 32 gb

molecule  {
0 1
  P        0.0877380    -0.0630770    -0.3573080
  O        1.2566160     0.7249935     0.4110687
  O       -0.5335540    -0.9159530     0.8701820
  O       -0.9626110     1.1157580    -0.6302230
  O        0.4341929    -0.8507326    -1.5579215
  C        2.4637000    -0.0342890     0.6951100
  C       -1.5478570    -1.8846230     0.5157310
  C       -1.3164940     2.0084280     0.4478740
  H        2.9076370    -0.4029020    -0.2303870
  H        2.2294240    -0.8677130     1.3606750
  H        3.1371140     0.6611440     1.1918470
  H       -2.3893800    -1.3915170     0.0214860
  H       -1.8772340    -2.3283310     1.4531950
  H       -1.1270350    -2.6465320    -0.1425260
  H       -1.6199920     1.4414800     1.3301320
  H       -2.1494040     2.6019710     0.0764460
  H       -0.4694080     2.6502780     0.6903180
units angstrom
no_reorient  #important for SAPT in psi4, default
symmetry c1  #important for SAPT in psi4, default
}

set PROPERTIES_ORIGIN ["COM"]
properties('MP2/aug-cc-pvtz', properties = ['dipole'])
--------------------------------------------------------------------------

    Molecular point group: c1
  Charge       = 0
  Multiplicity = 1
  Basis Set: AUG-CC-PVTZ
    Blend: AUG-CC-PVTZ
  Basis Set: (AUG-CC-PVTZ AUX)
    Blend: AUG-CC-PVTZ-JKFIT

    Orbital Energies [Eh]
    ---------------------

    Doubly Occupied:

       1A    -80.098973     2A    -20.594104     3A    -20.592371
       4A    -20.591633     5A    -20.509002     6A    -11.296297
       7A    -11.294846     8A    -11.294598     9A     -7.615117
      10A     -5.513586    11A     -5.513258    12A     -5.512020
      13A     -1.446619    14A     -1.377435    15A     -1.376890
      16A     -1.290624    17A     -0.978557    18A     -0.953907
      19A     -0.947278    20A     -0.785483    21A     -0.713493
      22A     -0.711161    23A     -0.672549    24A     -0.662654
      25A     -0.648907    26A     -0.629618    27A     -0.617129
      28A     -0.612682    29A     -0.583123    30A     -0.540372
      31A     -0.530140    32A     -0.516106    33A     -0.498472
      34A     -0.491202    35A     -0.483953    36A     -0.464704
      37A     -0.458366

  @DF-RHF Final Energy:  -759.31557420316392

   => Energetics <=

    Nuclear Repulsion Energy =            549.0152939846238951
    One-Electron Energy =               -2137.8272816950811830
    Two-Electron Energy =                 829.4964135072933686
    Total Energy =                       -759.3155742031639193
  Basis Set: (AUG-CC-PVTZ AUX)
    Blend: AUG-CC-PVTZ-RI
    Molecular point group: c1

    Geometry (in Angstrom), charge = 0, multiplicity = 1:

       Center              X                  Y                   Z               Mass
    ------------   -----------------  -----------------  -----------------  -----------------
         P            0.090207794165    -0.063225604313    -0.358221468438    30.973761998420
         O            1.259085794165     0.724844895687     0.410155231562    15.994914619570
         O           -0.531084205835    -0.916101604313     0.869268531562    15.994914619570
         O           -0.960141205835     1.115609395687    -0.631136468438    15.994914619570
         O            0.436662694165    -0.850881204313    -1.558834968438    15.994914619570
         C            2.466169794165    -0.034437604313     0.694196531562    12.000000000000
         C           -1.545387205835    -1.884771604313     0.514817531562    12.000000000000
         C           -1.314024205835     2.008279395687     0.446960531562    12.000000000000
         H            2.910106794165    -0.403050604313    -0.231300468438     1.007825032230
         H            2.231893794165    -0.867861604313     1.359761531562     1.007825032230
         H            3.139583794165     0.660995395687     1.190933531562     1.007825032230
         H           -2.386910205835    -1.391665604313     0.020572531562     1.007825032230
         H           -1.874764205835    -2.328479604313     1.452281531562     1.007825032230
         H           -1.124565205835    -2.646680604313    -0.143439468438     1.007825032230
         H           -1.617522205835     1.441331395687     1.329218531562     1.007825032230
         H           -2.146934205835     2.601822395687     0.075532531562     1.007825032230
         H           -0.466938205835     2.650129395687     0.689404531562     1.007825032230

  Basis Set: AUG-CC-PVTZ
    Blend: AUG-CC-PVTZ
  Basis Set: (AUG-CC-PVTZ AUX)
    Blend: AUG-CC-PVTZ-JKFIT
	 Reference Energy          =    -759.3155742031639193 [Eh]
	 Singles Energy            =      -0.0000000000000000 [Eh]
	 Same-Spin Energy          =      -0.4437916196488741 [Eh]
	 Opposite-Spin Energy      =      -1.3826680688207513 [Eh]
	 Correlation Energy        =      -1.8264596884696254 [Eh]
	 Total Energy              =    -761.1420338916335595 [Eh]

	 ================> DF-SCS-MP2 Energies <==================
	-----------------------------------------------------------
	 SCS Same-Spin Scale       =       0.3333333333333333 [-]
	 SCS Opposite-Spin Scale   =       1.2000000000000000 [-]
	 SCS Same-Spin Energy      =      -0.1479305398829580 [Eh]
	 SCS Opposite-Spin Energy  =      -1.6592016825849016 [Eh]
	 SCS Correlation Energy    =      -1.8071322224678597 [Eh]
	 SCS Total Energy          =    -761.1227064256318044 [Eh]
	-----------------------------------------------------------

  Dipole Moment: [D]
     X:    -0.6983      Y:     0.5368      Z:     3.5305     Total:     3.6387

*** Psi4 exiting successfully. Buy a developer a beer!
