                               Psi4 1.3.2 release

  ==> Input File <==

--------------------------------------------------------------------------
#psi4
#
memory 32 gb

molecule  {
0 1
  P        0.0877380    -0.0630770    -0.3573080
  O        1.2658980     0.7202100     0.4017270
  O       -0.5406679    -0.9067744     0.8652305
  O       -0.9626110     1.1157580    -0.6302230
  O        0.4465310    -0.8472510    -1.5565760
  C        2.4637000    -0.0342890     0.6951100
  C       -1.5478570    -1.8846230     0.5157310
  C       -1.3164940     2.0084280     0.4478740
  H        2.9076370    -0.4029020    -0.2303870
  H        2.2294240    -0.8677130     1.3606750
  H        3.1371140     0.6611440     1.1918470
  H       -2.3849400    -1.3831201     0.0223959
  H       -1.8772340    -2.3283310     1.4531950
  H       -1.1270350    -2.6465320    -0.1425260
  H       -1.6199920     1.4414800     1.3301320
  H       -2.1494040     2.6019710     0.0764460
  H       -0.4694080     2.6502780     0.6903180
units angstrom
no_reorient  #important for SAPT in psi4, default
symmetry c1  #important for SAPT in psi4, default
}

set PROPERTIES_ORIGIN ["COM"]
properties('MP2/aug-cc-pvtz', properties = ['dipole'])
--------------------------------------------------------------------------

    Molecular point group: c1
  Charge       = 0
  Multiplicity = 1
  Basis Set: AUG-CC-PVTZ
    Blend: AUG-CC-PVTZ
  Basis Set: (AUG-CC-PVTZ AUX)
    Blend: AUG-CC-PVTZ-JKFIT

    Orbital Energies [Eh]
    ---------------------

    Doubly Occupied:

       1A    -80.098660     2A    -20.592976     3A    -20.592960
       4A    -20.591680     5A    -20.508266     6A    -11.295846
       7A    -11.295060     8A    -11.294751     9A     -7.614873
      10A     -5.513323    11A     -5.513041    12A     -5.511784
      13A     -1.447744    14A     -1.378968    15A     -1.377931
      16A     -1.290140    17A     -0.979347    18A     -0.954313
      19A     -0.947425    20A     -0.785595    21A     -0.714619
      22A     -0.711671    23A     -0.673214    24A     -0.663738
      25A     -0.649287    26A     -0.630202    27A     -0.618745
      28A     -0.613957    29A     -0.582818    30A     -0.540658
      31A     -0.528996    32A     -0.516015    33A     -0.498137
      34A     -0.491735    35A     -0.483722    36A     -0.464051
      37A     -0.457911

  @DF-RHF Final Energy:  -759.31644161313989

   => Energetics <=

    Nuclear Repulsion Energy =            549.3263673443229891
    One-Electron Energy =               -2138.4372967875042377
    Two-Electron Energy =                 829.7944878300413620
    Total Energy =                       -759.3164416131398866
  Basis Set: (AUG-CC-PVTZ AUX)
    Blend: AUG-CC-PVTZ-RI
    Molecular point group: c1

    Geometry (in Angstrom), charge = 0, multiplicity = 1:

       Center              X                  Y                   Z               Mass
    ------------   -----------------  -----------------  -----------------  -----------------
         P            0.088518794892    -0.064185796124    -0.356749002553    30.973761998420
         O            1.266678794892     0.719101203876     0.402285997447    15.994914619570
         O           -0.539887105108    -0.907883196124     0.865789497447    15.994914619570
         O           -0.961830205108     1.114649203876    -0.629664002553    15.994914619570
         O            0.447311794892    -0.848359796124    -1.556017002553    15.994914619570
         C            2.464480794892    -0.035397796124     0.695668997447    12.000000000000
         C           -1.547076205108    -1.885731796124     0.516289997447    12.000000000000
         C           -1.315713205108     2.007319203876     0.448432997447    12.000000000000
         H            2.908417794892    -0.404010796124    -0.229828002553     1.007825032230
         H            2.230204794892    -0.868821796124     1.361233997447     1.007825032230
         H            3.137894794892     0.660035203876     1.192405997447     1.007825032230
         H           -2.384159205108    -1.384228896124     0.022954897447     1.007825032230
         H           -1.876453205108    -2.329439796124     1.453753997447     1.007825032230
         H           -1.126254205108    -2.647640796124    -0.141967002553     1.007825032230
         H           -1.619211205108     1.440371203876     1.330690997447     1.007825032230
         H           -2.148623205108     2.600862203876     0.077004997447     1.007825032230
         H           -0.468627205108     2.649169203876     0.690876997447     1.007825032230

  Basis Set: AUG-CC-PVTZ
    Blend: AUG-CC-PVTZ
  Basis Set: (AUG-CC-PVTZ AUX)
    Blend: AUG-CC-PVTZ-JKFIT
	 Reference Energy          =    -759.3164416131398866 [Eh]
	 Singles Energy            =      -0.0000000000000000 [Eh]
	 Same-Spin Energy          =      -0.4436273001546306 [Eh]
	 Opposite-Spin Energy      =      -1.3821623801400871 [Eh]
	 Correlation Energy        =      -1.8257896802947178 [Eh]
	 Total Energy              =    -761.1422312934346337 [Eh]

	 ================> DF-SCS-MP2 Energies <==================
	-----------------------------------------------------------
	 SCS Same-Spin Scale       =       0.3333333333333333 [-]
	 SCS Opposite-Spin Scale   =       1.2000000000000000 [-]
	 SCS Same-Spin Energy      =      -0.1478757667182102 [Eh]
	 SCS Opposite-Spin Energy  =      -1.6585948561681045 [Eh]
	 SCS Correlation Energy    =      -1.8064706228863148 [Eh]
	 SCS Total Energy          =    -761.1229122360261954 [Eh]
	-----------------------------------------------------------

  Dipole Moment: [D]
     X:    -0.7830      Y:     0.5052      Z:     3.5631     Total:     3.6829

*** Psi4 exiting successfully. Buy a developer a beer!
