                               Psi4 1.3.2 release

  ==> Input File <==

--------------------------------------------------------------------------
#psi4
#
memory 32 gb

molecule  {
0 1
  P        0.0799600    -0.0514247    -0.3571304
  O        1.2658980     0.7202100     0.4017270
  O       -0.5335540    -0.9159530     0.8701820
  O       -0.9626110     1.1157580    -0.6302230
  O        0.4465310    -0.8472510    -1.5565760
  C        2.4687601    -0.0240594     0.7004874
  C       -1.5478570    -1.8846230     0.5157310
  C       -1.3164940     2.0084280     0.4478740
  H        2.9076370    -0.4029020    -0.2303870
  H        2.2294240    -0.8677130     1.3606750
  H        3.1371140     0.6611440     1.1918470
  H       -2.3893800    -1.3915170     0.0214860
  H       -1.8772340    -2.3283310     1.4531950
  H       -1.1270350    -2.6465320    -0.1425260
  H       -1.6199920     1.4414800     1.3301320
  H       -2.1494040     2.6019710     0.0764460
  H       -0.4694080     2.6502780     0.6903180
units angstrom
no_reorient  #important for SAPT in psi4, default
symmetry c1  #important for SAPT in psi4, default
}

set PROPERTIES_ORIGIN ["COM"]
properties('MP2/aug-cc-pvtz', properties = ['dipole'])
--------------------------------------------------------------------------

    Molecular point group: c1
  Charge       = 0
  Multiplicity = 1
  Basis Set: AUG-CC-PVTZ
    Blend: AUG-CC-PVTZ
  Basis Set: (AUG-CC-PVTZ AUX)
    Blend: AUG-CC-PVTZ-JKFIT

    Orbital Energies [Eh]
    ---------------------

    Doubly Occupied:

       1A    -80.099538     2A    -20.596231     3A    -20.592042
       4A    -20.592018     5A    -20.506284     6A    -11.297959
       7A    -11.294450     8A    -11.294339     9A     -7.615480
      10A     -5.513976    11A     -5.513671    12A     -5.512330
      13A     -1.448557    14A     -1.382183    15A     -1.376733
      16A     -1.284850    17A     -0.979925    18A     -0.956884
      19A     -0.946575    20A     -0.786184    21A     -0.715290
      22A     -0.712175    23A     -0.673057    24A     -0.664305
      25A     -0.650084    26A     -0.631602    27A     -0.617098
      28A     -0.615942    29A     -0.581070    30A     -0.541231
      31A     -0.529869    32A     -0.516269    33A     -0.498245
      34A     -0.490305    35A     -0.485683    36A     -0.460598
      37A     -0.454561

  @DF-RHF Final Energy:  -759.31584439355186

   => Energetics <=

    Nuclear Repulsion Energy =            548.9953104584263883
    One-Electron Energy =               -2137.7671257981287454
    Two-Electron Energy =                 829.4559709461503871
    Total Energy =                       -759.3158443935518562
  Basis Set: (AUG-CC-PVTZ AUX)
    Blend: AUG-CC-PVTZ-RI
    Molecular point group: c1

    Geometry (in Angstrom), charge = 0, multiplicity = 1:

       Center              X                  Y                   Z               Mass
    ------------   -----------------  -----------------  -----------------  -----------------
         P            0.081247003249    -0.054878791211    -0.357630590286    30.973761998420
         O            1.267185003249     0.716755908789     0.401226809714    15.994914619570
         O           -0.532266996751    -0.919407091211     0.869681809714    15.994914619570
         O           -0.961323996751     1.112303908789    -0.630723190286    15.994914619570
         O            0.447818003249    -0.850705091211    -1.557076190286    15.994914619570
         C            2.470047103249    -0.027513491211     0.699987209714    12.000000000000
         C           -1.546569996751    -1.888077091211     0.515230809714    12.000000000000
         C           -1.315206996751     2.004973908789     0.447373809714    12.000000000000
         H            2.908924003249    -0.406356091211    -0.230887190286     1.007825032230
         H            2.230711003249    -0.871167091211     1.360174809714     1.007825032230
         H            3.138401003249     0.657689908789     1.191346809714     1.007825032230
         H           -2.388092996751    -1.394971091211     0.020985809714     1.007825032230
         H           -1.875946996751    -2.331785091211     1.452694809714     1.007825032230
         H           -1.125747996751    -2.649986091211    -0.143026190286     1.007825032230
         H           -1.618704996751     1.438025908789     1.329631809714     1.007825032230
         H           -2.148116996751     2.598516908789     0.075945809714     1.007825032230
         H           -0.468120996751     2.646823908789     0.689817809714     1.007825032230

  Basis Set: AUG-CC-PVTZ
    Blend: AUG-CC-PVTZ
  Basis Set: (AUG-CC-PVTZ AUX)
    Blend: AUG-CC-PVTZ-JKFIT
	 Reference Energy          =    -759.3158443935518562 [Eh]
	 Singles Energy            =      -0.0000000000000000 [Eh]
	 Same-Spin Energy          =      -0.4437098911361372 [Eh]
	 Opposite-Spin Energy      =      -1.3823392864407784 [Eh]
	 Correlation Energy        =      -1.8260491775769156 [Eh]
	 Total Energy              =    -761.1418935711287759 [Eh]

	 ================> DF-SCS-MP2 Energies <==================
	-----------------------------------------------------------
	 SCS Same-Spin Scale       =       0.3333333333333333 [-]
	 SCS Opposite-Spin Scale   =       1.2000000000000000 [-]
	 SCS Same-Spin Energy      =      -0.1479032970453791 [Eh]
	 SCS Opposite-Spin Energy  =      -1.6588071437289340 [Eh]
	 SCS Correlation Energy    =      -1.8067104407743131 [Eh]
	 SCS Total Energy          =    -761.1225548343261380 [Eh]
	-----------------------------------------------------------

  Dipole Moment: [D]
     X:    -0.8649      Y:     0.7007      Z:     3.5695     Total:     3.7391

*** Psi4 exiting successfully. Buy a developer a beer!
