                               Psi4 1.3.2 release

  ==> Input File <==

--------------------------------------------------------------------------
#psi4
#
memory 32 gb

molecule  {
0 1
  P        0.0877380    -0.0630770    -0.3573080
  O        1.4126606     0.8177835     0.4962794
  O       -0.5335540    -0.9159530     0.8701820
  O       -0.9626110     1.1157580    -0.6302230
  O        0.4465310    -0.8472510    -1.5565760
  C        2.4637000    -0.0342890     0.6951100
  C       -1.5478570    -1.8846230     0.5157310
  C       -1.3164940     2.0084280     0.4478740
  H        2.9076370    -0.4029020    -0.2303870
  H        2.2294240    -0.8677130     1.3606750
  H        3.1371140     0.6611440     1.1918470
  H       -2.3893800    -1.3915170     0.0214860
  H       -1.8772340    -2.3283310     1.4531950
  H       -1.1270350    -2.6465320    -0.1425260
  H       -1.6199920     1.4414800     1.3301320
  H       -2.1494040     2.6019710     0.0764460
  H       -0.4694080     2.6502780     0.6903180
units angstrom
no_reorient  #important for SAPT in psi4, default
symmetry c1  #important for SAPT in psi4, default
}

set PROPERTIES_ORIGIN ["COM"]
properties('MP2/aug-cc-pvtz', properties = ['dipole'])
--------------------------------------------------------------------------

    Molecular point group: c1
  Charge       = 0
  Multiplicity = 1
  Basis Set: AUG-CC-PVTZ
    Blend: AUG-CC-PVTZ
  Basis Set: (AUG-CC-PVTZ AUX)
    Blend: AUG-CC-PVTZ-JKFIT

    Orbital Energies [Eh]
    ---------------------

    Doubly Occupied:

       1A    -80.120372     2A    -20.605831     3A    -20.605673
       4A    -20.588364     5A    -20.526118     6A    -11.303873
       7A    -11.301327     8A    -11.270022     9A     -7.634463
      10A     -5.532734    11A     -5.532340    12A     -5.531147
      13A     -1.443699    14A     -1.388725    15A     -1.372878
      16A     -1.305249    17A     -0.978560    18A     -0.961263
      19A     -0.922263    20A     -0.792273    21A     -0.714213
      22A     -0.712497    23A     -0.676208    24A     -0.660243
      25A     -0.651052    26A     -0.637819    27A     -0.624157
      28A     -0.606467    29A     -0.592096    30A     -0.547472
      31A     -0.537769    32A     -0.512912    33A     -0.498105
      34A     -0.489134    35A     -0.474655    36A     -0.466277
      37A     -0.457239

  @DF-RHF Final Energy:  -759.28091328131154

   => Energetics <=

    Nuclear Repulsion Energy =            542.7407162100420237
    One-Electron Energy =               -2124.8922850949193162
    Two-Electron Energy =                 822.8706556035656376
    Total Energy =                       -759.2809132813115411
  Basis Set: (AUG-CC-PVTZ AUX)
    Blend: AUG-CC-PVTZ-RI
    Molecular point group: c1

    Geometry (in Angstrom), charge = 0, multiplicity = 1:

       Center              X                  Y                   Z               Mass
    ------------   -----------------  -----------------  -----------------  -----------------
         P            0.070973449506    -0.074222702799    -0.368108777426    30.973761998420
         O            1.395896049506     0.806637797201     0.485478622574    15.994914619570
         O           -0.550318550494    -0.927098702799     0.859381222574    15.994914619570
         O           -0.979375550494     1.104612297201    -0.641023777426    15.994914619570
         O            0.429766449506    -0.858396702799    -1.567376777426    15.994914619570
         C            2.446935449506    -0.045434702799     0.684309222574    12.000000000000
         C           -1.564621550494    -1.895768702799     0.504930222574    12.000000000000
         C           -1.333258550494     1.997282297201     0.437073222574    12.000000000000
         H            2.890872449506    -0.414047702799    -0.241187777426     1.007825032230
         H            2.212659449506    -0.878858702799     1.349874222574     1.007825032230
         H            3.120349449506     0.649998297201     1.181046222574     1.007825032230
         H           -2.406144550494    -1.402662702799     0.010685222574     1.007825032230
         H           -1.893998550494    -2.339476702799     1.442394222574     1.007825032230
         H           -1.143799550494    -2.657677702799    -0.153326777426     1.007825032230
         H           -1.636756550494     1.430334297201     1.319331222574     1.007825032230
         H           -2.166168550494     2.590825297201     0.065645222574     1.007825032230
         H           -0.486172550494     2.639132297201     0.679517222574     1.007825032230

  Basis Set: AUG-CC-PVTZ
    Blend: AUG-CC-PVTZ
  Basis Set: (AUG-CC-PVTZ AUX)
    Blend: AUG-CC-PVTZ-JKFIT
	 Reference Energy          =    -759.2809132813115411 [Eh]
	 Singles Energy            =      -0.0000000000000000 [Eh]
	 Same-Spin Energy          =      -0.4461741737862445 [Eh]
	 Opposite-Spin Energy      =      -1.3886678805072492 [Eh]
	 Correlation Energy        =      -1.8348420542934938 [Eh]
	 Total Energy              =    -761.1157553356050585 [Eh]

	 ================> DF-SCS-MP2 Energies <==================
	-----------------------------------------------------------
	 SCS Same-Spin Scale       =       0.3333333333333333 [-]
	 SCS Opposite-Spin Scale   =       1.2000000000000000 [-]
	 SCS Same-Spin Energy      =      -0.1487247245954148 [Eh]
	 SCS Opposite-Spin Energy  =      -1.6664014566086991 [Eh]
	 SCS Correlation Energy    =      -1.8151261812041140 [Eh]
	 SCS Total Energy          =    -761.0960394625157051 [Eh]
	-----------------------------------------------------------

  Dipole Moment: [D]
     X:    -1.9775      Y:     0.2635      Z:     3.0148     Total:     3.6151

*** Psi4 exiting successfully. Buy a developer a beer!
