                               Psi4 1.3.2 release

  ==> Input File <==

--------------------------------------------------------------------------
#psi4
#
memory 32 gb

molecule  {
0 1
  P        0.0877380    -0.0630770    -0.3573080
  O        1.3392793     0.7689968     0.4490032
  O       -0.5335540    -0.9159530     0.8701820
  O       -0.9626110     1.1157580    -0.6302230
  O        0.4465310    -0.8472510    -1.5565760
  C        2.4637000    -0.0342890     0.6951100
  C       -1.5478570    -1.8846230     0.5157310
  C       -1.3164940     2.0084280     0.4478740
  H        2.9076370    -0.4029020    -0.2303870
  H        2.2294240    -0.8677130     1.3606750
  H        3.1371140     0.6611440     1.1918470
  H       -2.3893800    -1.3915170     0.0214860
  H       -1.8772340    -2.3283310     1.4531950
  H       -1.1270350    -2.6465320    -0.1425260
  H       -1.6199920     1.4414800     1.3301320
  H       -2.1494040     2.6019710     0.0764460
  H       -0.4694080     2.6502780     0.6903180
units angstrom
no_reorient  #important for SAPT in psi4, default
symmetry c1  #important for SAPT in psi4, default
}

set PROPERTIES_ORIGIN ["COM"]
properties('MP2/aug-cc-pvtz', properties = ['dipole'])
--------------------------------------------------------------------------

    Molecular point group: c1
  Charge       = 0
  Multiplicity = 1
  Basis Set: AUG-CC-PVTZ
    Blend: AUG-CC-PVTZ
  Basis Set: (AUG-CC-PVTZ AUX)
    Blend: AUG-CC-PVTZ-JKFIT

    Orbital Energies [Eh]
    ---------------------

    Doubly Occupied:

       1A    -80.111470     2A    -20.600032     3A    -20.599874
       4A    -20.590967     5A    -20.517783     6A    -11.299906
       7A    -11.298683     8A    -11.281033     9A     -7.626164
      10A     -5.524523    11A     -5.524201    12A     -5.523005
      13A     -1.443627    14A     -1.383961    15A     -1.374906
      16A     -1.298230    17A     -0.977277    18A     -0.957998
      19A     -0.936306    20A     -0.789063    21A     -0.713353
      22A     -0.712362    23A     -0.673851    24A     -0.662303
      25A     -0.650171    26A     -0.634380    27A     -0.621058
      28A     -0.609705    29A     -0.587586    30A     -0.543872
      31A     -0.533266    32A     -0.511820    33A     -0.495939
      34A     -0.490789    35A     -0.478995    36A     -0.469258
      37A     -0.461685

  @DF-RHF Final Energy:  -759.30374751136435

   => Energetics <=

    Nuclear Repulsion Energy =            545.7665489708954283
    One-Electron Energy =               -2131.1217884926832085
    Two-Electron Energy =                 826.0514920104234307
    Total Energy =                       -759.3037475113643495
  Basis Set: (AUG-CC-PVTZ AUX)
    Blend: AUG-CC-PVTZ-RI
    Molecular point group: c1

    Geometry (in Angstrom), charge = 0, multiplicity = 1:

       Center              X                  Y                   Z               Mass
    ------------   -----------------  -----------------  -----------------  -----------------
         P            0.079355790540    -0.068649801292    -0.362708420234    30.973761998420
         O            1.330897090540     0.763423998708     0.443602779766    15.994914619570
         O           -0.541936209460    -0.921525801292     0.864781579766    15.994914619570
         O           -0.970993209460     1.110185198708    -0.635623420234    15.994914619570
         O            0.438148790540    -0.852823801292    -1.561976420234    15.994914619570
         C            2.455317790540    -0.039861801292     0.689709579766    12.000000000000
         C           -1.556239209460    -1.890195801292     0.510330579766    12.000000000000
         C           -1.324876209460     2.002855198708     0.442473579766    12.000000000000
         H            2.899254790540    -0.408474801292    -0.235787420234     1.007825032230
         H            2.221041790540    -0.873285801292     1.355274579766     1.007825032230
         H            3.128731790540     0.655571198708     1.186446579766     1.007825032230
         H           -2.397762209460    -1.397089801292     0.016085579766     1.007825032230
         H           -1.885616209460    -2.333903801292     1.447794579766     1.007825032230
         H           -1.135417209460    -2.652104801292    -0.147926420234     1.007825032230
         H           -1.628374209460     1.435907198708     1.324731579766     1.007825032230
         H           -2.157786209460     2.596398198708     0.071045579766     1.007825032230
         H           -0.477790209460     2.644705198708     0.684917579766     1.007825032230

  Basis Set: AUG-CC-PVTZ
    Blend: AUG-CC-PVTZ
  Basis Set: (AUG-CC-PVTZ AUX)
    Blend: AUG-CC-PVTZ-JKFIT
	 Reference Energy          =    -759.3037475113643495 [Eh]
	 Singles Energy            =      -0.0000000000000000 [Eh]
	 Same-Spin Energy          =      -0.4448458518684941 [Eh]
	 Opposite-Spin Energy      =      -1.3853126237552953 [Eh]
	 Correlation Energy        =      -1.8301584756237894 [Eh]
	 Total Energy              =    -761.1339059869881112 [Eh]

	 ================> DF-SCS-MP2 Energies <==================
	-----------------------------------------------------------
	 SCS Same-Spin Scale       =       0.3333333333333333 [-]
	 SCS Opposite-Spin Scale   =       1.2000000000000000 [-]
	 SCS Same-Spin Energy      =      -0.1482819506228313 [Eh]
	 SCS Opposite-Spin Energy  =      -1.6623751485063543 [Eh]
	 SCS Correlation Energy    =      -1.8106570991291857 [Eh]
	 SCS Total Energy          =    -761.1144046104935796 [Eh]
	-----------------------------------------------------------

  Dipole Moment: [D]
     X:    -1.4264      Y:     0.3993      Z:     3.2655     Total:     3.5857

*** Psi4 exiting successfully. Buy a developer a beer!
