                               Psi4 1.4a3.dev225

  ==> Input File <==

--------------------------------------------------------------------------
#psi4
#
memory 32 gb

molecule  {
0 1
  P       -0.0574490    -0.0471570     0.4194890
  O       -1.2807567     0.7228184    -0.2399745
  O        0.4722150    -0.8939050    -0.8603530
  O        0.9903180     1.1487510     0.6268930
  O       -0.2961570    -0.8492890     1.6393190
  C       -2.4621590    -0.0544570    -0.5825580
  C        1.4026460    -1.9654260    -0.5785380
  C        1.2646580     2.0469880    -0.4710390
  H       -2.8060190    -0.6071020     0.2936840
  H       -2.2248990    -0.7417540    -1.3968370
  H       -3.2216950     0.6578470    -0.8995060
  H        2.3395400    -1.5606100    -0.1879150
  H        1.5821260    -2.4612230    -1.5311740
  H        0.9711350    -2.6604290     0.1425970
  H        1.5228770     1.4835030    -1.3699410
  H        2.1109000     2.6527310    -0.1513160
  H        0.3951430     2.6772290    -0.6597860
units angstrom
no_reorient  #important for SAPT in psi4, default
symmetry c1  #important for SAPT in psi4, default
}

set PROPERTIES_ORIGIN ["COM"]
properties('MP2/aug-cc-pvtz', properties = ['dipole'])
--------------------------------------------------------------------------

    Molecular point group: c1
  Charge       = 0
  Multiplicity = 1
  Basis Set: AUG-CC-PVTZ
    Blend: AUG-CC-PVTZ
  Basis Set: (AUG-CC-PVTZ AUX)
    Blend: AUG-CC-PVTZ-JKFIT

    Orbital Energies [Eh]
    ---------------------

    Doubly Occupied:

       1A    -80.098004     2A    -20.594480     3A    -20.591944
       4A    -20.590870     5A    -20.507140     6A    -11.298727
       7A    -11.294457     8A    -11.293064     9A     -7.614184
      10A     -5.512671    11A     -5.512349    12A     -5.511093
      13A     -1.447468    14A     -1.378042    15A     -1.376467
      16A     -1.288180    17A     -0.979792    18A     -0.952796
      19A     -0.948669    20A     -0.784786    21A     -0.713858
      22A     -0.710888    23A     -0.673639    24A     -0.661965
      25A     -0.649315    26A     -0.629852    27A     -0.616600
      28A     -0.615196    29A     -0.581580    30A     -0.539462
      31A     -0.527777    32A     -0.517197    33A     -0.498293
      34A     -0.492919    35A     -0.482210    36A     -0.462793
      37A     -0.457589

  @DF-RHF Final Energy:  -759.31617899801552

   => Energetics <=

    Nuclear Repulsion Energy =            548.9060323849445240
    One-Electron Energy =               -2137.6317940731705676
    Two-Electron Energy =                 829.4095826902106410
    Total Energy =                       -759.3161789980155163
  Basis Set: (AUG-CC-PVTZ AUX)
    Blend: AUG-CC-PVTZ-RI
    Molecular point group: c1

    Geometry (in Angstrom), charge = 0, multiplicity = 1:

       Center              X                  Y                   Z               Mass
    ------------   -----------------  -----------------  -----------------  -----------------
         P           -0.054072165223    -0.049683679296     0.374850261914    30.973761998420
         O           -1.277379865223     0.720291720704    -0.284613238086    15.994914619570
         O            0.475591834777    -0.896431679296    -0.904991738086    15.994914619570
         O            0.993694834777     1.146224320704     0.582254261914    15.994914619570
         O           -0.292780165223    -0.851815679296     1.594680261914    15.994914619570
         C           -2.458782165223    -0.056983679296    -0.627196738086    12.000000000000
         C            1.406022834777    -1.967952679296    -0.623176738086    12.000000000000
         C            1.268034834777     2.044461320704    -0.515677738086    12.000000000000
         H           -2.802642165223    -0.609628679296     0.249045261914     1.007825032230
         H           -2.221522165223    -0.744280679296    -1.441475738086     1.007825032230
         H           -3.218318165223     0.655320320704    -0.944144738086     1.007825032230
         H            2.342916834777    -1.563136679296    -0.232553738086     1.007825032230
         H            1.585502834777    -2.463749679296    -1.575812738086     1.007825032230
         H            0.974511834777    -2.662955679296     0.097958261914     1.007825032230
         H            1.526253834777     1.480976320704    -1.414579738086     1.007825032230
         H            2.114276834777     2.650204320704    -0.195954738086     1.007825032230
         H            0.398519834777     2.674702320704    -0.704424738086     1.007825032230

  Basis Set: AUG-CC-PVTZ
    Blend: AUG-CC-PVTZ
  Basis Set: (AUG-CC-PVTZ AUX)
    Blend: AUG-CC-PVTZ-JKFIT
	 Reference Energy          =    -759.3161789980155163 [Eh]
	 Singles Energy            =      -0.0000000000000000 [Eh]
	 Same-Spin Energy          =      -0.4436484042779833 [Eh]
	 Opposite-Spin Energy      =      -1.3822912753274608 [Eh]
	 Correlation Energy        =      -1.8259396796054441 [Eh]
	 Total Energy              =    -761.1421186776209424 [Eh]

	 ================> DF-SCS-MP2 Energies <==================
	-----------------------------------------------------------
	 SCS Same-Spin Scale       =       0.3333333333333333 [-]
	 SCS Opposite-Spin Scale   =       1.2000000000000000 [-]
	 SCS Same-Spin Energy      =      -0.1478828014259944 [Eh]
	 SCS Opposite-Spin Energy  =      -1.6587495303929529 [Eh]
	 SCS Correlation Energy    =      -1.8066323318189474 [Eh]
	 SCS Total Energy          =    -761.1228113298344624 [Eh]
	-----------------------------------------------------------

  Dipole Moment: [D]
     X:     0.2561      Y:     0.4617      Z:    -3.7699     Total:     3.8067

*** Psi4 exiting successfully. Buy a developer a beer!
