                               Psi4 1.3.2 release

  ==> Input File <==

--------------------------------------------------------------------------
#psi4
#
memory 32 gb

molecule  {
0 1
  P        0.0877380    -0.0630770    -0.3573080
  O        1.3196816     0.6902692     0.3444883
  O       -0.5335540    -0.9159530     0.8701820
  O       -0.9626110     1.1157580    -0.6302230
  O        0.5199531    -0.8251170    -1.5465894
  C        2.4637000    -0.0342890     0.6951100
  C       -1.5478570    -1.8846230     0.5157310
  C       -1.3164940     2.0084280     0.4478740
  H        2.9076370    -0.4029020    -0.2303870
  H        2.2294240    -0.8677130     1.3606750
  H        3.1371140     0.6611440     1.1918470
  H       -2.3893800    -1.3915170     0.0214860
  H       -1.8772340    -2.3283310     1.4531950
  H       -1.1270350    -2.6465320    -0.1425260
  H       -1.6199920     1.4414800     1.3301320
  H       -2.1494040     2.6019710     0.0764460
  H       -0.4694080     2.6502780     0.6903180
units angstrom
no_reorient  #important for SAPT in psi4, default
symmetry c1  #important for SAPT in psi4, default
}

set PROPERTIES_ORIGIN ["COM"]
properties('MP2/aug-cc-pvtz', properties = ['dipole'])
--------------------------------------------------------------------------

    Molecular point group: c1
  Charge       = 0
  Multiplicity = 1
  Basis Set: AUG-CC-PVTZ
    Blend: AUG-CC-PVTZ
  Basis Set: (AUG-CC-PVTZ AUX)
    Blend: AUG-CC-PVTZ-JKFIT

    Orbital Energies [Eh]
    ---------------------

    Doubly Occupied:

       1A    -80.101603     2A    -20.598756     3A    -20.598350
       4A    -20.586446     5A    -20.504916     6A    -11.299527
       7A    -11.299261     8A    -11.285522     9A     -7.617520
      10A     -5.515933    11A     -5.515728    12A     -5.514392
      13A     -1.451148    14A     -1.387824    15A     -1.382867
      16A     -1.288082    17A     -0.981929    18A     -0.958148
      19A     -0.946060    20A     -0.787860    21A     -0.719117
      22A     -0.714509    23A     -0.676157    24A     -0.668245
      25A     -0.651615    26A     -0.634862    27A     -0.624386
      28A     -0.620374    29A     -0.581543    30A     -0.543771
      31A     -0.526705    32A     -0.512158    33A     -0.499526
      34A     -0.491783    35A     -0.483525    36A     -0.461047
      37A     -0.452724

  @DF-RHF Final Energy:  -759.31454807262037

   => Energetics <=

    Nuclear Repulsion Energy =            549.3492860110553693
    One-Electron Energy =               -2138.3598309254925880
    Two-Electron Energy =                 829.6959968418167364
    Total Energy =                       -759.3145480726203687
  Basis Set: (AUG-CC-PVTZ AUX)
    Blend: AUG-CC-PVTZ-RI
    Molecular point group: c1

    Geometry (in Angstrom), charge = 0, multiplicity = 1:

       Center              X                  Y                   Z               Mass
    ------------   -----------------  -----------------  -----------------  -----------------
         P            0.073207432897    -0.062185118116    -0.351910458791    30.973761998420
         O            1.305151032897     0.691161081884     0.349885841209    15.994914619570
         O           -0.548084567103    -0.915061118116     0.875579541209    15.994914619570
         O           -0.977141567103     1.116649881884    -0.624825458791    15.994914619570
         O            0.505422532897    -0.824225118116    -1.541191858791    15.994914619570
         C            2.449169432897    -0.033397118116     0.700507541209    12.000000000000
         C           -1.562387567103    -1.883731118116     0.521128541209    12.000000000000
         C           -1.331024567103     2.009319881884     0.453271541209    12.000000000000
         H            2.893106432897    -0.402010118116    -0.224989458791     1.007825032230
         H            2.214893432897    -0.866821118116     1.366072541209     1.007825032230
         H            3.122583432897     0.662035881884     1.197244541209     1.007825032230
         H           -2.403910567103    -1.390625118116     0.026883541209     1.007825032230
         H           -1.891764567103    -2.327439118116     1.458592541209     1.007825032230
         H           -1.141565567103    -2.645640118116    -0.137128458791     1.007825032230
         H           -1.634522567103     1.442371881884     1.335529541209     1.007825032230
         H           -2.163934567103     2.602862881884     0.081843541209     1.007825032230
         H           -0.483938567103     2.651169881884     0.695715541209     1.007825032230

  Basis Set: AUG-CC-PVTZ
    Blend: AUG-CC-PVTZ
  Basis Set: (AUG-CC-PVTZ AUX)
    Blend: AUG-CC-PVTZ-JKFIT
	 Reference Energy          =    -759.3145480726203687 [Eh]
	 Singles Energy            =      -0.0000000000000000 [Eh]
	 Same-Spin Energy          =      -0.4433624040748337 [Eh]
	 Opposite-Spin Energy      =      -1.3810793346356709 [Eh]
	 Correlation Energy        =      -1.8244417387105045 [Eh]
	 Total Energy              =    -761.1389898113309300 [Eh]

	 ================> DF-SCS-MP2 Energies <==================
	-----------------------------------------------------------
	 SCS Same-Spin Scale       =       0.3333333333333333 [-]
	 SCS Opposite-Spin Scale   =       1.2000000000000000 [-]
	 SCS Same-Spin Energy      =      -0.1477874680249446 [Eh]
	 SCS Opposite-Spin Energy  =      -1.6572952015628051 [Eh]
	 SCS Correlation Energy    =      -1.8050826695877498 [Eh]
	 SCS Total Energy          =    -761.1196307422080736 [Eh]
	-----------------------------------------------------------

  Dipole Moment: [D]
     X:    -1.3389      Y:     0.6017      Z:     3.6185     Total:     3.9049

*** Psi4 exiting successfully. Buy a developer a beer!
