                               Psi4 1.3.2 release

  ==> Input File <==

--------------------------------------------------------------------------
#psi4
#
memory 32 gb

molecule  {
0 1
  P        0.0877380    -0.0630770    -0.3573080
  O        1.2658980     0.7202100     0.4017270
  O       -0.5335540    -0.9159530     0.8701820
  O       -0.9652084     1.1058909    -0.6228319
  O        0.4465310    -0.8472510    -1.5565760
  C        2.4637000    -0.0342890     0.6951100
  C       -1.5478570    -1.8846230     0.5157310
  C       -1.3164940     2.0084280     0.4478740
  H        2.9076370    -0.4029020    -0.2303870
  H        2.2294240    -0.8677130     1.3606750
  H        3.1371140     0.6611440     1.1918470
  H       -2.3893800    -1.3915170     0.0214860
  H       -1.8772340    -2.3283310     1.4531950
  H       -1.1270350    -2.6465320    -0.1425260
  H       -1.6184782     1.4333603     1.3253835
  H       -2.1494040     2.6019710     0.0764460
  H       -0.4694080     2.6502780     0.6903180
units angstrom
no_reorient  #important for SAPT in psi4, default
symmetry c1  #important for SAPT in psi4, default
}

set PROPERTIES_ORIGIN ["COM"]
properties('MP2/aug-cc-pvtz', properties = ['dipole'])
--------------------------------------------------------------------------

    Molecular point group: c1
  Charge       = 0
  Multiplicity = 1
  Basis Set: AUG-CC-PVTZ
    Blend: AUG-CC-PVTZ
  Basis Set: (AUG-CC-PVTZ AUX)
    Blend: AUG-CC-PVTZ-JKFIT

    Orbital Energies [Eh]
    ---------------------

    Doubly Occupied:

       1A    -80.098523     2A    -20.592929     3A    -20.592401
       4A    -20.592221     5A    -20.508114     6A    -11.296219
       7A    -11.294813     8A    -11.294587     9A     -7.614760
      10A     -5.513238    11A     -5.512918    12A     -5.511654
      13A     -1.447909    14A     -1.379352    15A     -1.377643
      16A     -1.290003    17A     -0.979237    18A     -0.955083
      19A     -0.946906    20A     -0.785614    21A     -0.714566
      22A     -0.711656    23A     -0.673444    24A     -0.663751
      25A     -0.649383    26A     -0.630928    27A     -0.617391
      28A     -0.614265    29A     -0.582687    30A     -0.540685
      31A     -0.529594    32A     -0.515683    33A     -0.498001
      34A     -0.491256    35A     -0.484639    36A     -0.463895
      37A     -0.457515

  @DF-RHF Final Energy:  -759.31650000831928

   => Energetics <=

    Nuclear Repulsion Energy =            549.3872997312505504
    One-Electron Energy =               -2138.5606761278600061
    Two-Electron Energy =                 829.8568763882901749
    Total Energy =                       -759.3165000083192808
  Basis Set: (AUG-CC-PVTZ AUX)
    Blend: AUG-CC-PVTZ-RI
    Molecular point group: c1

    Geometry (in Angstrom), charge = 0, multiplicity = 1:

       Center              X                  Y                   Z               Mass
    ------------   -----------------  -----------------  -----------------  -----------------
         P            0.088023936792    -0.061891328445    -0.358118170461    30.973761998420
         O            1.266183936792     0.721395671555     0.400916829539    15.994914619570
         O           -0.533268063208    -0.914767328445     0.869371829539    15.994914619570
         O           -0.964922463208     1.107076571555    -0.623642070461    15.994914619570
         O            0.446816936792    -0.846065328445    -1.557386170461    15.994914619570
         C            2.463985936792    -0.033103328445     0.694299829539    12.000000000000
         C           -1.547571063208    -1.883437328445     0.514920829539    12.000000000000
         C           -1.316208063208     2.009613671555     0.447063829539    12.000000000000
         H            2.907922936792    -0.401716328445    -0.231197170461     1.007825032230
         H            2.229709936792    -0.866527328445     1.359864829539     1.007825032230
         H            3.137399936792     0.662329671555     1.191036829539     1.007825032230
         H           -2.389094063208    -1.390331328445     0.020675829539     1.007825032230
         H           -1.876948063208    -2.327145328445     1.452384829539     1.007825032230
         H           -1.126749063208    -2.645346328445    -0.143336170461     1.007825032230
         H           -1.618192263208     1.434545971555     1.324573329539     1.007825032230
         H           -2.149118063208     2.603156671555     0.075635829539     1.007825032230
         H           -0.469122063208     2.651463671555     0.689507829539     1.007825032230

  Basis Set: AUG-CC-PVTZ
    Blend: AUG-CC-PVTZ
  Basis Set: (AUG-CC-PVTZ AUX)
    Blend: AUG-CC-PVTZ-JKFIT
	 Reference Energy          =    -759.3165000083192808 [Eh]
	 Singles Energy            =      -0.0000000000000000 [Eh]
	 Same-Spin Energy          =      -0.4436209154164735 [Eh]
	 Opposite-Spin Energy      =      -1.3821303373364806 [Eh]
	 Correlation Energy        =      -1.8257512527529540 [Eh]
	 Total Energy              =    -761.1422512610722606 [Eh]

	 ================> DF-SCS-MP2 Energies <==================
	-----------------------------------------------------------
	 SCS Same-Spin Scale       =       0.3333333333333333 [-]
	 SCS Opposite-Spin Scale   =       1.2000000000000000 [-]
	 SCS Same-Spin Energy      =      -0.1478736384721578 [Eh]
	 SCS Opposite-Spin Energy  =      -1.6585564048037766 [Eh]
	 SCS Correlation Energy    =      -1.8064300432759346 [Eh]
	 SCS Total Energy          =    -761.1229300515951763 [Eh]
	-----------------------------------------------------------

  Dipole Moment: [D]
     X:    -0.7957      Y:     0.5942      Z:     3.5274     Total:     3.6645

*** Psi4 exiting successfully. Buy a developer a beer!
