                               Psi4 1.3.2 release

  ==> Input File <==

--------------------------------------------------------------------------
#psi4
#
memory 32 gb

molecule  {
0 1
  P        0.0877380    -0.0630770    -0.3573080
  O        1.2472450     0.7297170     0.4203518
  O       -0.5335540    -0.9159530     0.8701820
  O       -0.9626110     1.1157580    -0.6302230
  O        0.4218284    -0.8541542    -1.5591755
  C        2.4637000    -0.0342890     0.6951100
  C       -1.5478570    -1.8846230     0.5157310
  C       -1.3164940     2.0084280     0.4478740
  H        2.9076370    -0.4029020    -0.2303870
  H        2.2294240    -0.8677130     1.3606750
  H        3.1371140     0.6611440     1.1918470
  H       -2.3893800    -1.3915170     0.0214860
  H       -1.8772340    -2.3283310     1.4531950
  H       -1.1270350    -2.6465320    -0.1425260
  H       -1.6199920     1.4414800     1.3301320
  H       -2.1494040     2.6019710     0.0764460
  H       -0.4694080     2.6502780     0.6903180
units angstrom
no_reorient  #important for SAPT in psi4, default
symmetry c1  #important for SAPT in psi4, default
}

set PROPERTIES_ORIGIN ["COM"]
properties('MP2/aug-cc-pvtz', properties = ['dipole'])
--------------------------------------------------------------------------

    Molecular point group: c1
  Charge       = 0
  Multiplicity = 1
  Basis Set: AUG-CC-PVTZ
    Blend: AUG-CC-PVTZ
  Basis Set: (AUG-CC-PVTZ AUX)
    Blend: AUG-CC-PVTZ-JKFIT

    Orbital Energies [Eh]
    ---------------------

    Doubly Occupied:

       1A    -80.098622     2A    -20.595066     3A    -20.591501
       4A    -20.590587     5A    -20.509545     6A    -11.297879
       7A    -11.294161     8A    -11.293918     9A     -7.614796
      10A     -5.513279    11A     -5.512929    12A     -5.511695
      13A     -1.445990    14A     -1.376625    15A     -1.375299
      16A     -1.290946    17A     -0.978117    18A     -0.953350
      19A     -0.947392    20A     -0.785089    21A     -0.712650
      22A     -0.710655    23A     -0.672016    24A     -0.661834
      25A     -0.648525    26A     -0.628893    27A     -0.616487
      28A     -0.611082    29A     -0.583342    30A     -0.540129
      31A     -0.531013    32A     -0.516076    33A     -0.498947
      34A     -0.490928    35A     -0.483398    36A     -0.465258
      37A     -0.458753

  @DF-RHF Final Energy:  -759.31485963008083

   => Energetics <=

    Nuclear Repulsion Energy =            548.9805768919711682
    One-Electron Energy =               -2137.7773297418625589
    Two-Electron Energy =                 829.4818932198105585
    Total Energy =                       -759.3148596300808322
  Basis Set: (AUG-CC-PVTZ AUX)
    Blend: AUG-CC-PVTZ-RI
    Molecular point group: c1

    Geometry (in Angstrom), charge = 0, multiplicity = 1:

       Center              X                  Y                   Z               Mass
    ------------   -----------------  -----------------  -----------------  -----------------
         P            0.092690638889    -0.063374320264    -0.359138631999    30.973761998420
         O            1.252197638889     0.729419679736     0.418521168001    15.994914619570
         O           -0.528601361111    -0.916250320264     0.868351368001    15.994914619570
         O           -0.957658361111     1.115460679736    -0.632053631999    15.994914619570
         O            0.426781038889    -0.854451520264    -1.561006131999    15.994914619570
         C            2.468652638889    -0.034586320264     0.693279368001    12.000000000000
         C           -1.542904361111    -1.884920320264     0.513900368001    12.000000000000
         C           -1.311541361111     2.008130679736     0.446043368001    12.000000000000
         H            2.912589638889    -0.403199320264    -0.232217631999     1.007825032230
         H            2.234376638889    -0.868010320264     1.358844368001     1.007825032230
         H            3.142066638889     0.660846679736     1.190016368001     1.007825032230
         H           -2.384427361111    -1.391814320264     0.019655368001     1.007825032230
         H           -1.872281361111    -2.328628320264     1.451364368001     1.007825032230
         H           -1.122082361111    -2.646829320264    -0.144356631999     1.007825032230
         H           -1.615039361111     1.441182679736     1.328301368001     1.007825032230
         H           -2.144451361111     2.601673679736     0.074615368001     1.007825032230
         H           -0.464455361111     2.649980679736     0.688487368001     1.007825032230

  Basis Set: AUG-CC-PVTZ
    Blend: AUG-CC-PVTZ
  Basis Set: (AUG-CC-PVTZ AUX)
    Blend: AUG-CC-PVTZ-JKFIT
	 Reference Energy          =    -759.3148596300808322 [Eh]
	 Singles Energy            =      -0.0000000000000000 [Eh]
	 Same-Spin Energy          =      -0.4438907106662111 [Eh]
	 Opposite-Spin Energy      =      -1.3829714583628006 [Eh]
	 Correlation Energy        =      -1.8268621690290117 [Eh]
	 Total Energy              =    -761.1417217991098596 [Eh]

	 ================> DF-SCS-MP2 Energies <==================
	-----------------------------------------------------------
	 SCS Same-Spin Scale       =       0.3333333333333333 [-]
	 SCS Opposite-Spin Scale   =       1.2000000000000000 [-]
	 SCS Same-Spin Energy      =      -0.1479635702220704 [Eh]
	 SCS Opposite-Spin Energy  =      -1.6595657500353607 [Eh]
	 SCS Correlation Energy    =      -1.8075293202574310 [Eh]
	 SCS Total Energy          =    -761.1223889503382907 [Eh]
	-----------------------------------------------------------

  Dipole Moment: [D]
     X:    -0.6068      Y:     0.5275      Z:     3.5171     Total:     3.6078

*** Psi4 exiting successfully. Buy a developer a beer!
