                               Psi4 1.3.2 release

  ==> Input File <==

--------------------------------------------------------------------------
#psi4
#
memory 32 gb

molecule  {
0 1
  P        0.0877380    -0.0630770    -0.3573080
  O        1.2658980     0.7202100     0.4017270
  O       -0.5773770    -0.8620121     0.8400812
  O       -0.9626110     1.1157580    -0.6302230
  O        0.4465310    -0.8472510    -1.5565760
  C        2.4637000    -0.0342890     0.6951100
  C       -1.5478570    -1.8846230     0.5157310
  C       -1.3164940     2.0084280     0.4478740
  H        2.9076370    -0.4029020    -0.2303870
  H        2.2294240    -0.8677130     1.3606750
  H        3.1371140     0.6611440     1.1918470
  H       -2.3617908    -1.3417213     0.0275077
  H       -1.8772340    -2.3283310     1.4531950
  H       -1.1270350    -2.6465320    -0.1425260
  H       -1.6199920     1.4414800     1.3301320
  H       -2.1494040     2.6019710     0.0764460
  H       -0.4694080     2.6502780     0.6903180
units angstrom
no_reorient  #important for SAPT in psi4, default
symmetry c1  #important for SAPT in psi4, default
}

set PROPERTIES_ORIGIN ["COM"]
properties('MP2/aug-cc-pvtz', properties = ['dipole'])
--------------------------------------------------------------------------

    Molecular point group: c1
  Charge       = 0
  Multiplicity = 1
  Basis Set: AUG-CC-PVTZ
    Blend: AUG-CC-PVTZ
  Basis Set: (AUG-CC-PVTZ AUX)
    Blend: AUG-CC-PVTZ-JKFIT

    Orbital Energies [Eh]
    ---------------------

    Doubly Occupied:

       1A    -80.095445     2A    -20.592381     3A    -20.591541
       4A    -20.586706     5A    -20.507517     6A    -11.298537
       7A    -11.294968     8A    -11.292740     9A     -7.612175
      10A     -5.510596    11A     -5.510416    12A     -5.509107
      13A     -1.450629    14A     -1.382223    15A     -1.375123
      16A     -1.289509    17A     -0.981459    18A     -0.953529
      19A     -0.948335    20A     -0.784240    21A     -0.716337
      22A     -0.711764    23A     -0.674033    24A     -0.665410
      25A     -0.648985    26A     -0.631133    27A     -0.621080
      28A     -0.612570    29A     -0.582500    30A     -0.540377
      31A     -0.527509    32A     -0.516634    33A     -0.497840
      34A     -0.492809    35A     -0.479907    36A     -0.463610
      37A     -0.457984

  @DF-RHF Final Energy:  -759.31596908445545

   => Energetics <=

    Nuclear Repulsion Energy =            550.6463949501139723
    One-Electron Energy =               -2141.1094115315663657
    Two-Electron Energy =                 831.1470474969969473
    Total Energy =                       -759.3159690844554461
  Basis Set: (AUG-CC-PVTZ AUX)
    Blend: AUG-CC-PVTZ-RI
    Molecular point group: c1

    Geometry (in Angstrom), charge = 0, multiplicity = 1:

       Center              X                  Y                   Z               Mass
    ------------   -----------------  -----------------  -----------------  -----------------
         P            0.092545456022    -0.069596959554    -0.353912991985    30.973761998420
         O            1.270705456022     0.713690040446     0.405122008015    15.994914619570
         O           -0.572569543978    -0.868532059554     0.843476208015    15.994914619570
         O           -0.957803543978     1.109238040446    -0.626827991985    15.994914619570
         O            0.451338456022    -0.853770959554    -1.553180991985    15.994914619570
         C            2.468507456022    -0.040808959554     0.698505008015    12.000000000000
         C           -1.543049543978    -1.891142959554     0.519126008015    12.000000000000
         C           -1.311686543978     2.001908040446     0.451269008015    12.000000000000
         H            2.912444456022    -0.409421959554    -0.226991991985     1.007825032230
         H            2.234231456022    -0.874232959554     1.364070008015     1.007825032230
         H            3.141921456022     0.654624040446     1.195242008015     1.007825032230
         H           -2.356983343978    -1.348241259554     0.030902708015     1.007825032230
         H           -1.872426543978    -2.334850959554     1.456590008015     1.007825032230
         H           -1.122227543978    -2.653051959554    -0.139130991985     1.007825032230
         H           -1.615184543978     1.434960040446     1.333527008015     1.007825032230
         H           -2.144596543978     2.595451040446     0.079841008015     1.007825032230
         H           -0.464600543978     2.643758040446     0.693713008015     1.007825032230

  Basis Set: AUG-CC-PVTZ
    Blend: AUG-CC-PVTZ
  Basis Set: (AUG-CC-PVTZ AUX)
    Blend: AUG-CC-PVTZ-JKFIT
	 Reference Energy          =    -759.3159690844554461 [Eh]
	 Singles Energy            =      -0.0000000000000000 [Eh]
	 Same-Spin Energy          =      -0.4433575199898033 [Eh]
	 Opposite-Spin Energy      =      -1.3812651933605176 [Eh]
	 Correlation Energy        =      -1.8246227133503208 [Eh]
	 Total Energy              =    -761.1405917978057687 [Eh]

	 ================> DF-SCS-MP2 Energies <==================
	-----------------------------------------------------------
	 SCS Same-Spin Scale       =       0.3333333333333333 [-]
	 SCS Opposite-Spin Scale   =       1.2000000000000000 [-]
	 SCS Same-Spin Energy      =      -0.1477858399966011 [Eh]
	 SCS Opposite-Spin Energy  =      -1.6575182320326209 [Eh]
	 SCS Correlation Energy    =      -1.8053040720292219 [Eh]
	 SCS Total Energy          =    -761.1212731564846763 [Eh]
	-----------------------------------------------------------

  Dipole Moment: [D]
     X:    -0.7404      Y:     0.3075      Z:     3.6585     Total:     3.7453

*** Psi4 exiting successfully. Buy a developer a beer!
