                               Psi4 1.3.2 release

  ==> Input File <==

--------------------------------------------------------------------------
#psi4
#
memory 32 gb

molecule  {
0 1
  P        0.0877380    -0.0630770    -0.3573080
  O        1.2658980     0.7202100     0.4017270
  O       -0.5335540    -0.9159530     0.8701820
  O       -0.9626110     1.1157580    -0.6302230
  O        0.4465310    -0.8472510    -1.5565760
  C        2.4637000    -0.0342890     0.6951100
  C       -1.5478570    -1.8846230     0.5157310
  C       -1.3164940     2.0084280     0.4478740
  H        2.9076370    -0.4029020    -0.2303870
  H        2.2294240    -0.8677130     1.3606750
  H        3.1371140     0.6611440     1.1918470
  H       -2.3893800    -1.3915170     0.0214860
  H       -1.8772340    -2.3283310     1.4531950
  H       -1.1270350    -2.6465320    -0.1425260
  H       -1.6199920     1.4414800     1.3301320
  H       -2.1494040     2.6019710     0.0764460
  H       -0.4694080     2.6502780     0.6903180
units angstrom
no_reorient  #important for SAPT in psi4, default
symmetry c1  #important for SAPT in psi4, default
}

set PROPERTIES_ORIGIN ["COM"]
properties('MP2/aug-cc-pvtz', properties = ['dipole'])
--------------------------------------------------------------------------

    Molecular point group: c1
  Charge       = 0
  Multiplicity = 1
  Basis Set: AUG-CC-PVTZ
    Blend: AUG-CC-PVTZ
  Basis Set: (AUG-CC-PVTZ AUX)
    Blend: AUG-CC-PVTZ-JKFIT

    Orbital Energies [Eh]
    ---------------------

    Doubly Occupied:

       1A    -80.099331     2A    -20.593237     3A    -20.593108
       4A    -20.592673     5A    -20.508449     6A    -11.295528
       7A    -11.295275     8A    -11.294724     9A     -7.615443
      10A     -5.513901    11A     -5.513593    12A     -5.512349
      13A     -1.447253    14A     -1.378553    15A     -1.378160
      16A     -1.290291    17A     -0.979012    18A     -0.954486
      19A     -0.947137    20A     -0.785863    21A     -0.714333
      22A     -0.711656    23A     -0.673079    24A     -0.663470
      25A     -0.649292    26A     -0.630348    27A     -0.617825
      28A     -0.614209    29A     -0.582903    30A     -0.540732
      31A     -0.529261    32A     -0.516028    33A     -0.498151
      34A     -0.491338    35A     -0.484437    36A     -0.464145
      37A     -0.457895

  @DF-RHF Final Energy:  -759.31607881696311

   => Energetics <=

    Nuclear Repulsion Energy =            549.0533712975415028
    One-Electron Energy =               -2137.8839646604483278
    Two-Electron Energy =                 829.5145145459435980
    Total Energy =                       -759.3160788169631132
  Basis Set: (AUG-CC-PVTZ AUX)
    Blend: AUG-CC-PVTZ-RI
    Molecular point group: c1

    Geometry (in Angstrom), charge = 0, multiplicity = 1:

       Center              X                  Y                   Z               Mass
    ------------   -----------------  -----------------  -----------------  -----------------
         P            0.087738131575    -0.063076888362    -0.357308063042    30.973761998420
         O            1.265898131575     0.720210111638     0.401726936958    15.994914619570
         O           -0.533553868425    -0.915952888362     0.870181936958    15.994914619570
         O           -0.962610868425     1.115758111638    -0.630223063042    15.994914619570
         O            0.446531131575    -0.847250888362    -1.556576063042    15.994914619570
         C            2.463700131575    -0.034288888362     0.695109936958    12.000000000000
         C           -1.547856868425    -1.884622888362     0.515730936958    12.000000000000
         C           -1.316493868425     2.008428111638     0.447873936958    12.000000000000
         H            2.907637131575    -0.402901888362    -0.230387063042     1.007825032230
         H            2.229424131575    -0.867712888362     1.360674936958     1.007825032230
         H            3.137114131575     0.661144111638     1.191846936958     1.007825032230
         H           -2.389379868425    -1.391516888362     0.021485936958     1.007825032230
         H           -1.877233868425    -2.328330888362     1.453194936958     1.007825032230
         H           -1.127034868425    -2.646531888362    -0.142526063042     1.007825032230
         H           -1.619991868425     1.441480111638     1.330131936958     1.007825032230
         H           -2.149403868425     2.601971111638     0.076445936958     1.007825032230
         H           -0.469407868425     2.650278111638     0.690317936958     1.007825032230

  Basis Set: AUG-CC-PVTZ
    Blend: AUG-CC-PVTZ
  Basis Set: (AUG-CC-PVTZ AUX)
    Blend: AUG-CC-PVTZ-JKFIT
	 Reference Energy          =    -759.3160788169631132 [Eh]
	 Singles Energy            =      -0.0000000000000000 [Eh]
	 Same-Spin Energy          =      -0.4437018328418547 [Eh]
	 Opposite-Spin Energy      =      -1.3823836303888719 [Eh]
	 Correlation Energy        =      -1.8260854632307266 [Eh]
	 Total Energy              =    -761.1421642801938106 [Eh]

	 ================> DF-SCS-MP2 Energies <==================
	-----------------------------------------------------------
	 SCS Same-Spin Scale       =       0.3333333333333333 [-]
	 SCS Opposite-Spin Scale   =       1.2000000000000000 [-]
	 SCS Same-Spin Energy      =      -0.1479006109472849 [Eh]
	 SCS Opposite-Spin Energy  =      -1.6588603564666462 [Eh]
	 SCS Correlation Energy    =      -1.8067609674139311 [Eh]
	 SCS Total Energy          =    -761.1228397843769926 [Eh]
	-----------------------------------------------------------

  Dipole Moment: [D]
     X:    -0.7898      Y:     0.5460      Z:     3.5437     Total:     3.6714

*** Psi4 exiting successfully. Buy a developer a beer!
