                               Psi4 1.3.2 release

  ==> Input File <==

--------------------------------------------------------------------------
#psi4
#
memory 32 gb

molecule  {
0 1
  P        0.0877380    -0.0630770    -0.3573080
  O        1.2658980     0.7202100     0.4017270
  O       -0.5335540    -0.9159530     0.8701820
  O       -0.9626110     1.1157580    -0.6302230
  O        0.4951108    -0.9534265    -1.7189544
  C        2.4637000    -0.0342890     0.6951100
  C       -1.5478570    -1.8846230     0.5157310
  C       -1.3164940     2.0084280     0.4478740
  H        2.9076370    -0.4029020    -0.2303870
  H        2.2294240    -0.8677130     1.3606750
  H        3.1371140     0.6611440     1.1918470
  H       -2.3893800    -1.3915170     0.0214860
  H       -1.8772340    -2.3283310     1.4531950
  H       -1.1270350    -2.6465320    -0.1425260
  H       -1.6199920     1.4414800     1.3301320
  H       -2.1494040     2.6019710     0.0764460
  H       -0.4694080     2.6502780     0.6903180
units angstrom
no_reorient  #important for SAPT in psi4, default
symmetry c1  #important for SAPT in psi4, default
}

set PROPERTIES_ORIGIN ["COM"]
properties('MP2/aug-cc-pvtz', properties = ['dipole'])
--------------------------------------------------------------------------

    Molecular point group: c1
  Charge       = 0
  Multiplicity = 1
  Basis Set: AUG-CC-PVTZ
    Blend: AUG-CC-PVTZ
  Basis Set: (AUG-CC-PVTZ AUX)
    Blend: AUG-CC-PVTZ-JKFIT

    Orbital Energies [Eh]
    ---------------------

    Doubly Occupied:

       1A    -80.125773     2A    -20.604794     3A    -20.604587
       4A    -20.603103     5A    -20.513314     6A    -11.302214
       7A    -11.299200     8A    -11.298843     9A     -7.637543
      10A     -5.536154    11A     -5.535858    12A     -5.533288
      13A     -1.452180    14A     -1.387758    15A     -1.387401
      16A     -1.213776    17A     -0.987056    18A     -0.960838
      19A     -0.952366    20A     -0.796828    21A     -0.718959
      22A     -0.715982    23A     -0.681496    24A     -0.668798
      25A     -0.655267    26A     -0.635861    27A     -0.624308
      28A     -0.620903    29A     -0.566389    30A     -0.541807
      31A     -0.529486    32A     -0.513378    33A     -0.496932
      34A     -0.494128    35A     -0.484439    36A     -0.430312
      37A     -0.428915

  @DF-RHF Final Energy:  -759.26755588469587

   => Energetics <=

    Nuclear Repulsion Energy =            540.3885273683741843
    One-Electron Energy =               -2120.2316980677410356
    Two-Electron Energy =                 820.5756148146710984
    Total Energy =                       -759.2675558846958666
  Basis Set: (AUG-CC-PVTZ AUX)
    Blend: AUG-CC-PVTZ-RI
    Molecular point group: c1

    Geometry (in Angstrom), charge = 0, multiplicity = 1:

       Center              X                  Y                   Z               Mass
    ------------   -----------------  -----------------  -----------------  -----------------
         P            0.082188864241    -0.050948468036    -0.338759589174    30.973761998420
         O            1.260348864241     0.732338531964     0.420275410826    15.994914619570
         O           -0.539103135759    -0.903824468036     0.888730410826    15.994914619570
         O           -0.968160135759     1.127886531964    -0.611674589174    15.994914619570
         O            0.489561664241    -0.941297968036    -1.700405989174    15.994914619570
         C            2.458150864241    -0.022160468036     0.713658410826    12.000000000000
         C           -1.553406135759    -1.872494468036     0.534279410826    12.000000000000
         C           -1.322043135759     2.020556531964     0.466422410826    12.000000000000
         H            2.902087864241    -0.390773468036    -0.211838589174     1.007825032230
         H            2.223874864241    -0.855584468036     1.379223410826     1.007825032230
         H            3.131564864241     0.673272531964     1.210395410826     1.007825032230
         H           -2.394929135759    -1.379388468036     0.040034410826     1.007825032230
         H           -1.882783135759    -2.316202468036     1.471743410826     1.007825032230
         H           -1.132584135759    -2.634403468036    -0.123977589174     1.007825032230
         H           -1.625541135759     1.453608531964     1.348680410826     1.007825032230
         H           -2.154953135759     2.614099531964     0.094994410826     1.007825032230
         H           -0.474957135759     2.662406531964     0.708866410826     1.007825032230

  Basis Set: AUG-CC-PVTZ
    Blend: AUG-CC-PVTZ
  Basis Set: (AUG-CC-PVTZ AUX)
    Blend: AUG-CC-PVTZ-JKFIT
	 Reference Energy          =    -759.2675558846958666 [Eh]
	 Singles Energy            =      -0.0000000000000000 [Eh]
	 Same-Spin Energy          =      -0.4475312948627326 [Eh]
	 Opposite-Spin Energy      =      -1.3923014393926767 [Eh]
	 Correlation Energy        =      -1.8398327342554093 [Eh]
	 Total Energy              =    -761.1073886189512905 [Eh]

	 ================> DF-SCS-MP2 Energies <==================
	-----------------------------------------------------------
	 SCS Same-Spin Scale       =       0.3333333333333333 [-]
	 SCS Opposite-Spin Scale   =       1.2000000000000000 [-]
	 SCS Same-Spin Energy      =      -0.1491770982875775 [Eh]
	 SCS Opposite-Spin Energy  =      -1.6707617272712121 [Eh]
	 SCS Correlation Energy    =      -1.8199388255587896 [Eh]
	 SCS Total Energy          =    -761.0874947102546457 [Eh]
	-----------------------------------------------------------

  Dipole Moment: [D]
     X:    -1.0210      Y:     1.0101      Z:     4.3461     Total:     4.5772

*** Psi4 exiting successfully. Buy a developer a beer!
