                               Psi4 1.3.2 release

  ==> Input File <==

--------------------------------------------------------------------------
#psi4
#
memory 32 gb

molecule  {
0 1
  P        0.0877380    -0.0630770    -0.3573080
  O        1.2282388     0.7389826     0.4387398
  O       -0.5335540    -0.9159530     0.8701820
  O       -0.9626110     1.1157580    -0.6302230
  O        0.3970241    -0.8608164    -1.5614089
  C        2.4637000    -0.0342890     0.6951100
  C       -1.5478570    -1.8846230     0.5157310
  C       -1.3164940     2.0084280     0.4478740
  H        2.9076370    -0.4029020    -0.2303870
  H        2.2294240    -0.8677130     1.3606750
  H        3.1371140     0.6611440     1.1918470
  H       -2.3893800    -1.3915170     0.0214860
  H       -1.8772340    -2.3283310     1.4531950
  H       -1.1270350    -2.6465320    -0.1425260
  H       -1.6199920     1.4414800     1.3301320
  H       -2.1494040     2.6019710     0.0764460
  H       -0.4694080     2.6502780     0.6903180
units angstrom
no_reorient  #important for SAPT in psi4, default
symmetry c1  #important for SAPT in psi4, default
}

set PROPERTIES_ORIGIN ["COM"]
properties('MP2/aug-cc-pvtz', properties = ['dipole'])
--------------------------------------------------------------------------

    Molecular point group: c1
  Charge       = 0
  Multiplicity = 1
  Basis Set: AUG-CC-PVTZ
    Blend: AUG-CC-PVTZ
  Basis Set: (AUG-CC-PVTZ AUX)
    Blend: AUG-CC-PVTZ-JKFIT

    Orbital Energies [Eh]
    ---------------------

    Doubly Occupied:

       1A    -80.097941     2A    -20.596887     3A    -20.589752
       4A    -20.588478     5A    -20.510601     6A    -11.301067
       7A    -11.292781     8A    -11.292548     9A     -7.614174
      10A     -5.512685    11A     -5.512292    12A     -5.511059
      13A     -1.444750    14A     -1.375025    15A     -1.372069
      16A     -1.291557    17A     -0.977295    18A     -0.952343
      19A     -0.947492    20A     -0.784256    21A     -0.710985
      22A     -0.709589    23A     -0.670944    24A     -0.660185
      25A     -0.647772    26A     -0.627452    27A     -0.615312
      28A     -0.607733    29A     -0.583779    30A     -0.540245
      31A     -0.532366    32A     -0.515816    33A     -0.500143
      34A     -0.490074    35A     -0.482165    36A     -0.466314
      37A     -0.459318

  @DF-RHF Final Energy:  -759.31281274279127

   => Energetics <=

    Nuclear Repulsion Energy =            548.9214109387431790
    One-Electron Energy =               -2137.6979549404532008
    Two-Electron Energy =                 829.4637312589188696
    Total Energy =                       -759.3128127427912659
  Basis Set: (AUG-CC-PVTZ AUX)
    Blend: AUG-CC-PVTZ-RI
    Molecular point group: c1

    Geometry (in Angstrom), charge = 0, multiplicity = 1:

       Center              X                  Y                   Z               Mass
    ------------   -----------------  -----------------  -----------------  -----------------
         P            0.097695109400    -0.063671706473    -0.360983970886    30.973761998420
         O            1.238195909400     0.738387893527     0.435063829114    15.994914619570
         O           -0.523596890600    -0.916547706473     0.866506029114    15.994914619570
         O           -0.952653890600     1.115163293527    -0.633898970886    15.994914619570
         O            0.406981209400    -0.861411106473    -1.565084870886    15.994914619570
         C            2.473657109400    -0.034883706473     0.691434029114    12.000000000000
         C           -1.537899890600    -1.885217706473     0.512055029114    12.000000000000
         C           -1.306536890600     2.007833293527     0.444198029114    12.000000000000
         H            2.917594109400    -0.403496706473    -0.234062970886     1.007825032230
         H            2.239381109400    -0.868307706473     1.356999029114     1.007825032230
         H            3.147071109400     0.660549293527     1.188171029114     1.007825032230
         H           -2.379422890600    -1.392111706473     0.017810029114     1.007825032230
         H           -1.867276890600    -2.328925706473     1.449519029114     1.007825032230
         H           -1.117077890600    -2.647126706473    -0.146201970886     1.007825032230
         H           -1.610034890600     1.440885293527     1.326456029114     1.007825032230
         H           -2.139446890600     2.601376293527     0.072770029114     1.007825032230
         H           -0.459450890600     2.649683293527     0.686642029114     1.007825032230

  Basis Set: AUG-CC-PVTZ
    Blend: AUG-CC-PVTZ
  Basis Set: (AUG-CC-PVTZ AUX)
    Blend: AUG-CC-PVTZ-JKFIT
	 Reference Energy          =    -759.3128127427912659 [Eh]
	 Singles Energy            =      -0.0000000000000000 [Eh]
	 Same-Spin Energy          =      -0.4441165332761046 [Eh]
	 Opposite-Spin Energy      =      -1.3836348069137046 [Eh]
	 Correlation Energy        =      -1.8277513401898091 [Eh]
	 Total Energy              =    -761.1405640829810864 [Eh]

	 ================> DF-SCS-MP2 Energies <==================
	-----------------------------------------------------------
	 SCS Same-Spin Scale       =       0.3333333333333333 [-]
	 SCS Opposite-Spin Scale   =       1.2000000000000000 [-]
	 SCS Same-Spin Energy      =      -0.1480388444253682 [Eh]
	 SCS Opposite-Spin Energy  =      -1.6603617682964453 [Eh]
	 SCS Correlation Energy    =      -1.8084006127218135 [Eh]
	 SCS Total Energy          =    -761.1212133555130777 [Eh]
	-----------------------------------------------------------

  Dipole Moment: [D]
     X:    -0.4245      Y:     0.5092      Z:     3.4897     Total:     3.5522

*** Psi4 exiting successfully. Buy a developer a beer!
