                               Psi4 1.3.2 release

  ==> Input File <==

--------------------------------------------------------------------------
#psi4
#
memory 32 gb

molecule  {
0 1
  P        0.0571702    -0.0161189    -0.3562509
  O        1.2658980     0.7202100     0.4017270
  O       -0.5335540    -0.9159530     0.8701820
  O       -0.9626110     1.1157580    -0.6302230
  O        0.4465310    -0.8472510    -1.5565760
  C        2.4833894     0.0069665     0.7164816
  C       -1.5478570    -1.8846230     0.5157310
  C       -1.3164940     2.0084280     0.4478740
  H        2.9076370    -0.4029020    -0.2303870
  H        2.2294240    -0.8677130     1.3606750
  H        3.1371140     0.6611440     1.1918470
  H       -2.3893800    -1.3915170     0.0214860
  H       -1.8772340    -2.3283310     1.4531950
  H       -1.1270350    -2.6465320    -0.1425260
  H       -1.6199920     1.4414800     1.3301320
  H       -2.1494040     2.6019710     0.0764460
  H       -0.4694080     2.6502780     0.6903180
units angstrom
no_reorient  #important for SAPT in psi4, default
symmetry c1  #important for SAPT in psi4, default
}

set PROPERTIES_ORIGIN ["COM"]
properties('MP2/aug-cc-pvtz', properties = ['dipole'])
--------------------------------------------------------------------------

    Molecular point group: c1
  Charge       = 0
  Multiplicity = 1
  Basis Set: AUG-CC-PVTZ
    Blend: AUG-CC-PVTZ
  Basis Set: (AUG-CC-PVTZ AUX)
    Blend: AUG-CC-PVTZ-JKFIT

    Orbital Energies [Eh]
    ---------------------

    Doubly Occupied:

       1A    -80.100157     2A    -20.606784     3A    -20.589102
       4A    -20.588344     5A    -20.499781     6A    -11.305348
       7A    -11.293594     8A    -11.291907     9A     -7.615811
      10A     -5.514449    11A     -5.514061    12A     -5.512483
      13A     -1.456418    14A     -1.390441    15A     -1.372069
      16A     -1.268265    17A     -0.984961    18A     -0.962750
      19A     -0.944594    20A     -0.788393    21A     -0.719169
      22A     -0.713573    23A     -0.676531    24A     -0.667434
      25A     -0.649787    26A     -0.634963    27A     -0.625401
      28A     -0.610772    29A     -0.574822    30A     -0.545737
      31A     -0.532436    32A     -0.515639    33A     -0.500986
      34A     -0.488320    35A     -0.481687    36A     -0.449688
      37A     -0.444168

  @DF-RHF Final Energy:  -759.30938534058919

   => Energetics <=

    Nuclear Repulsion Energy =            548.8477914143047656
    One-Electron Energy =               -2137.4527018427620533
    Two-Electron Energy =                 829.2955250878680999
    Total Energy =                       -759.3093853405891878
  Basis Set: (AUG-CC-PVTZ AUX)
    Blend: AUG-CC-PVTZ-RI
    Molecular point group: c1

    Geometry (in Angstrom), charge = 0, multiplicity = 1:

       Center              X                  Y                   Z               Mass
    ------------   -----------------  -----------------  -----------------  -----------------
         P            0.062244659866    -0.030041667016    -0.358316336709    30.973761998420
         O            1.270972459866     0.706287232984     0.399661563291    15.994914619570
         O           -0.528479540134    -0.929875767016     0.868116563291    15.994914619570
         O           -0.957536540134     1.101835232984    -0.632288436709    15.994914619570
         O            0.451605459866    -0.861173767016    -1.558641436709    15.994914619570
         C            2.488463859866    -0.006956267016     0.714416163291    12.000000000000
         C           -1.542782540134    -1.898545767016     0.513665563291    12.000000000000
         C           -1.311419540134     1.994505232984     0.445808563291    12.000000000000
         H            2.912711459866    -0.416824767016    -0.232452436709     1.007825032230
         H            2.234498459866    -0.881635767016     1.358609563291     1.007825032230
         H            3.142188459866     0.647221232984     1.189781563291     1.007825032230
         H           -2.384305540134    -1.405439767016     0.019420563291     1.007825032230
         H           -1.872159540134    -2.342253767016     1.451129563291     1.007825032230
         H           -1.121960540134    -2.660454767016    -0.144591436709     1.007825032230
         H           -1.614917540134     1.427557232984     1.328066563291     1.007825032230
         H           -2.144329540134     2.588048232984     0.074380563291     1.007825032230
         H           -0.464333540134     2.636355232984     0.688252563291     1.007825032230

  Basis Set: AUG-CC-PVTZ
    Blend: AUG-CC-PVTZ
  Basis Set: (AUG-CC-PVTZ AUX)
    Blend: AUG-CC-PVTZ-JKFIT
	 Reference Energy          =    -759.3093853405891878 [Eh]
	 Singles Energy            =      -0.0000000000000000 [Eh]
	 Same-Spin Energy          =      -0.4438327930662053 [Eh]
	 Opposite-Spin Energy      =      -1.3824440252504424 [Eh]
	 Correlation Energy        =      -1.8262768183166478 [Eh]
	 Total Energy              =    -761.1356621589058022 [Eh]

	 ================> DF-SCS-MP2 Energies <==================
	-----------------------------------------------------------
	 SCS Same-Spin Scale       =       0.3333333333333333 [-]
	 SCS Opposite-Spin Scale   =       1.2000000000000000 [-]
	 SCS Same-Spin Energy      =      -0.1479442643554018 [Eh]
	 SCS Opposite-Spin Energy  =      -1.6589328303005308 [Eh]
	 SCS Correlation Energy    =      -1.8068770946559325 [Eh]
	 SCS Total Energy          =    -761.1162624352451758 [Eh]
	-----------------------------------------------------------

  Dipole Moment: [D]
     X:    -1.0881      Y:     1.1687      Z:     3.6505     Total:     3.9844

*** Psi4 exiting successfully. Buy a developer a beer!
