                               Psi4 1.3.2 release

  ==> Input File <==

--------------------------------------------------------------------------
#psi4
#
memory 32 gb

molecule  {
0 1
  P        0.0877380    -0.0630770    -0.3573080
  O        1.2658980     0.7202100     0.4017270
  O       -0.5058761    -0.9533981     0.8897144
  O       -0.9626110     1.1157580    -0.6302230
  O        0.4465310    -0.8472510    -1.5565760
  C        2.4637000    -0.0342890     0.6951100
  C       -1.5478570    -1.8846230     0.5157310
  C       -1.3164940     2.0084280     0.4478740
  H        2.9076370    -0.4029020    -0.2303870
  H        2.2294240    -0.8677130     1.3606750
  H        3.1371140     0.6611440     1.1918470
  H       -2.4064958    -1.4254736     0.0182233
  H       -1.8772340    -2.3283310     1.4531950
  H       -1.1270350    -2.6465320    -0.1425260
  H       -1.6199920     1.4414800     1.3301320
  H       -2.1494040     2.6019710     0.0764460
  H       -0.4694080     2.6502780     0.6903180
units angstrom
no_reorient  #important for SAPT in psi4, default
symmetry c1  #important for SAPT in psi4, default
}

set PROPERTIES_ORIGIN ["COM"]
properties('MP2/aug-cc-pvtz', properties = ['dipole'])
--------------------------------------------------------------------------

    Molecular point group: c1
  Charge       = 0
  Multiplicity = 1
  Basis Set: AUG-CC-PVTZ
    Blend: AUG-CC-PVTZ
  Basis Set: (AUG-CC-PVTZ AUX)
    Blend: AUG-CC-PVTZ-JKFIT

    Orbital Energies [Eh]
    ---------------------

    Doubly Occupied:

       1A    -80.102079     2A    -20.596619     3A    -20.594213
       4A    -20.593768     5A    -20.509281     6A    -11.297402
       7A    -11.294671     8A    -11.292911     9A     -7.617806
      10A     -5.516294    11A     -5.515875    12A     -5.514688
      13A     -1.445612    14A     -1.380608    15A     -1.375016
      16A     -1.290966    17A     -0.978021    18A     -0.955174
      19A     -0.945652    20A     -0.786912    21A     -0.713559
      22A     -0.711407    23A     -0.672635    24A     -0.662628
      25A     -0.649178    26A     -0.631243    27A     -0.615740
      28A     -0.612851    29A     -0.583313    30A     -0.541056
      31A     -0.530229    32A     -0.516561    33A     -0.497939
      34A     -0.489272    35A     -0.487064    36A     -0.464553
      37A     -0.457801

  @DF-RHF Final Energy:  -759.31312358104196

   => Energetics <=

    Nuclear Repulsion Energy =            547.9350423452029872
    One-Electron Energy =               -2135.6151455784938662
    Two-Electron Energy =                 828.3669796522490287
    Total Energy =                       -759.3131235810419639
  Basis Set: (AUG-CC-PVTZ AUX)
    Blend: AUG-CC-PVTZ-RI
    Molecular point group: c1

    Geometry (in Angstrom), charge = 0, multiplicity = 1:

       Center              X                  Y                   Z               Mass
    ------------   -----------------  -----------------  -----------------  -----------------
         P            0.084699678279    -0.058555133618    -0.359515764437    30.973761998420
         O            1.262859678279     0.724731866382     0.399519235563    15.994914619570
         O           -0.508914421721    -0.948876233618     0.887506635563    15.994914619570
         O           -0.965649321721     1.120279866382    -0.632430764437    15.994914619570
         O            0.443492678279    -0.842729133618    -1.558783764437    15.994914619570
         C            2.460661678279    -0.029767133618     0.692902235563    12.000000000000
         C           -1.550895321721    -1.880101133618     0.513523235563    12.000000000000
         C           -1.319532321721     2.012949866382     0.445666235563    12.000000000000
         H            2.904598678279    -0.398380133618    -0.232594764437     1.007825032230
         H            2.226385678279    -0.863191133618     1.358467235563     1.007825032230
         H            3.134075678279     0.665665866382     1.189639235563     1.007825032230
         H           -2.409534121721    -1.420951733618     0.016015535563     1.007825032230
         H           -1.880272321721    -2.323809133618     1.450987235563     1.007825032230
         H           -1.130073321721    -2.642010133618    -0.144733764437     1.007825032230
         H           -1.623030321721     1.446001866382     1.327924235563     1.007825032230
         H           -2.152442321721     2.606492866382     0.074238235563     1.007825032230
         H           -0.472446321721     2.654799866382     0.688110235563     1.007825032230

  Basis Set: AUG-CC-PVTZ
    Blend: AUG-CC-PVTZ
  Basis Set: (AUG-CC-PVTZ AUX)
    Blend: AUG-CC-PVTZ-JKFIT
	 Reference Energy          =    -759.3131235810419639 [Eh]
	 Singles Energy            =      -0.0000000000000000 [Eh]
	 Same-Spin Energy          =      -0.4440653621530245 [Eh]
	 Opposite-Spin Energy      =      -1.3834015738169185 [Eh]
	 Correlation Energy        =      -1.8274669359699431 [Eh]
	 Total Energy              =    -761.1405905170119013 [Eh]

	 ================> DF-SCS-MP2 Energies <==================
	-----------------------------------------------------------
	 SCS Same-Spin Scale       =       0.3333333333333333 [-]
	 SCS Opposite-Spin Scale   =       1.2000000000000000 [-]
	 SCS Same-Spin Energy      =      -0.1480217873843415 [Eh]
	 SCS Opposite-Spin Energy  =      -1.6600818885803021 [Eh]
	 SCS Correlation Energy    =      -1.8081036759646436 [Eh]
	 SCS Total Energy          =    -761.1212272570065807 [Eh]
	-----------------------------------------------------------

  Dipole Moment: [D]
     X:    -0.8109      Y:     0.7127      Z:     3.4652     Total:     3.6295

*** Psi4 exiting successfully. Buy a developer a beer!
