                               Psi4 1.4a3.dev225

  ==> Input File <==

--------------------------------------------------------------------------
#psi4
#
memory 32 gb

molecule  {
0 1
  P       -0.0574490    -0.0471570     0.4194890
  O       -1.2961560     0.7325110    -0.2482760
  O        0.4722150    -0.8939050    -0.8603530
  O        0.9903180     1.1487510     0.6268930
  O       -0.2929297    -0.8384444     1.6228272
  C       -2.4621590    -0.0544570    -0.5825580
  C        1.4026460    -1.9654260    -0.5785380
  C        1.2646580     2.0469880    -0.4710390
  H       -2.8060190    -0.6071020     0.2936840
  H       -2.2248990    -0.7417540    -1.3968370
  H       -3.2216950     0.6578470    -0.8995060
  H        2.3395400    -1.5606100    -0.1879150
  H        1.5821260    -2.4612230    -1.5311740
  H        0.9711350    -2.6604290     0.1425970
  H        1.5228770     1.4835030    -1.3699410
  H        2.1109000     2.6527310    -0.1513160
  H        0.3951430     2.6772290    -0.6597860
units angstrom
no_reorient  #important for SAPT in psi4, default
symmetry c1  #important for SAPT in psi4, default
}

set PROPERTIES_ORIGIN ["COM"]
properties('MP2/aug-cc-pvtz', properties = ['dipole'])
--------------------------------------------------------------------------

    Molecular point group: c1
  Charge       = 0
  Multiplicity = 1
  Basis Set: AUG-CC-PVTZ
    Blend: AUG-CC-PVTZ
  Basis Set: (AUG-CC-PVTZ AUX)
    Blend: AUG-CC-PVTZ-JKFIT

    Orbital Energies [Eh]
    ---------------------

    Doubly Occupied:

       1A    -80.096968     2A    -20.592843     3A    -20.592052
       4A    -20.591243     5A    -20.508514     6A    -11.295201
       7A    -11.294343     8A    -11.293663     9A     -7.613670
      10A     -5.511991    11A     -5.511724    12A     -5.510788
      13A     -1.445801    14A     -1.376810    15A     -1.376238
      16A     -1.298462    17A     -0.977735    18A     -0.952565
      19A     -0.947078    20A     -0.784130    21A     -0.713220
      22A     -0.710545    23A     -0.672227    24A     -0.661627
      25A     -0.648905    26A     -0.630117    27A     -0.616504
      28A     -0.613591    29A     -0.585080    30A     -0.539927
      31A     -0.528197    32A     -0.516637    33A     -0.497008
      34A     -0.492026    35A     -0.482653    36A     -0.467795
      37A     -0.461830

  @DF-RHF Final Energy:  -759.31691957074599

   => Energetics <=

    Nuclear Repulsion Energy =            549.1704872875903902
    One-Electron Energy =               -2138.1553917120841106
    Two-Electron Energy =                 829.6679848537478392
    Total Energy =                       -759.3169195707459949
  Basis Set: (AUG-CC-PVTZ AUX)
    Blend: AUG-CC-PVTZ-RI
    Molecular point group: c1

    Geometry (in Angstrom), charge = 0, multiplicity = 1:

       Center              X                  Y                   Z               Mass
    ------------   -----------------  -----------------  -----------------  -----------------
         P           -0.052681758470    -0.052029642291     0.377682398929    30.973761998420
         O           -1.291388758470     0.727638357709    -0.290082601071    15.994914619570
         O            0.476982241530    -0.898777642291    -0.902159601071    15.994914619570
         O            0.995085241530     1.143878357709     0.585086398929    15.994914619570
         O           -0.288162458470    -0.843317042291     1.581020598929    15.994914619570
         C           -2.457391758470    -0.059329642291    -0.624364601071    12.000000000000
         C            1.407413241530    -1.970298642291    -0.620344601071    12.000000000000
         C            1.269425241530     2.042115357709    -0.512845601071    12.000000000000
         H           -2.801251758470    -0.611974642291     0.251877398929     1.007825032230
         H           -2.220131758470    -0.746626642291    -1.438643601071     1.007825032230
         H           -3.216927758470     0.652974357709    -0.941312601071     1.007825032230
         H            2.344307241530    -1.565482642291    -0.229721601071     1.007825032230
         H            1.586893241530    -2.466095642291    -1.572980601071     1.007825032230
         H            0.975902241530    -2.665301642291     0.100790398929     1.007825032230
         H            1.527644241530     1.478630357709    -1.411747601071     1.007825032230
         H            2.115667241530     2.647858357709    -0.193122601071     1.007825032230
         H            0.399910241530     2.672356357709    -0.701592601071     1.007825032230

  Basis Set: AUG-CC-PVTZ
    Blend: AUG-CC-PVTZ
  Basis Set: (AUG-CC-PVTZ AUX)
    Blend: AUG-CC-PVTZ-JKFIT
	 Reference Energy          =    -759.3169195707459949 [Eh]
	 Singles Energy            =      -0.0000000000000000 [Eh]
	 Same-Spin Energy          =      -0.4433831856393419 [Eh]
	 Opposite-Spin Energy      =      -1.3817147918717108 [Eh]
	 Correlation Energy        =      -1.8250979775110525 [Eh]
	 Total Energy              =    -761.1420175482570585 [Eh]

	 ================> DF-SCS-MP2 Energies <==================
	-----------------------------------------------------------
	 SCS Same-Spin Scale       =       0.3333333333333333 [-]
	 SCS Opposite-Spin Scale   =       1.2000000000000000 [-]
	 SCS Same-Spin Energy      =      -0.1477943952131139 [Eh]
	 SCS Opposite-Spin Energy  =      -1.6580577502460530 [Eh]
	 SCS Correlation Energy    =      -1.8058521454591669 [Eh]
	 SCS Total Energy          =    -761.1227717162051931 [Eh]
	-----------------------------------------------------------

  Dipole Moment: [D]
     X:     0.3785      Y:     0.3847      Z:    -3.6354     Total:     3.6752

*** Psi4 exiting successfully. Buy a developer a beer!
