                               Psi4 1.3.2 release

  ==> Input File <==

--------------------------------------------------------------------------
#psi4
#
memory 32 gb

molecule  {
0 1
  P        0.0877380    -0.0630770    -0.3573080
  O        1.2658980     0.7202100     0.4017270
  O       -0.5335540    -0.9159530     0.8701820
  O       -0.9636428     1.0931531    -0.7110000
  O        0.3989149    -0.8023022    -1.5977192
  C        2.4637000    -0.0342890     0.6951100
  C       -1.5478570    -1.8846230     0.5157310
  C       -1.3164940     2.0084280     0.4478740
  H        2.9076370    -0.4029020    -0.2303870
  H        2.2294240    -0.8677130     1.3606750
  H        3.1371140     0.6611440     1.1918470
  H       -2.3893800    -1.3915170     0.0214860
  H       -1.8772340    -2.3283310     1.4531950
  H       -1.1270350    -2.6465320    -0.1425260
  H       -1.6199920     1.4414800     1.3301320
  H       -2.1494040     2.6019710     0.0764460
  H       -0.4694080     2.6502780     0.6903180
units angstrom
no_reorient  #important for SAPT in psi4, default
symmetry c1  #important for SAPT in psi4, default
}

set PROPERTIES_ORIGIN ["COM"]
properties('MP2/aug-cc-pvtz', properties = ['dipole'])
--------------------------------------------------------------------------

    Molecular point group: c1
  Charge       = 0
  Multiplicity = 1
  Basis Set: AUG-CC-PVTZ
    Blend: AUG-CC-PVTZ
  Basis Set: (AUG-CC-PVTZ AUX)
    Blend: AUG-CC-PVTZ-JKFIT

    Orbital Energies [Eh]
    ---------------------

    Doubly Occupied:

       1A    -80.095270     2A    -20.596188     3A    -20.595526
       4A    -20.591586     5A    -20.500608     6A    -11.301879
       7A    -11.296820     8A    -11.295841     9A     -7.611691
      10A     -5.510013    11A     -5.509762    12A     -5.508656
      13A     -1.442980    14A     -1.380184    15A     -1.364669
      16A     -1.282552    17A     -0.976515    18A     -0.955157
      19A     -0.948526    20A     -0.784448    21A     -0.712207
      22A     -0.706542    23A     -0.671090    24A     -0.659629
      25A     -0.644276    26A     -0.623547    27A     -0.618560
      28A     -0.611081    29A     -0.575564    30A     -0.544036
      31A     -0.532786    32A     -0.517861    33A     -0.500875
      34A     -0.492765    35A     -0.488148    36A     -0.456238
      37A     -0.452796

  @DF-RHF Final Energy:  -759.30860903457778

   => Energetics <=

    Nuclear Repulsion Energy =            547.7115291513659940
    One-Electron Energy =               -2135.3265300495395422
    Two-Electron Energy =                 828.3063918635957634
    Total Energy =                       -759.3086090345777848
  Basis Set: (AUG-CC-PVTZ AUX)
    Blend: AUG-CC-PVTZ-RI
    Molecular point group: c1

    Geometry (in Angstrom), charge = 0, multiplicity = 1:

       Center              X                  Y                   Z               Mass
    ------------   -----------------  -----------------  -----------------  -----------------
         P            0.093295177967    -0.065629230578    -0.343381126678    30.973761998420
         O            1.271455177967     0.717657769422     0.415653873322    15.994914619570
         O           -0.527996822033    -0.918505230578     0.884108873322    15.994914619570
         O           -0.958085622033     1.090600869422    -0.697073126678    15.994914619570
         O            0.404472077967    -0.804854430578    -1.583792326678    15.994914619570
         C            2.469257177967    -0.036841230578     0.709036873322    12.000000000000
         C           -1.542299822033    -1.887175230578     0.529657873322    12.000000000000
         C           -1.310936822033     2.005875769422     0.461800873322    12.000000000000
         H            2.913194177967    -0.405454230578    -0.216460126678     1.007825032230
         H            2.234981177967    -0.870265230578     1.374601873322     1.007825032230
         H            3.142671177967     0.658591769422     1.205773873322     1.007825032230
         H           -2.383822822033    -1.394069230578     0.035412873322     1.007825032230
         H           -1.871676822033    -2.330883230578     1.467121873322     1.007825032230
         H           -1.121477822033    -2.649084230578    -0.128599126678     1.007825032230
         H           -1.614434822033     1.438927769422     1.344058873322     1.007825032230
         H           -2.143846822033     2.599418769422     0.090372873322     1.007825032230
         H           -0.463850822033     2.647725769422     0.704244873322     1.007825032230

  Basis Set: AUG-CC-PVTZ
    Blend: AUG-CC-PVTZ
  Basis Set: (AUG-CC-PVTZ AUX)
    Blend: AUG-CC-PVTZ-JKFIT
	 Reference Energy          =    -759.3086090345777848 [Eh]
	 Singles Energy            =      -0.0000000000000000 [Eh]
	 Same-Spin Energy          =      -0.4441815032856891 [Eh]
	 Opposite-Spin Energy      =      -1.3844252947418265 [Eh]
	 Correlation Energy        =      -1.8286067980275156 [Eh]
	 Total Energy              =    -761.1372158326053068 [Eh]

	 ================> DF-SCS-MP2 Energies <==================
	-----------------------------------------------------------
	 SCS Same-Spin Scale       =       0.3333333333333333 [-]
	 SCS Opposite-Spin Scale   =       1.2000000000000000 [-]
	 SCS Same-Spin Energy      =      -0.1480605010952297 [Eh]
	 SCS Opposite-Spin Energy  =      -1.6613103536901919 [Eh]
	 SCS Correlation Energy    =      -1.8093708547854215 [Eh]
	 SCS Total Energy          =    -761.1179798893632551 [Eh]
	-----------------------------------------------------------

  Dipole Moment: [D]
     X:    -0.7276      Y:     0.5847      Z:     3.9337     Total:     4.0429

*** Psi4 exiting successfully. Buy a developer a beer!
