                               Psi4 1.3.2 release

  ==> Input File <==

--------------------------------------------------------------------------
#psi4
#
memory 32 gb

molecule  {
0 1
  P        0.0722723    -0.0397137    -0.3568950
  O        1.2658980     0.7202100     0.4017270
  O       -0.5335540    -0.9159530     0.8701820
  O       -0.9626110     1.1157580    -0.6302230
  O        0.4465310    -0.8472510    -1.5565760
  C        2.4737286    -0.0137730     0.7058421
  C       -1.5478570    -1.8846230     0.5157310
  C       -1.3164940     2.0084280     0.4478740
  H        2.9076370    -0.4029020    -0.2303870
  H        2.2294240    -0.8677130     1.3606750
  H        3.1371140     0.6611440     1.1918470
  H       -2.3893800    -1.3915170     0.0214860
  H       -1.8772340    -2.3283310     1.4531950
  H       -1.1270350    -2.6465320    -0.1425260
  H       -1.6199920     1.4414800     1.3301320
  H       -2.1494040     2.6019710     0.0764460
  H       -0.4694080     2.6502780     0.6903180
units angstrom
no_reorient  #important for SAPT in psi4, default
symmetry c1  #important for SAPT in psi4, default
}

set PROPERTIES_ORIGIN ["COM"]
properties('MP2/aug-cc-pvtz', properties = ['dipole'])
--------------------------------------------------------------------------

    Molecular point group: c1
  Charge       = 0
  Multiplicity = 1
  Basis Set: AUG-CC-PVTZ
    Blend: AUG-CC-PVTZ
  Basis Set: (AUG-CC-PVTZ AUX)
    Blend: AUG-CC-PVTZ-JKFIT

    Orbital Energies [Eh]
    ---------------------

    Doubly Occupied:

       1A    -80.099748     2A    -20.599770     3A    -20.591015
       4A    -20.590800     5A    -20.504118     6A    -11.300405
       7A    -11.294023     8A    -11.293613     9A     -7.615556
      10A     -5.514093    11A     -5.513778    12A     -5.512348
      13A     -1.450486    14A     -1.385462    15A     -1.375190
      16A     -1.279359    17A     -0.981200    18A     -0.959102
      19A     -0.945943    20A     -0.786701    21A     -0.716567
      22A     -0.712510    23A     -0.673608    24A     -0.665294
      25A     -0.650424    26A     -0.632767    27A     -0.619758
      28A     -0.614350    29A     -0.579095    30A     -0.542220
      31A     -0.530616    32A     -0.516243    33A     -0.499002
      34A     -0.489309    35A     -0.485578    36A     -0.456998
      37A     -0.451149

  @DF-RHF Final Energy:  -759.31467108983395

   => Energetics <=

    Nuclear Repulsion Energy =            548.9414845876793834
    One-Electron Energy =               -2137.6559169650977310
    Two-Electron Energy =                 829.3997612875842833
    Total Energy =                       -759.3146710898339506
  Basis Set: (AUG-CC-PVTZ AUX)
    Blend: AUG-CC-PVTZ-RI
    Molecular point group: c1

    Geometry (in Angstrom), charge = 0, multiplicity = 1:

       Center              X                  Y                   Z               Mass
    ------------   -----------------  -----------------  -----------------  -----------------
         P            0.074834050340    -0.046639846446    -0.357906157709    30.973761998420
         O            1.268459750340     0.713283853554     0.400715842291    15.994914619570
         O           -0.530992249660    -0.922879146446     0.869170842291    15.994914619570
         O           -0.960049249660     1.108831853554    -0.631234157709    15.994914619570
         O            0.449092750340    -0.854177146446    -1.557587157709    15.994914619570
         C            2.476290350340    -0.020699146446     0.704830942291    12.000000000000
         C           -1.545295249660    -1.891549146446     0.514719842291    12.000000000000
         C           -1.313932249660     2.001501853554     0.446862842291    12.000000000000
         H            2.910198750340    -0.409828146446    -0.231398157709     1.007825032230
         H            2.231985750340    -0.874639146446     1.359663842291     1.007825032230
         H            3.139675750340     0.654217853554     1.190835842291     1.007825032230
         H           -2.386818249660    -1.398443146446     0.020474842291     1.007825032230
         H           -1.874672249660    -2.335257146446     1.452183842291     1.007825032230
         H           -1.124473249660    -2.653458146446    -0.143537157709     1.007825032230
         H           -1.617430249660     1.434553853554     1.329120842291     1.007825032230
         H           -2.146842249660     2.595044853554     0.075434842291     1.007825032230
         H           -0.466846249660     2.643351853554     0.689306842291     1.007825032230

  Basis Set: AUG-CC-PVTZ
    Blend: AUG-CC-PVTZ
  Basis Set: (AUG-CC-PVTZ AUX)
    Blend: AUG-CC-PVTZ-JKFIT
	 Reference Energy          =    -759.3146710898339506 [Eh]
	 Singles Energy            =      -0.0000000000000000 [Eh]
	 Same-Spin Energy          =      -0.4437347453565461 [Eh]
	 Opposite-Spin Energy      =      -1.3823347714206127 [Eh]
	 Correlation Energy        =      -1.8260695167771588 [Eh]
	 Total Energy              =    -761.1407406066110752 [Eh]

	 ================> DF-SCS-MP2 Energies <==================
	-----------------------------------------------------------
	 SCS Same-Spin Scale       =       0.3333333333333333 [-]
	 SCS Opposite-Spin Scale   =       1.2000000000000000 [-]
	 SCS Same-Spin Energy      =      -0.1479115817855154 [Eh]
	 SCS Opposite-Spin Energy  =      -1.6588017257047352 [Eh]
	 SCS Correlation Energy    =      -1.8067133074902506 [Eh]
	 SCS Total Energy          =    -761.1213843973241637 [Eh]
	-----------------------------------------------------------

  Dipole Moment: [D]
     X:    -0.9396      Y:     0.8561      Z:     3.5960     Total:     3.8140

*** Psi4 exiting successfully. Buy a developer a beer!
