                               Psi4 1.4a3.dev225

  ==> Input File <==

--------------------------------------------------------------------------
#psi4
#
memory 32 gb

molecule  {
0 1
  P       -0.0574490    -0.0471570     0.4194890
  O       -1.3346542     0.7567426    -0.2690297
  O        0.4722150    -0.8939050    -0.8603530
  O        0.9903180     1.1487510     0.6268930
  O       -0.2961570    -0.8492890     1.6393190
  C       -2.4621590    -0.0544570    -0.5825580
  C        1.4026460    -1.9654260    -0.5785380
  C        1.2646580     2.0469880    -0.4710390
  H       -2.8060190    -0.6071020     0.2936840
  H       -2.2248990    -0.7417540    -1.3968370
  H       -3.2216950     0.6578470    -0.8995060
  H        2.3395400    -1.5606100    -0.1879150
  H        1.5821260    -2.4612230    -1.5311740
  H        0.9711350    -2.6604290     0.1425970
  H        1.5228770     1.4835030    -1.3699410
  H        2.1109000     2.6527310    -0.1513160
  H        0.3951430     2.6772290    -0.6597860
units angstrom
no_reorient  #important for SAPT in psi4, default
symmetry c1  #important for SAPT in psi4, default
}

set PROPERTIES_ORIGIN ["COM"]
properties('MP2/aug-cc-pvtz', properties = ['dipole'])
--------------------------------------------------------------------------

    Molecular point group: c1
  Charge       = 0
  Multiplicity = 1
  Basis Set: AUG-CC-PVTZ
    Blend: AUG-CC-PVTZ
  Basis Set: (AUG-CC-PVTZ AUX)
    Blend: AUG-CC-PVTZ-JKFIT

    Orbital Energies [Eh]
    ---------------------

    Doubly Occupied:

       1A    -80.107293     2A    -20.596941     3A    -20.596282
       4A    -20.593155     5A    -20.513878     6A    -11.296763
       7A    -11.296399     8A    -11.288479     9A     -7.622245
      10A     -5.520620    11A     -5.520382    12A     -5.519141
      13A     -1.443310    14A     -1.380738    15A     -1.375797
      16A     -1.293914    17A     -0.976977    18A     -0.954974
      19A     -0.943162    20A     -0.786871    21A     -0.713124
      22A     -0.711005    23A     -0.672534    24A     -0.662377
      25A     -0.650047    26A     -0.632729    27A     -0.618909
      28A     -0.612101    29A     -0.584875    30A     -0.540979
      31A     -0.529519    32A     -0.513983    33A     -0.495479
      34A     -0.489894    35A     -0.483794    36A     -0.467187
      37A     -0.461197

  @DF-RHF Final Energy:  -759.31061357332953

   => Energetics <=

    Nuclear Repulsion Energy =            546.5468749921310518
    One-Electron Energy =               -2132.7808702605698272
    Two-Electron Energy =                 826.9233816951092422
    Total Energy =                       -759.3106135733295332
  Basis Set: (AUG-CC-PVTZ AUX)
    Blend: AUG-CC-PVTZ-RI
    Molecular point group: c1

    Geometry (in Angstrom), charge = 0, multiplicity = 1:

       Center              X                  Y                   Z               Mass
    ------------   -----------------  -----------------  -----------------  -----------------
         P           -0.047915457371    -0.053558838413     0.378169235483    30.973761998420
         O           -1.325120657371     0.750340761587    -0.310349464517    15.994914619570
         O            0.481748542629    -0.900306838413    -0.901672764517    15.994914619570
         O            0.999851542629     1.142349161587     0.585573235483    15.994914619570
         O           -0.286623457371    -0.855690838413     1.597999235483    15.994914619570
         C           -2.452625457371    -0.060858838413    -0.623877764517    12.000000000000
         C            1.412179542629    -1.971827838413    -0.619857764517    12.000000000000
         C            1.274191542629     2.040586161587    -0.512358764517    12.000000000000
         H           -2.796485457371    -0.613503838413     0.252364235483     1.007825032230
         H           -2.215365457371    -0.748155838413    -1.438156764517     1.007825032230
         H           -3.212161457371     0.651445161587    -0.940825764517     1.007825032230
         H            2.349073542629    -1.567011838413    -0.229234764517     1.007825032230
         H            1.591659542629    -2.467624838413    -1.572493764517     1.007825032230
         H            0.980668542629    -2.666830838413     0.101277235483     1.007825032230
         H            1.532410542629     1.477101161587    -1.411260764517     1.007825032230
         H            2.120433542629     2.646329161587    -0.192635764517     1.007825032230
         H            0.404676542629     2.670827161587    -0.701105764517     1.007825032230

  Basis Set: AUG-CC-PVTZ
    Blend: AUG-CC-PVTZ
  Basis Set: (AUG-CC-PVTZ AUX)
    Blend: AUG-CC-PVTZ-JKFIT
	 Reference Energy          =    -759.3106135733295332 [Eh]
	 Singles Energy            =      -0.0000000000000000 [Eh]
	 Same-Spin Energy          =      -0.4444113225471983 [Eh]
	 Opposite-Spin Energy      =      -1.3842523424742563 [Eh]
	 Correlation Energy        =      -1.8286636650214545 [Eh]
	 Total Energy              =    -761.1392772383510419 [Eh]

	 ================> DF-SCS-MP2 Energies <==================
	-----------------------------------------------------------
	 SCS Same-Spin Scale       =       0.3333333333333333 [-]
	 SCS Opposite-Spin Scale   =       1.2000000000000000 [-]
	 SCS Same-Spin Energy      =      -0.1481371075157328 [Eh]
	 SCS Opposite-Spin Energy  =      -1.6611028109691075 [Eh]
	 SCS Correlation Energy    =      -1.8092399184848402 [Eh]
	 SCS Total Energy          =    -761.1198534918144105 [Eh]
	-----------------------------------------------------------

  Dipole Moment: [D]
     X:     0.7281      Y:     0.3605      Z:    -3.5895     Total:     3.6803

*** Psi4 exiting successfully. Buy a developer a beer!
