                               Psi4 1.3.2 release

  ==> Input File <==

--------------------------------------------------------------------------
#psi4
#
memory 32 gb

molecule  {
0 1
  P        0.0877380    -0.0630770    -0.3573080
  O        1.2658980     0.7202100     0.4017270
  O       -0.5335540    -0.9159530     0.8701820
  O       -0.9475996     1.1763616    -0.6728260
  O        0.4465310    -0.8472510    -1.5565760
  C        2.4637000    -0.0342890     0.6951100
  C       -1.5478570    -1.8846230     0.5157310
  C       -1.3164940     2.0084280     0.4478740
  H        2.9076370    -0.4029020    -0.2303870
  H        2.2294240    -0.8677130     1.3606750
  H        3.1371140     0.6611440     1.1918470
  H       -2.3893800    -1.3915170     0.0214860
  H       -1.8772340    -2.3283310     1.4531950
  H       -1.1270350    -2.6465320    -0.1425260
  H       -1.6285856     1.4910830     1.3571997
  H       -2.1494040     2.6019710     0.0764460
  H       -0.4694080     2.6502780     0.6903180
units angstrom
no_reorient  #important for SAPT in psi4, default
symmetry c1  #important for SAPT in psi4, default
}

set PROPERTIES_ORIGIN ["COM"]
properties('MP2/aug-cc-pvtz', properties = ['dipole'])
--------------------------------------------------------------------------

    Molecular point group: c1
  Charge       = 0
  Multiplicity = 1
  Basis Set: AUG-CC-PVTZ
    Blend: AUG-CC-PVTZ
  Basis Set: (AUG-CC-PVTZ AUX)
    Blend: AUG-CC-PVTZ-JKFIT

    Orbital Energies [Eh]
    ---------------------

    Doubly Occupied:

       1A    -80.104217     2A    -20.599197     3A    -20.594295
       4A    -20.594169     5A    -20.510640     6A    -11.298015
       7A    -11.295618     8A    -11.291286     9A     -7.619646
      10A     -5.518043    11A     -5.517672    12A     -5.516600
      13A     -1.444285    14A     -1.381387    15A     -1.372674
      16A     -1.292167    17A     -0.978633    18A     -0.951466
      19A     -0.947074    20A     -0.787334    21A     -0.712936
      22A     -0.711736    23A     -0.672268    24A     -0.661952
      25A     -0.649068    26A     -0.624994    27A     -0.620018
      28A     -0.613808    29A     -0.584511    30A     -0.540792
      31A     -0.527379    32A     -0.518744    33A     -0.498868
      34A     -0.492290    35A     -0.481561    36A     -0.465155
      37A     -0.460174

  @DF-RHF Final Energy:  -759.31011790108732

   => Energetics <=

    Nuclear Repulsion Energy =            547.0195008521247928
    One-Electron Energy =               -2133.7578916778456914
    Two-Electron Energy =                 827.4282729246335748
    Total Energy =                       -759.3101179010873238
  Basis Set: (AUG-CC-PVTZ AUX)
    Blend: AUG-CC-PVTZ-RI
    Molecular point group: c1

    Geometry (in Angstrom), charge = 0, multiplicity = 1:

       Center              X                  Y                   Z               Mass
    ------------   -----------------  -----------------  -----------------  -----------------
         P            0.086085232993    -0.070356652371    -0.352636345605    30.973761998420
         O            1.264245232993     0.712930347629     0.406398654395    15.994914619570
         O           -0.535206767007    -0.923232652371     0.874853654395    15.994914619570
         O           -0.949252367007     1.169081947629    -0.668154345605    15.994914619570
         O            0.444878232993    -0.854530652371    -1.551904345605    15.994914619570
         C            2.462047232993    -0.041568652371     0.699781654395    12.000000000000
         C           -1.549509767007    -1.891902652371     0.520402654395    12.000000000000
         C           -1.318146767007     2.001148347629     0.452545654395    12.000000000000
         H            2.905984232993    -0.410181652371    -0.225715345605     1.007825032230
         H            2.227771232993    -0.874992652371     1.365346654395     1.007825032230
         H            3.135461232993     0.653864347629     1.196518654395     1.007825032230
         H           -2.391032767007    -1.398796652371     0.026157654395     1.007825032230
         H           -1.878886767007    -2.335610652371     1.457866654395     1.007825032230
         H           -1.128687767007    -2.653811652371    -0.137854345605     1.007825032230
         H           -1.630238367007     1.483803347629     1.361871354395     1.007825032230
         H           -2.151056767007     2.594691347629     0.081117654395     1.007825032230
         H           -0.471060767007     2.642998347629     0.694989654395     1.007825032230

  Basis Set: AUG-CC-PVTZ
    Blend: AUG-CC-PVTZ
  Basis Set: (AUG-CC-PVTZ AUX)
    Blend: AUG-CC-PVTZ-JKFIT
	 Reference Energy          =    -759.3101179010873238 [Eh]
	 Singles Energy            =      -0.0000000000000000 [Eh]
	 Same-Spin Energy          =      -0.4443202305490969 [Eh]
	 Opposite-Spin Energy      =      -1.3841726233274181 [Eh]
	 Correlation Energy        =      -1.8284928538765151 [Eh]
	 Total Energy              =    -761.1386107549637927 [Eh]

	 ================> DF-SCS-MP2 Energies <==================
	-----------------------------------------------------------
	 SCS Same-Spin Scale       =       0.3333333333333333 [-]
	 SCS Opposite-Spin Scale   =       1.2000000000000000 [-]
	 SCS Same-Spin Energy      =      -0.1481067435163656 [Eh]
	 SCS Opposite-Spin Energy  =      -1.6610071479929016 [Eh]
	 SCS Correlation Energy    =      -1.8091138915092673 [Eh]
	 SCS Total Energy          =    -761.1192317925965654 [Eh]
	-----------------------------------------------------------

  Dipole Moment: [D]
     X:    -0.7475      Y:     0.2519      Z:     3.6323     Total:     3.7170

*** Psi4 exiting successfully. Buy a developer a beer!
