                               Psi4 1.3.2 release

  ==> Input File <==

--------------------------------------------------------------------------
#psi4
#
memory 32 gb

molecule  {
0 1
  P        0.0877380    -0.0630770    -0.3573080
  O        1.1925167     0.6714232     0.3544508
  O       -0.5335540    -0.9159530     0.8701820
  O       -0.9626110     1.1157580    -0.6302230
  O        0.4465310    -0.8472510    -1.5565760
  C        2.4637000    -0.0342890     0.6951100
  C       -1.5478570    -1.8846230     0.5157310
  C       -1.3164940     2.0084280     0.4478740
  H        2.9076370    -0.4029020    -0.2303870
  H        2.2294240    -0.8677130     1.3606750
  H        3.1371140     0.6611440     1.1918470
  H       -2.3893800    -1.3915170     0.0214860
  H       -1.8772340    -2.3283310     1.4531950
  H       -1.1270350    -2.6465320    -0.1425260
  H       -1.6199920     1.4414800     1.3301320
  H       -2.1494040     2.6019710     0.0764460
  H       -0.4694080     2.6502780     0.6903180
units angstrom
no_reorient  #important for SAPT in psi4, default
symmetry c1  #important for SAPT in psi4, default
}

set PROPERTIES_ORIGIN ["COM"]
properties('MP2/aug-cc-pvtz', properties = ['dipole'])
--------------------------------------------------------------------------

    Molecular point group: c1
  Charge       = 0
  Multiplicity = 1
  Basis Set: AUG-CC-PVTZ
    Blend: AUG-CC-PVTZ
  Basis Set: (AUG-CC-PVTZ AUX)
    Blend: AUG-CC-PVTZ-JKFIT

    Orbital Energies [Eh]
    ---------------------

    Doubly Occupied:

       1A    -80.083350     2A    -20.593714     3A    -20.585473
       4A    -20.584052     5A    -20.498126     6A    -11.310966
       7A    -11.291915     8A    -11.290008     9A     -7.602181
      10A     -5.501089    11A     -5.500108    12A     -5.498883
      13A     -1.458491    14A     -1.380925    15A     -1.371578
      16A     -1.281467    17A     -0.987203    18A     -0.952871
      19A     -0.948176    20A     -0.782949    21A     -0.715975
      22A     -0.712749    23A     -0.676295    24A     -0.661649
      25A     -0.648383    26A     -0.626134    27A     -0.618298
      28A     -0.614507    29A     -0.579428    30A     -0.540984
      31A     -0.530187    32A     -0.520225    33A     -0.502337
      34A     -0.490343    35A     -0.479514    36A     -0.457034
      37A     -0.450812

  @DF-RHF Final Energy:  -759.31252080427782

   => Energetics <=

    Nuclear Repulsion Energy =            552.6695871735328183
    One-Electron Energy =               -2145.3074541593055073
    Two-Electron Energy =                 833.3253461814948650
    Total Energy =                       -759.3125208042778240
  Basis Set: (AUG-CC-PVTZ AUX)
    Blend: AUG-CC-PVTZ-RI
    Molecular point group: c1

    Geometry (in Angstrom), charge = 0, multiplicity = 1:

       Center              X                  Y                   Z               Mass
    ------------   -----------------  -----------------  -----------------  -----------------
         P            0.096120472609    -0.057503975432    -0.351907705850    30.973761998420
         O            1.200899172609     0.676996224568     0.359851094150    15.994914619570
         O           -0.525171527391    -0.910379975432     0.875582294150    15.994914619570
         O           -0.954228527391     1.121331024568    -0.624822705850    15.994914619570
         O            0.454913472609    -0.841677975432    -1.551175705850    15.994914619570
         C            2.472082472609    -0.028715975432     0.700510294150    12.000000000000
         C           -1.539474527391    -1.879049975432     0.521131294150    12.000000000000
         C           -1.308111527391     2.014001024568     0.453274294150    12.000000000000
         H            2.916019472609    -0.397328975432    -0.224986705850     1.007825032230
         H            2.237806472609    -0.862139975432     1.366075294150     1.007825032230
         H            3.145496472609     0.666717024568     1.197247294150     1.007825032230
         H           -2.380997527391    -1.385943975432     0.026886294150     1.007825032230
         H           -1.868851527391    -2.322757975432     1.458595294150     1.007825032230
         H           -1.118652527391    -2.640958975432    -0.137125705850     1.007825032230
         H           -1.611609527391     1.447053024568     1.335532294150     1.007825032230
         H           -2.141021527391     2.607544024568     0.081846294150     1.007825032230
         H           -0.461025527391     2.655851024568     0.695718294150     1.007825032230

  Basis Set: AUG-CC-PVTZ
    Blend: AUG-CC-PVTZ
  Basis Set: (AUG-CC-PVTZ AUX)
    Blend: AUG-CC-PVTZ-JKFIT
	 Reference Energy          =    -759.3125208042778240 [Eh]
	 Singles Energy            =      -0.0000000000000000 [Eh]
	 Same-Spin Energy          =      -0.4426925017146829 [Eh]
	 Opposite-Spin Energy      =      -1.3797839955504787 [Eh]
	 Correlation Energy        =      -1.8224764972651617 [Eh]
	 Total Energy              =    -761.1349973015429669 [Eh]

	 ================> DF-SCS-MP2 Energies <==================
	-----------------------------------------------------------
	 SCS Same-Spin Scale       =       0.3333333333333333 [-]
	 SCS Opposite-Spin Scale   =       1.2000000000000000 [-]
	 SCS Same-Spin Energy      =      -0.1475641672382276 [Eh]
	 SCS Opposite-Spin Energy  =      -1.6557407946605744 [Eh]
	 SCS Correlation Energy    =      -1.8033049618988022 [Eh]
	 SCS Total Energy          =    -761.1158257661766129 [Eh]
	-----------------------------------------------------------

  Dipole Moment: [D]
     X:    -0.0798      Y:     0.7034      Z:     3.8453     Total:     3.9099

*** Psi4 exiting successfully. Buy a developer a beer!
