                               Psi4 1.3.2 release

  ==> Input File <==

--------------------------------------------------------------------------
#psi4
#
memory 32 gb

molecule  {
0 1
  P        0.0877380    -0.0630770    -0.3573080
  O        1.2728856     0.7325958     0.3775823
  O       -0.5525481    -0.9271078     0.8524926
  O       -0.9626110     1.1157580    -0.6302230
  O        0.4465310    -0.8472510    -1.5565760
  C        2.4637000    -0.0342890     0.6951100
  C       -1.5478570    -1.8846230     0.5157310
  C       -1.3164940     2.0084280     0.4478740
  H        2.9076370    -0.4029020    -0.2303870
  H        2.2294240    -0.8677130     1.3606750
  H        3.1371140     0.6611440     1.1918470
  H       -2.3893800    -1.3915170     0.0214860
  H       -1.8772340    -2.3283310     1.4531950
  H       -1.1270350    -2.6465320    -0.1425260
  H       -1.6199920     1.4414800     1.3301320
  H       -2.1494040     2.6019710     0.0764460
  H       -0.4694080     2.6502780     0.6903180
units angstrom
no_reorient  #important for SAPT in psi4, default
symmetry c1  #important for SAPT in psi4, default
}

set PROPERTIES_ORIGIN ["COM"]
properties('MP2/aug-cc-pvtz', properties = ['dipole'])
--------------------------------------------------------------------------

    Molecular point group: c1
  Charge       = 0
  Multiplicity = 1
  Basis Set: AUG-CC-PVTZ
    Blend: AUG-CC-PVTZ
  Basis Set: (AUG-CC-PVTZ AUX)
    Blend: AUG-CC-PVTZ-JKFIT

    Orbital Energies [Eh]
    ---------------------

    Doubly Occupied:

       1A    -80.100164     2A    -20.595805     3A    -20.593169
       4A    -20.592148     5A    -20.507090     6A    -11.296662
       7A    -11.295665     8A    -11.292709     9A     -7.616202
      10A     -5.514685    11A     -5.514317    12A     -5.513116
      13A     -1.448834    14A     -1.384335    15A     -1.378216
      16A     -1.289492    17A     -0.979993    18A     -0.954252
      19A     -0.948470    20A     -0.786755    21A     -0.715920
      22A     -0.713296    23A     -0.674616    24A     -0.665553
      25A     -0.649455    26A     -0.631801    27A     -0.623908
      28A     -0.614304    29A     -0.582233    30A     -0.539139
      31A     -0.530095    32A     -0.515918    33A     -0.498231
      34A     -0.491557    35A     -0.483562    36A     -0.463002
      37A     -0.456772

  @DF-RHF Final Energy:  -759.31642716210160

   => Energetics <=

    Nuclear Repulsion Energy =            549.1546154780277220
    One-Electron Energy =               -2138.0392042095713805
    Two-Electron Energy =                 829.5681615694421680
    Total Energy =                       -759.3164271621016042
  Basis Set: (AUG-CC-PVTZ AUX)
    Blend: AUG-CC-PVTZ-RI
    Molecular point group: c1

    Geometry (in Angstrom), charge = 0, multiplicity = 1:

       Center              X                  Y                   Z               Mass
    ------------   -----------------  -----------------  -----------------  -----------------
         P            0.089109633274    -0.063217505411    -0.352529356572    30.973761998420
         O            1.274257233274     0.732455294589     0.382360943428    15.994914619570
         O           -0.551176466726    -0.927248305411     0.857271243428    15.994914619570
         O           -0.961239366726     1.115617494589    -0.625444356572    15.994914619570
         O            0.447902633274    -0.847391505411    -1.551797356572    15.994914619570
         C            2.465071633274    -0.034429505411     0.699888643428    12.000000000000
         C           -1.546485366726    -1.884763505411     0.520509643428    12.000000000000
         C           -1.315122366726     2.008287494589     0.452652643428    12.000000000000
         H            2.909008633274    -0.403042505411    -0.225608356572     1.007825032230
         H            2.230795633274    -0.867853505411     1.365453643428     1.007825032230
         H            3.138485633274     0.661003494589     1.196625643428     1.007825032230
         H           -2.388008366726    -1.391657505411     0.026264643428     1.007825032230
         H           -1.875862366726    -2.328471505411     1.457973643428     1.007825032230
         H           -1.125663366726    -2.646672505411    -0.137747356572     1.007825032230
         H           -1.618620366726     1.441339494589     1.334910643428     1.007825032230
         H           -2.148032366726     2.601830494589     0.081224643428     1.007825032230
         H           -0.468036366726     2.650137494589     0.695096643428     1.007825032230

  Basis Set: AUG-CC-PVTZ
    Blend: AUG-CC-PVTZ
  Basis Set: (AUG-CC-PVTZ AUX)
    Blend: AUG-CC-PVTZ-JKFIT
	 Reference Energy          =    -759.3164271621016042 [Eh]
	 Singles Energy            =      -0.0000000000000000 [Eh]
	 Same-Spin Energy          =      -0.4435308213312000 [Eh]
	 Opposite-Spin Energy      =      -1.3817920709845231 [Eh]
	 Correlation Energy        =      -1.8253228923157230 [Eh]
	 Total Energy              =    -761.1417500544173436 [Eh]

	 ================> DF-SCS-MP2 Energies <==================
	-----------------------------------------------------------
	 SCS Same-Spin Scale       =       0.3333333333333333 [-]
	 SCS Opposite-Spin Scale   =       1.2000000000000000 [-]
	 SCS Same-Spin Energy      =      -0.1478436071104000 [Eh]
	 SCS Opposite-Spin Energy  =      -1.6581504851814277 [Eh]
	 SCS Correlation Energy    =      -1.8059940922918276 [Eh]
	 SCS Total Energy          =    -761.1224212543934300 [Eh]
	-----------------------------------------------------------

  Dipole Moment: [D]
     X:    -0.6885      Y:     0.5902      Z:     3.6430     Total:     3.7541

*** Psi4 exiting successfully. Buy a developer a beer!
