                               Psi4 1.3.2 release

  ==> Input File <==

--------------------------------------------------------------------------
#psi4
#
memory 32 gb

molecule  {
0 1
  P        0.0877380    -0.0630770    -0.3573080
  O        1.2658980     0.7202100     0.4017270
  O       -0.5335540    -0.9159530     0.8701820
  O       -0.9626110     1.1157580    -0.6302230
  O        0.4222411    -0.7941632    -1.4753868
  C        2.4637000    -0.0342890     0.6951100
  C       -1.5478570    -1.8846230     0.5157310
  C       -1.3164940     2.0084280     0.4478740
  H        2.9076370    -0.4029020    -0.2303870
  H        2.2294240    -0.8677130     1.3606750
  H        3.1371140     0.6611440     1.1918470
  H       -2.3893800    -1.3915170     0.0214860
  H       -1.8772340    -2.3283310     1.4531950
  H       -1.1270350    -2.6465320    -0.1425260
  H       -1.6199920     1.4414800     1.3301320
  H       -2.1494040     2.6019710     0.0764460
  H       -0.4694080     2.6502780     0.6903180
units angstrom
no_reorient  #important for SAPT in psi4, default
symmetry c1  #important for SAPT in psi4, default
}

set PROPERTIES_ORIGIN ["COM"]
properties('MP2/aug-cc-pvtz', properties = ['dipole'])
--------------------------------------------------------------------------

    Molecular point group: c1
  Charge       = 0
  Multiplicity = 1
  Basis Set: AUG-CC-PVTZ
    Blend: AUG-CC-PVTZ
  Basis Set: (AUG-CC-PVTZ AUX)
    Blend: AUG-CC-PVTZ-JKFIT

    Orbital Energies [Eh]
    ---------------------

    Doubly Occupied:

       1A    -80.077569     2A    -20.586269     3A    -20.586170
       4A    -20.586132     5A    -20.504811     6A    -11.293142
       7A    -11.292489     8A    -11.291440     9A     -7.599735
      10A     -5.498020    11A     -5.497251    12A     -5.496962
      13A     -1.448936    14A     -1.373069    15A     -1.372700
      16A     -1.333074    17A     -0.974479    18A     -0.950799
      19A     -0.944213    20A     -0.779499    21A     -0.713086
      22A     -0.710468    23A     -0.668477    24A     -0.660601
      25A     -0.646301    26A     -0.627389    27A     -0.614215
      28A     -0.610308    29A     -0.596207    30A     -0.543973
      31A     -0.530734    32A     -0.520219    33A     -0.497062
      34A     -0.491121    35A     -0.485694    36A     -0.476988
      37A     -0.469560

  @DF-RHF Final Energy:  -759.31178269630436

   => Energetics <=

    Nuclear Repulsion Energy =            554.0403945649530897
    One-Electron Energy =               -2148.0060257785066824
    Two-Electron Energy =                 834.6538485172491164
    Total Energy =                       -759.3117826963043626
  Basis Set: (AUG-CC-PVTZ AUX)
    Blend: AUG-CC-PVTZ-RI
    Molecular point group: c1

    Geometry (in Angstrom), charge = 0, multiplicity = 1:

       Center              X                  Y                   Z               Mass
    ------------   -----------------  -----------------  -----------------  -----------------
         P            0.090512765242    -0.069141104237    -0.366582299976    30.973761998420
         O            1.268672765242     0.714145895763     0.392452700024    15.994914619570
         O           -0.530779234758    -0.922017104237     0.860907700024    15.994914619570
         O           -0.959836234758     1.109693895763    -0.639497299976    15.994914619570
         O            0.425015865242    -0.800227304237    -1.484661099976    15.994914619570
         C            2.466474765242    -0.040353104237     0.685835700024    12.000000000000
         C           -1.545082234758    -1.890687104237     0.506456700024    12.000000000000
         C           -1.313719234758     2.002363895763     0.438599700024    12.000000000000
         H            2.910411765242    -0.408966104237    -0.239661299976     1.007825032230
         H            2.232198765242    -0.873777104237     1.351400700024     1.007825032230
         H            3.139888765242     0.655079895763     1.182572700024     1.007825032230
         H           -2.386605234758    -1.397581104237     0.012211700024     1.007825032230
         H           -1.874459234758    -2.334395104237     1.443920700024     1.007825032230
         H           -1.124260234758    -2.652596104237    -0.151800299976     1.007825032230
         H           -1.617217234758     1.435415895763     1.320857700024     1.007825032230
         H           -2.146629234758     2.595906895763     0.067171700024     1.007825032230
         H           -0.466633234758     2.644213895763     0.681043700024     1.007825032230

  Basis Set: AUG-CC-PVTZ
    Blend: AUG-CC-PVTZ
  Basis Set: (AUG-CC-PVTZ AUX)
    Blend: AUG-CC-PVTZ-JKFIT
	 Reference Energy          =    -759.3117826963043626 [Eh]
	 Singles Energy            =      -0.0000000000000000 [Eh]
	 Same-Spin Energy          =      -0.4412966284845090 [Eh]
	 Opposite-Spin Energy      =      -1.3767913978353530 [Eh]
	 Correlation Energy        =      -1.8180880263198620 [Eh]
	 Total Energy              =    -761.1298707226242186 [Eh]

	 ================> DF-SCS-MP2 Energies <==================
	-----------------------------------------------------------
	 SCS Same-Spin Scale       =       0.3333333333333333 [-]
	 SCS Opposite-Spin Scale   =       1.2000000000000000 [-]
	 SCS Same-Spin Energy      =      -0.1470988761615030 [Eh]
	 SCS Opposite-Spin Energy  =      -1.6521496774024236 [Eh]
	 SCS Correlation Energy    =      -1.7992485535639267 [Eh]
	 SCS Total Energy          =    -761.1110312498682333 [Eh]
	-----------------------------------------------------------

  Dipole Moment: [D]
     X:    -0.6701      Y:     0.3078      Z:     3.1355     Total:     3.2211

*** Psi4 exiting successfully. Buy a developer a beer!
