                               Psi4 1.3.2 release

  ==> Input File <==

--------------------------------------------------------------------------
#psi4
#
memory 32 gb

molecule  {
0 1
  P        0.0877380    -0.0630770    -0.3573080
  O        1.2795121     0.7447393     0.3532137
  O       -0.5713471    -0.9379994     0.8344347
  O       -0.9626110     1.1157580    -0.6302230
  O        0.4465310    -0.8472510    -1.5565760
  C        2.4637000    -0.0342890     0.6951100
  C       -1.5478570    -1.8846230     0.5157310
  C       -1.3164940     2.0084280     0.4478740
  H        2.9076370    -0.4029020    -0.2303870
  H        2.2294240    -0.8677130     1.3606750
  H        3.1371140     0.6611440     1.1918470
  H       -2.3893800    -1.3915170     0.0214860
  H       -1.8772340    -2.3283310     1.4531950
  H       -1.1270350    -2.6465320    -0.1425260
  H       -1.6199920     1.4414800     1.3301320
  H       -2.1494040     2.6019710     0.0764460
  H       -0.4694080     2.6502780     0.6903180
units angstrom
no_reorient  #important for SAPT in psi4, default
symmetry c1  #important for SAPT in psi4, default
}

set PROPERTIES_ORIGIN ["COM"]
properties('MP2/aug-cc-pvtz', properties = ['dipole'])
--------------------------------------------------------------------------

    Molecular point group: c1
  Charge       = 0
  Multiplicity = 1
  Basis Set: AUG-CC-PVTZ
    Blend: AUG-CC-PVTZ
  Basis Set: (AUG-CC-PVTZ AUX)
    Blend: AUG-CC-PVTZ-JKFIT

    Orbital Energies [Eh]
    ---------------------

    Doubly Occupied:

       1A    -80.101082     2A    -20.598457     3A    -20.592964
       4A    -20.591631     5A    -20.505739     6A    -11.298684
       7A    -11.295815     8A    -11.290099     9A     -7.617035
      10A     -5.515565    11A     -5.515099    12A     -5.513954
      13A     -1.450800    14A     -1.390331    15A     -1.377848
      16A     -1.288696    17A     -0.981024    18A     -0.954066
      19A     -0.949952    20A     -0.787563    21A     -0.718278
      22A     -0.714251    23A     -0.676346    24A     -0.667703
      25A     -0.649773    26A     -0.633253    27A     -0.629501
      28A     -0.614289    29A     -0.581615    30A     -0.537733
      31A     -0.531318    32A     -0.515822    33A     -0.498279
      34A     -0.491567    35A     -0.481860    36A     -0.461818
      37A     -0.455522

  @DF-RHF Final Energy:  -759.31523625022999

   => Energetics <=

    Nuclear Repulsion Energy =            549.2678718409852081
    One-Electron Energy =               -2138.2155518964623298
    Two-Electron Energy =                 829.6324438052471351
    Total Energy =                       -759.3152362502299866
  Basis Set: (AUG-CC-PVTZ AUX)
    Blend: AUG-CC-PVTZ-RI
    Molecular point group: c1

    Geometry (in Angstrom), charge = 0, multiplicity = 1:

       Center              X                  Y                   Z               Mass
    ------------   -----------------  -----------------  -----------------  -----------------
         P            0.090500097142    -0.063360509865    -0.347682980290    30.973761998420
         O            1.282274197142     0.744455790135     0.362838719710    15.994914619570
         O           -0.568585002858    -0.938282909865     0.844059719710    15.994914619570
         O           -0.959848902858     1.115474490135    -0.620597980290    15.994914619570
         O            0.449293097142    -0.847534509865    -1.546950980290    15.994914619570
         C            2.466462097142    -0.034572509865     0.704735019710    12.000000000000
         C           -1.545094902858    -1.884906509865     0.525356019710    12.000000000000
         C           -1.313731902858     2.008144490135     0.457499019710    12.000000000000
         H            2.910399097142    -0.403185509865    -0.220761980290     1.007825032230
         H            2.232186097142    -0.867996509865     1.370300019710     1.007825032230
         H            3.139876097142     0.660860490135     1.201472019710     1.007825032230
         H           -2.386617902858    -1.391800509865     0.031111019710     1.007825032230
         H           -1.874471902858    -2.328614509865     1.462820019710     1.007825032230
         H           -1.124272902858    -2.646815509865    -0.132900980290     1.007825032230
         H           -1.617229902858     1.441196490135     1.339757019710     1.007825032230
         H           -2.146641902858     2.601687490135     0.086071019710     1.007825032230
         H           -0.466645902858     2.649994490135     0.699943019710     1.007825032230

  Basis Set: AUG-CC-PVTZ
    Blend: AUG-CC-PVTZ
  Basis Set: (AUG-CC-PVTZ AUX)
    Blend: AUG-CC-PVTZ-JKFIT
	 Reference Energy          =    -759.3152362502299866 [Eh]
	 Singles Energy            =      -0.0000000000000000 [Eh]
	 Same-Spin Energy          =      -0.4434223929461236 [Eh]
	 Opposite-Spin Energy      =      -1.3813330776539003 [Eh]
	 Correlation Energy        =      -1.8247554706000240 [Eh]
	 Total Energy              =    -761.1399917208300394 [Eh]

	 ================> DF-SCS-MP2 Energies <==================
	-----------------------------------------------------------
	 SCS Same-Spin Scale       =       0.3333333333333333 [-]
	 SCS Opposite-Spin Scale   =       1.2000000000000000 [-]
	 SCS Same-Spin Energy      =      -0.1478074643153745 [Eh]
	 SCS Opposite-Spin Energy  =      -1.6575996931846804 [Eh]
	 SCS Correlation Energy    =      -1.8054071575000550 [Eh]
	 SCS Total Energy          =    -761.1206434077300855 [Eh]
	-----------------------------------------------------------

  Dipole Moment: [D]
     X:    -0.5814      Y:     0.6391      Z:     3.7431     Total:     3.8415

*** Psi4 exiting successfully. Buy a developer a beer!
