                               Psi4 1.3.2 release

  ==> Input File <==

--------------------------------------------------------------------------
#psi4
#
memory 32 gb

molecule  {
0 1
  P        0.0877380    -0.0630770    -0.3573080
  O        1.2658980     0.7202100     0.4017270
  O       -0.5335540    -0.9159530     0.8701820
  O       -0.9678325     1.0960925    -0.6153593
  O        0.4465310    -0.8472510    -1.5565760
  C        2.4637000    -0.0342890     0.6951100
  C       -1.5478570    -1.8846230     0.5157310
  C       -1.3164940     2.0084280     0.4478740
  H        2.9076370    -0.4029020    -0.2303870
  H        2.2294240    -0.8677130     1.3606750
  H        3.1371140     0.6611440     1.1918470
  H       -2.3893800    -1.3915170     0.0214860
  H       -1.8772340    -2.3283310     1.4531950
  H       -1.1270350    -2.6465320    -0.1425260
  H       -1.6169414     1.4252844     1.3205682
  H       -2.1494040     2.6019710     0.0764460
  H       -0.4694080     2.6502780     0.6903180
units angstrom
no_reorient  #important for SAPT in psi4, default
symmetry c1  #important for SAPT in psi4, default
}

set PROPERTIES_ORIGIN ["COM"]
properties('MP2/aug-cc-pvtz', properties = ['dipole'])
--------------------------------------------------------------------------

    Molecular point group: c1
  Charge       = 0
  Multiplicity = 1
  Basis Set: AUG-CC-PVTZ
    Blend: AUG-CC-PVTZ
  Basis Set: (AUG-CC-PVTZ AUX)
    Blend: AUG-CC-PVTZ-JKFIT

    Orbital Energies [Eh]
    ---------------------

    Doubly Occupied:

       1A    -80.097719     2A    -20.592756     3A    -20.592122
       4A    -20.591201     5A    -20.507789     6A    -11.296904
       7A    -11.294454     8A    -11.294351     9A     -7.614083
      10A     -5.512585    11A     -5.512247    12A     -5.510966
      13A     -1.448609    14A     -1.380145    15A     -1.377083
      16A     -1.289723    17A     -0.979515    18A     -0.955651
      19A     -0.946652    20A     -0.785366    21A     -0.714795
      22A     -0.711668    23A     -0.673896    24A     -0.664026
      25A     -0.649483    26A     -0.631396    27A     -0.616952
      28A     -0.614317    29A     -0.582488    30A     -0.540621
      31A     -0.529934    32A     -0.515379    33A     -0.497836
      34A     -0.491210    35A     -0.484745    36A     -0.463626
      37A     -0.457134

  @DF-RHF Final Energy:  -759.31675431087967

   => Energetics <=

    Nuclear Repulsion Energy =            549.7194531658557253
    One-Electron Energy =               -2139.2335625936761971
    Two-Electron Energy =                 830.1973551169409120
    Total Energy =                       -759.3167543108796735
  Basis Set: (AUG-CC-PVTZ AUX)
    Blend: AUG-CC-PVTZ-RI
    Molecular point group: c1

    Geometry (in Angstrom), charge = 0, multiplicity = 1:

       Center              X                  Y                   Z               Mass
    ------------   -----------------  -----------------  -----------------  -----------------
         P            0.088312626406    -0.060713931376    -0.358937106825    30.973761998420
         O            1.266472626406     0.722573068624     0.400097893175    15.994914619570
         O           -0.532979373594    -0.913589931376     0.868552893175    15.994914619570
         O           -0.967257873594     1.098455568624    -0.616988406825    15.994914619570
         O            0.447105626406    -0.844887931376    -1.558205106825    15.994914619570
         C            2.464274626406    -0.031925931376     0.693480893175    12.000000000000
         C           -1.547282373594    -1.882259931376     0.514101893175    12.000000000000
         C           -1.315919373594     2.010791068624     0.446244893175    12.000000000000
         H            2.908211626406    -0.400538931376    -0.232016106825     1.007825032230
         H            2.229998626406    -0.865349931376     1.359045893175     1.007825032230
         H            3.137688626406     0.663507068624     1.190217893175     1.007825032230
         H           -2.388805373594    -1.389153931376     0.019856893175     1.007825032230
         H           -1.876659373594    -2.325967931376     1.451565893175     1.007825032230
         H           -1.126460373594    -2.644168931376    -0.144155106825     1.007825032230
         H           -1.616366773594     1.427647468624     1.318939093175     1.007825032230
         H           -2.148829373594     2.604334068624     0.074816893175     1.007825032230
         H           -0.468833373594     2.652641068624     0.688688893175     1.007825032230

  Basis Set: AUG-CC-PVTZ
    Blend: AUG-CC-PVTZ
  Basis Set: (AUG-CC-PVTZ AUX)
    Blend: AUG-CC-PVTZ-JKFIT
	 Reference Energy          =    -759.3167543108796735 [Eh]
	 Singles Energy            =      -0.0000000000000000 [Eh]
	 Same-Spin Energy          =      -0.4435465728888658 [Eh]
	 Opposite-Spin Energy      =      -1.3818903213011211 [Eh]
	 Correlation Energy        =      -1.8254368941899868 [Eh]
	 Total Energy              =    -761.1421912050697074 [Eh]

	 ================> DF-SCS-MP2 Energies <==================
	-----------------------------------------------------------
	 SCS Same-Spin Scale       =       0.3333333333333333 [-]
	 SCS Opposite-Spin Scale   =       1.2000000000000000 [-]
	 SCS Same-Spin Energy      =      -0.1478488576296219 [Eh]
	 SCS Opposite-Spin Energy  =      -1.6582683855613454 [Eh]
	 SCS Correlation Energy    =      -1.8061172431909673 [Eh]
	 SCS Total Energy          =    -761.1228715540706844 [Eh]
	-----------------------------------------------------------

  Dipole Moment: [D]
     X:    -0.8013      Y:     0.6420      Z:     3.5107     Total:     3.6578

*** Psi4 exiting successfully. Buy a developer a beer!
