                               Psi4 1.3.2 release

  ==> Input File <==

--------------------------------------------------------------------------
#psi4
#
memory 32 gb

molecule  {
0 1
  P        0.0877380    -0.0630770    -0.3573080
  O        1.2857756     0.7566366     0.3286286
  O       -0.5899453    -0.9486244     0.8160138
  O       -0.9626110     1.1157580    -0.6302230
  O        0.4465310    -0.8472510    -1.5565760
  C        2.4637000    -0.0342890     0.6951100
  C       -1.5478570    -1.8846230     0.5157310
  C       -1.3164940     2.0084280     0.4478740
  H        2.9076370    -0.4029020    -0.2303870
  H        2.2294240    -0.8677130     1.3606750
  H        3.1371140     0.6611440     1.1918470
  H       -2.3893800    -1.3915170     0.0214860
  H       -1.8772340    -2.3283310     1.4531950
  H       -1.1270350    -2.6465320    -0.1425260
  H       -1.6199920     1.4414800     1.3301320
  H       -2.1494040     2.6019710     0.0764460
  H       -0.4694080     2.6502780     0.6903180
units angstrom
no_reorient  #important for SAPT in psi4, default
symmetry c1  #important for SAPT in psi4, default
}

set PROPERTIES_ORIGIN ["COM"]
properties('MP2/aug-cc-pvtz', properties = ['dipole'])
--------------------------------------------------------------------------

    Molecular point group: c1
  Charge       = 0
  Multiplicity = 1
  Basis Set: AUG-CC-PVTZ
    Blend: AUG-CC-PVTZ
  Basis Set: (AUG-CC-PVTZ AUX)
    Blend: AUG-CC-PVTZ-JKFIT

    Orbital Energies [Eh]
    ---------------------

    Doubly Occupied:

       1A    -80.102087     2A    -20.601057     3A    -20.592627
       4A    -20.591126     5A    -20.504399     6A    -11.300788
       7A    -11.295980     8A    -11.287464     9A     -7.617945
      10A     -5.516536    11A     -5.515949    12A     -5.514865
      13A     -1.453266    14A     -1.396065    15A     -1.377422
      16A     -1.287904    17A     -0.982112    18A     -0.953934
      19A     -0.951589    20A     -0.788270    21A     -0.720877
      22A     -0.715065    23A     -0.678337    24A     -0.669890
      25A     -0.650388    26A     -0.635430    27A     -0.633631
      28A     -0.614190    29A     -0.581067    30A     -0.536739
      31A     -0.532728    32A     -0.515726    33A     -0.498206
      34A     -0.491216    35A     -0.479600    36A     -0.460580
      37A     -0.454132

  @DF-RHF Final Energy:  -759.31243700384061

   => Energetics <=

    Nuclear Repulsion Energy =            549.3927274786443604
    One-Electron Energy =               -2138.4119560962253672
    Two-Electron Energy =                 829.7067916137405064
    Total Energy =                       -759.3124370038406141
  Basis Set: (AUG-CC-PVTZ AUX)
    Blend: AUG-CC-PVTZ-RI
    Molecular point group: c1

    Geometry (in Angstrom), charge = 0, multiplicity = 1:

       Center              X                  Y                   Z               Mass
    ------------   -----------------  -----------------  -----------------  -----------------
         P            0.091909089105    -0.063505844609    -0.342770407761    30.973761998420
         O            1.289946689105     0.756207755391     0.343166192239    15.994914619570
         O           -0.585774210895    -0.949053244609     0.830551392239    15.994914619570
         O           -0.958439910895     1.115329155391    -0.615685407761    15.994914619570
         O            0.450702089105    -0.847679844609    -1.542038407761    15.994914619570
         C            2.467871089105    -0.034717844609     0.709647592239    12.000000000000
         C           -1.543685910895    -1.885051844609     0.530268592239    12.000000000000
         C           -1.312322910895     2.007999155391     0.462411592239    12.000000000000
         H            2.911808089105    -0.403330844609    -0.215849407761     1.007825032230
         H            2.233595089105    -0.868141844609     1.375212592239     1.007825032230
         H            3.141285089105     0.660715155391     1.206384592239     1.007825032230
         H           -2.385208910895    -1.391945844609     0.036023592239     1.007825032230
         H           -1.873062910895    -2.328759844609     1.467732592239     1.007825032230
         H           -1.122863910895    -2.646960844609    -0.127988407761     1.007825032230
         H           -1.615820910895     1.441051155391     1.344669592239     1.007825032230
         H           -2.145232910895     2.601542155391     0.090983592239     1.007825032230
         H           -0.465236910895     2.649849155391     0.704855592239     1.007825032230

  Basis Set: AUG-CC-PVTZ
    Blend: AUG-CC-PVTZ
  Basis Set: (AUG-CC-PVTZ AUX)
    Blend: AUG-CC-PVTZ-JKFIT
	 Reference Energy          =    -759.3124370038406141 [Eh]
	 Singles Energy            =      -0.0000000000000000 [Eh]
	 Same-Spin Energy          =      -0.4433759334742415 [Eh]
	 Opposite-Spin Energy      =      -1.3810055578126659 [Eh]
	 Correlation Energy        =      -1.8243814912869074 [Eh]
	 Total Energy              =    -761.1368184951274998 [Eh]

	 ================> DF-SCS-MP2 Energies <==================
	-----------------------------------------------------------
	 SCS Same-Spin Scale       =       0.3333333333333333 [-]
	 SCS Opposite-Spin Scale   =       1.2000000000000000 [-]
	 SCS Same-Spin Energy      =      -0.1477919778247472 [Eh]
	 SCS Opposite-Spin Energy  =      -1.6572066693751990 [Eh]
	 SCS Correlation Energy    =      -1.8049986471999462 [Eh]
	 SCS Total Energy          =    -761.1174356510405232 [Eh]
	-----------------------------------------------------------

  Dipole Moment: [D]
     X:    -0.4688      Y:     0.6928      Z:     3.8437     Total:     3.9337

*** Psi4 exiting successfully. Buy a developer a beer!
