                               Psi4 1.4a3.dev225

  ==> Input File <==

--------------------------------------------------------------------------
#psi4
#
memory 32 gb

molecule  {
0 1
  P       -0.0574490    -0.0471570     0.4194890
  O       -1.2961560     0.7325110    -0.2482760
  O        0.4722150    -0.8939050    -0.8603530
  O        0.9903180     1.1487510     0.6268930
  O       -0.2993843    -0.8601336     1.6558108
  C       -2.4621590    -0.0544570    -0.5825580
  C        1.4026460    -1.9654260    -0.5785380
  C        1.2646580     2.0469880    -0.4710390
  H       -2.8060190    -0.6071020     0.2936840
  H       -2.2248990    -0.7417540    -1.3968370
  H       -3.2216950     0.6578470    -0.8995060
  H        2.3395400    -1.5606100    -0.1879150
  H        1.5821260    -2.4612230    -1.5311740
  H        0.9711350    -2.6604290     0.1425970
  H        1.5228770     1.4835030    -1.3699410
  H        2.1109000     2.6527310    -0.1513160
  H        0.3951430     2.6772290    -0.6597860
units angstrom
no_reorient  #important for SAPT in psi4, default
symmetry c1  #important for SAPT in psi4, default
}

set PROPERTIES_ORIGIN ["COM"]
properties('MP2/aug-cc-pvtz', properties = ['dipole'])
--------------------------------------------------------------------------

    Molecular point group: c1
  Charge       = 0
  Multiplicity = 1
  Basis Set: AUG-CC-PVTZ
    Blend: AUG-CC-PVTZ
  Basis Set: (AUG-CC-PVTZ AUX)
    Blend: AUG-CC-PVTZ-JKFIT

    Orbital Energies [Eh]
    ---------------------

    Doubly Occupied:

       1A    -80.104496     2A    -20.595474     3A    -20.594759
       4A    -20.593706     5A    -20.509670     6A    -11.296135
       7A    -11.295917     8A    -11.294431     9A     -7.619447
      10A     -5.517977    11A     -5.517714    12A     -5.516183
      13A     -1.446170    14A     -1.378926    15A     -1.378334
      16A     -1.281351    17A     -0.979512    18A     -0.953999
      19A     -0.948223    20A     -0.786584    21A     -0.714029
      22A     -0.711191    23A     -0.674032    24A     -0.662817
      25A     -0.650158    26A     -0.631268    27A     -0.617949
      28A     -0.615100    29A     -0.579993    30A     -0.539688
      31A     -0.527768    32A     -0.515980    33A     -0.497337
      34A     -0.492817    35A     -0.483706    36A     -0.460335
      37A     -0.455647

  @DF-RHF Final Energy:  -759.31285250479368

   => Energetics <=

    Nuclear Repulsion Energy =            547.2797697634026690
    One-Electron Energy =               -2134.3075916330030850
    Two-Electron Energy =                 827.7149693648066204
    Total Energy =                       -759.3128525047936819
  Basis Set: (AUG-CC-PVTZ AUX)
    Blend: AUG-CC-PVTZ-RI
    Molecular point group: c1

    Geometry (in Angstrom), charge = 0, multiplicity = 1:

       Center              X                  Y                   Z               Mass
    ------------   -----------------  -----------------  -----------------  -----------------
         P           -0.051944449940    -0.049552086412     0.373914684488    30.973761998420
         O           -1.290651449940     0.730115913588    -0.293850315512    15.994914619570
         O            0.477719550060    -0.896300086412    -0.905927315512    15.994914619570
         O            0.995822550060     1.146355913588     0.581318684488    15.994914619570
         O           -0.293879749940    -0.862528686412     1.610236484488    15.994914619570
         C           -2.456654449940    -0.056852086412    -0.628132315512    12.000000000000
         C            1.408150550060    -1.967821086412    -0.624112315512    12.000000000000
         C            1.270162550060     2.044592913588    -0.516613315512    12.000000000000
         H           -2.800514449940    -0.609497086412     0.248109684488     1.007825032230
         H           -2.219394449940    -0.744149086412    -1.442411315512     1.007825032230
         H           -3.216190449940     0.655451913588    -0.945080315512     1.007825032230
         H            2.345044550060    -1.563005086412    -0.233489315512     1.007825032230
         H            1.587630550060    -2.463618086412    -1.576748315512     1.007825032230
         H            0.976639550060    -2.662824086412     0.097022684488     1.007825032230
         H            1.528381550060     1.481107913588    -1.415515315512     1.007825032230
         H            2.116404550060     2.650335913588    -0.196890315512     1.007825032230
         H            0.400647550060     2.674833913588    -0.705360315512     1.007825032230

  Basis Set: AUG-CC-PVTZ
    Blend: AUG-CC-PVTZ
  Basis Set: (AUG-CC-PVTZ AUX)
    Blend: AUG-CC-PVTZ-JKFIT
	 Reference Energy          =    -759.3128525047936819 [Eh]
	 Singles Energy            =      -0.0000000000000000 [Eh]
	 Same-Spin Energy          =      -0.4443280437199712 [Eh]
	 Opposite-Spin Energy      =      -1.3839468566160367 [Eh]
	 Correlation Energy        =      -1.8282749003360079 [Eh]
	 Total Energy              =    -761.1411274051297369 [Eh]

	 ================> DF-SCS-MP2 Energies <==================
	-----------------------------------------------------------
	 SCS Same-Spin Scale       =       0.3333333333333333 [-]
	 SCS Opposite-Spin Scale   =       1.2000000000000000 [-]
	 SCS Same-Spin Energy      =      -0.1481093479066571 [Eh]
	 SCS Opposite-Spin Energy  =      -1.6607362279392439 [Eh]
	 SCS Correlation Energy    =      -1.8088455758459010 [Eh]
	 SCS Total Energy          =    -761.1216980806395895 [Eh]
	-----------------------------------------------------------

  Dipole Moment: [D]
     X:     0.4107      Y:     0.4796      Z:    -3.7989     Total:     3.8510

*** Psi4 exiting successfully. Buy a developer a beer!
