                               Psi4 1.3.2 release

  ==> Input File <==

--------------------------------------------------------------------------
#psi4
#
memory 32 gb

molecule  {
0 1
  P        0.0877380    -0.0630770    -0.3573080
  O        1.2658980     0.7202100     0.4017270
  O       -0.5624677    -0.8796881     0.8502177
  O       -0.9626110     1.1157580    -0.6302230
  O        0.4465310    -0.8472510    -1.5565760
  C        2.4637000    -0.0342890     0.6951100
  C       -1.5478570    -1.8846230     0.5157310
  C       -1.3164940     2.0084280     0.4478740
  H        2.9076370    -0.4029020    -0.2303870
  H        2.2294240    -0.8677130     1.3606750
  H        3.1371140     0.6611440     1.1918470
  H       -2.3712390    -1.3581612     0.0253509
  H       -1.8772340    -2.3283310     1.4531950
  H       -1.1270350    -2.6465320    -0.1425260
  H       -1.6199920     1.4414800     1.3301320
  H       -2.1494040     2.6019710     0.0764460
  H       -0.4694080     2.6502780     0.6903180
units angstrom
no_reorient  #important for SAPT in psi4, default
symmetry c1  #important for SAPT in psi4, default
}

set PROPERTIES_ORIGIN ["COM"]
properties('MP2/aug-cc-pvtz', properties = ['dipole'])
--------------------------------------------------------------------------

    Molecular point group: c1
  Charge       = 0
  Multiplicity = 1
  Basis Set: AUG-CC-PVTZ
    Blend: AUG-CC-PVTZ
  Basis Set: (AUG-CC-PVTZ AUX)
    Blend: AUG-CC-PVTZ-JKFIT

    Orbital Energies [Eh]
    ---------------------

    Doubly Occupied:

       1A    -80.096701     2A    -20.592586     3A    -20.592130
       4A    -20.588696     5A    -20.507782     6A    -11.297497
       7A    -11.294864     8A    -11.293664     9A     -7.613221
      10A     -5.511650    11A     -5.511439    12A     -5.510146
      13A     -1.449393    14A     -1.380989    15A     -1.376270
      16A     -1.289736    17A     -0.980535    18A     -0.953816
      19A     -0.948081    20A     -0.784784    21A     -0.715604
      22A     -0.711707    23A     -0.673673    24A     -0.664683
      25A     -0.649162    26A     -0.630345    27A     -0.620701
      28A     -0.613132    29A     -0.582607    30A     -0.540469
      31A     -0.528138    32A     -0.516261    33A     -0.497979
      34A     -0.492575    35A     -0.481477    36A     -0.463782
      37A     -0.457953

  @DF-RHF Final Energy:  -759.31661705900888

   => Energetics <=

    Nuclear Repulsion Energy =            550.1278135398204086
    One-Electron Energy =               -2140.0603921663660003
    Two-Electron Energy =                 830.6159615675367149
    Total Energy =                       -759.3166170590088768
  Basis Set: (AUG-CC-PVTZ AUX)
    Blend: AUG-CC-PVTZ-RI
    Molecular point group: c1

    Geometry (in Angstrom), charge = 0, multiplicity = 1:

       Center              X                  Y                   Z               Mass
    ------------   -----------------  -----------------  -----------------  -----------------
         P            0.090910371321    -0.067459504666    -0.355055360088    30.973761998420
         O            1.269070371321     0.715827495334     0.403979639912    15.994914619570
         O           -0.559295328679    -0.884070604666     0.852470339912    15.994914619570
         O           -0.959438628679     1.111375495334    -0.627970360088    15.994914619570
         O            0.449703371321    -0.851633504666    -1.554323360088    15.994914619570
         C            2.466872371321    -0.038671504666     0.697362639912    12.000000000000
         C           -1.544684628679    -1.889005504666     0.517983639912    12.000000000000
         C           -1.313321628679     2.004045495334     0.450126639912    12.000000000000
         H            2.910809371321    -0.407284504666    -0.228134360088     1.007825032230
         H            2.232596371321    -0.872095504666     1.362927639912     1.007825032230
         H            3.140286371321     0.656761495334     1.194099639912     1.007825032230
         H           -2.368066628679    -1.362543704666     0.027603539912     1.007825032230
         H           -1.874061628679    -2.332713504666     1.455447639912     1.007825032230
         H           -1.123862628679    -2.650914504666    -0.140273360088     1.007825032230
         H           -1.616819628679     1.437097495334     1.332384639912     1.007825032230
         H           -2.146231628679     2.597588495334     0.078698639912     1.007825032230
         H           -0.466235628679     2.645895495334     0.692570639912     1.007825032230

  Basis Set: AUG-CC-PVTZ
    Blend: AUG-CC-PVTZ
  Basis Set: (AUG-CC-PVTZ AUX)
    Blend: AUG-CC-PVTZ-JKFIT
	 Reference Energy          =    -759.3166170590088768 [Eh]
	 Singles Energy            =      -0.0000000000000000 [Eh]
	 Same-Spin Energy          =      -0.4434444573541642 [Eh]
	 Opposite-Spin Energy      =      -1.3815813875962926 [Eh]
	 Correlation Energy        =      -1.8250258449504568 [Eh]
	 Total Energy              =    -761.1416429039593368 [Eh]

	 ================> DF-SCS-MP2 Energies <==================
	-----------------------------------------------------------
	 SCS Same-Spin Scale       =       0.3333333333333333 [-]
	 SCS Opposite-Spin Scale   =       1.2000000000000000 [-]
	 SCS Same-Spin Energy      =      -0.1478148191180547 [Eh]
	 SCS Opposite-Spin Energy  =      -1.6578976651155510 [Eh]
	 SCS Correlation Energy    =      -1.8057124842336059 [Eh]
	 SCS Total Energy          =    -761.1223295432424720 [Eh]
	-----------------------------------------------------------

  Dipole Moment: [D]
     X:    -0.7593      Y:     0.3851      Z:     3.6207     Total:     3.7195

*** Psi4 exiting successfully. Buy a developer a beer!
