                               Psi4 1.4a3.dev225

  ==> Input File <==

--------------------------------------------------------------------------
#psi4
#
memory 32 gb

molecule  {
0 1
  P       -0.0574490    -0.0471570     0.4194890
  O       -1.2576578     0.7082794    -0.2275223
  O        0.4722150    -0.8939050    -0.8603530
  O        0.9903180     1.1487510     0.6268930
  O       -0.2961570    -0.8492890     1.6393190
  C       -2.4621590    -0.0544570    -0.5825580
  C        1.4026460    -1.9654260    -0.5785380
  C        1.2646580     2.0469880    -0.4710390
  H       -2.8060190    -0.6071020     0.2936840
  H       -2.2248990    -0.7417540    -1.3968370
  H       -3.2216950     0.6578470    -0.8995060
  H        2.3395400    -1.5606100    -0.1879150
  H        1.5821260    -2.4612230    -1.5311740
  H        0.9711350    -2.6604290     0.1425970
  H        1.5228770     1.4835030    -1.3699410
  H        2.1109000     2.6527310    -0.1513160
  H        0.3951430     2.6772290    -0.6597860
units angstrom
no_reorient  #important for SAPT in psi4, default
symmetry c1  #important for SAPT in psi4, default
}

set PROPERTIES_ORIGIN ["COM"]
properties('MP2/aug-cc-pvtz', properties = ['dipole'])
--------------------------------------------------------------------------

    Molecular point group: c1
  Charge       = 0
  Multiplicity = 1
  Basis Set: AUG-CC-PVTZ
    Blend: AUG-CC-PVTZ
  Basis Set: (AUG-CC-PVTZ AUX)
    Blend: AUG-CC-PVTZ-JKFIT

    Orbital Energies [Eh]
    ---------------------

    Doubly Occupied:

       1A    -80.093445     2A    -20.594807     3A    -20.589661
       4A    -20.588336     5A    -20.504102     6A    -11.303499
       7A    -11.293401     8A    -11.291543     9A     -7.610346
      10A     -5.508940    11A     -5.508465    12A     -5.507221
      13A     -1.450444    14A     -1.378765    15A     -1.374544
      16A     -1.285587    17A     -0.982106    18A     -0.952545
      19A     -0.949015    20A     -0.783943    21A     -0.714298
      22A     -0.711096    23A     -0.674660    24A     -0.661401
      25A     -0.648982    26A     -0.628577    27A     -0.616704
      28A     -0.615361    29A     -0.580331    30A     -0.539377
      31A     -0.528254    32A     -0.518142    33A     -0.500251
      34A     -0.492729    35A     -0.480580    36A     -0.460675
      37A     -0.455592

  @DF-RHF Final Energy:  -759.31617799443075

   => Energetics <=

    Nuclear Repulsion Energy =            549.9669010538400471
    One-Electron Energy =               -2139.8107045405449753
    Two-Electron Energy =                 830.5276254922741828
    Total Energy =                       -759.3161779944307455
  Basis Set: (AUG-CC-PVTZ AUX)
    Blend: AUG-CC-PVTZ-RI
    Molecular point group: c1

    Geometry (in Angstrom), charge = 0, multiplicity = 1:

       Center              X                  Y                   Z               Mass
    ------------   -----------------  -----------------  -----------------  -----------------
         P           -0.056710751039    -0.048022890290     0.373427847933    30.973761998420
         O           -1.256919551039     0.707413509710    -0.273583452067    15.994914619570
         O            0.472953248961    -0.894770890290    -0.906414152067    15.994914619570
         O            0.991056248961     1.147885109710     0.580831847933    15.994914619570
         O           -0.295418751039    -0.850154890290     1.593257847933    15.994914619570
         C           -2.461420751039    -0.055322890290    -0.628619152067    12.000000000000
         C            1.403384248961    -1.966291890290    -0.624599152067    12.000000000000
         C            1.265396248961     2.046122109710    -0.517100152067    12.000000000000
         H           -2.805280751039    -0.607967890290     0.247622847933     1.007825032230
         H           -2.224160751039    -0.742619890290    -1.442898152067     1.007825032230
         H           -3.220956751039     0.656981109710    -0.945567152067     1.007825032230
         H            2.340278248961    -1.561475890290    -0.233976152067     1.007825032230
         H            1.582864248961    -2.462088890290    -1.577235152067     1.007825032230
         H            0.971873248961    -2.661294890290     0.096535847933     1.007825032230
         H            1.523615248961     1.482637109710    -1.416002152067     1.007825032230
         H            2.111638248961     2.651865109710    -0.197377152067     1.007825032230
         H            0.395881248961     2.676363109710    -0.705847152067     1.007825032230

  Basis Set: AUG-CC-PVTZ
    Blend: AUG-CC-PVTZ
  Basis Set: (AUG-CC-PVTZ AUX)
    Blend: AUG-CC-PVTZ-JKFIT
	 Reference Energy          =    -759.3161779944307455 [Eh]
	 Singles Energy            =      -0.0000000000000000 [Eh]
	 Same-Spin Energy          =      -0.4433405299576773 [Eh]
	 Opposite-Spin Energy      =      -1.3814979510433072 [Eh]
	 Correlation Energy        =      -1.8248384810009846 [Eh]
	 Total Energy              =    -761.1410164754316838 [Eh]

	 ================> DF-SCS-MP2 Energies <==================
	-----------------------------------------------------------
	 SCS Same-Spin Scale       =       0.3333333333333333 [-]
	 SCS Opposite-Spin Scale   =       1.2000000000000000 [-]
	 SCS Same-Spin Energy      =      -0.1477801766525591 [Eh]
	 SCS Opposite-Spin Energy  =      -1.6577975412519685 [Eh]
	 SCS Correlation Energy    =      -1.8055777179045276 [Eh]
	 SCS Total Energy          =    -761.1217557123352435 [Eh]
	-----------------------------------------------------------

  Dipole Moment: [D]
     X:     0.0430      Y:     0.5067      Z:    -3.8502     Total:     3.8836

*** Psi4 exiting successfully. Buy a developer a beer!
