                               Psi4 1.3.2 release

  ==> Input File <==

--------------------------------------------------------------------------
#psi4
#
memory 32 gb

molecule  {
0 1
  P        0.0877380    -0.0630770    -0.3573080
  O        1.2622695     0.7139274     0.4137131
  O       -0.5239856    -0.9102780     0.8788868
  O       -0.9626110     1.1157580    -0.6302230
  O        0.4465310    -0.8472510    -1.5565760
  C        2.4637000    -0.0342890     0.6951100
  C       -1.5478570    -1.8846230     0.5157310
  C       -1.3164940     2.0084280     0.4478740
  H        2.9076370    -0.4029020    -0.2303870
  H        2.2294240    -0.8677130     1.3606750
  H        3.1371140     0.6611440     1.1918470
  H       -2.3893800    -1.3915170     0.0214860
  H       -1.8772340    -2.3283310     1.4531950
  H       -1.1270350    -2.6465320    -0.1425260
  H       -1.6199920     1.4414800     1.3301320
  H       -2.1494040     2.6019710     0.0764460
  H       -0.4694080     2.6502780     0.6903180
units angstrom
no_reorient  #important for SAPT in psi4, default
symmetry c1  #important for SAPT in psi4, default
}

set PROPERTIES_ORIGIN ["COM"]
properties('MP2/aug-cc-pvtz', properties = ['dipole'])
--------------------------------------------------------------------------

    Molecular point group: c1
  Charge       = 0
  Multiplicity = 1
  Basis Set: AUG-CC-PVTZ
    Blend: AUG-CC-PVTZ
  Basis Set: (AUG-CC-PVTZ AUX)
    Blend: AUG-CC-PVTZ-JKFIT

    Orbital Energies [Eh]
    ---------------------

    Doubly Occupied:

       1A    -80.098945     2A    -20.593220     3A    -20.592937
       4A    -20.591746     5A    -20.509131     6A    -11.296534
       7A    -11.295464     8A    -11.293789     9A     -7.615092
      10A     -5.513548    11A     -5.513249    12A     -5.511991
      13A     -1.446579    14A     -1.378669    15A     -1.375074
      16A     -1.290690    17A     -0.978539    18A     -0.954621
      19A     -0.946522    20A     -0.785391    21A     -0.713873
      22A     -0.710533    23A     -0.672365    24A     -0.662461
      25A     -0.649240    26A     -0.629613    27A     -0.614878
      28A     -0.613902    29A     -0.583251    30A     -0.541567
      31A     -0.528994    32A     -0.516096    33A     -0.498135
      34A     -0.491233    35A     -0.484457    36A     -0.464703
      37A     -0.458411

  @DF-RHF Final Energy:  -759.31534779887670

   => Energetics <=

    Nuclear Repulsion Energy =            549.0073846327037472
    One-Electron Energy =               -2137.8145824502821597
    Two-Electron Energy =                 829.4918500187018253
    Total Energy =                       -759.3153477988767008
  Basis Set: (AUG-CC-PVTZ AUX)
    Blend: AUG-CC-PVTZ-RI
    Molecular point group: c1

    Geometry (in Angstrom), charge = 0, multiplicity = 1:

       Center              X                  Y                   Z               Mass
    ------------   -----------------  -----------------  -----------------  -----------------
         P            0.087059617192    -0.063007482255    -0.359671583177    30.973761998420
         O            1.261591117192     0.713996917745     0.411349516823    15.994914619570
         O           -0.524663982808    -0.910208482255     0.876523216823    15.994914619570
         O           -0.963289382808     1.115827517745    -0.632586583177    15.994914619570
         O            0.445852617192    -0.847181482255    -1.558939583177    15.994914619570
         C            2.463021617192    -0.034219482255     0.692746416823    12.000000000000
         C           -1.548535382808    -1.884553482255     0.513367416823    12.000000000000
         C           -1.317172382808     2.008497517745     0.445510416823    12.000000000000
         H            2.906958617192    -0.402832482255    -0.232750583177     1.007825032230
         H            2.228745617192    -0.867643482255     1.358311416823     1.007825032230
         H            3.136435617192     0.661213517745     1.189483416823     1.007825032230
         H           -2.390058382808    -1.391447482255     0.019122416823     1.007825032230
         H           -1.877912382808    -2.328261482255     1.450831416823     1.007825032230
         H           -1.127713382808    -2.646462482255    -0.144889583177     1.007825032230
         H           -1.620670382808     1.441549517745     1.327768416823     1.007825032230
         H           -2.150082382808     2.602040517745     0.074082416823     1.007825032230
         H           -0.470086382808     2.650347517745     0.687954416823     1.007825032230

  Basis Set: AUG-CC-PVTZ
    Blend: AUG-CC-PVTZ
  Basis Set: (AUG-CC-PVTZ AUX)
    Blend: AUG-CC-PVTZ-JKFIT
	 Reference Energy          =    -759.3153477988767008 [Eh]
	 Singles Energy            =      -0.0000000000000000 [Eh]
	 Same-Spin Energy          =      -0.4438110159094977 [Eh]
	 Opposite-Spin Energy      =      -1.3827295332535465 [Eh]
	 Correlation Energy        =      -1.8265405491630442 [Eh]
	 Total Energy              =    -761.1418883480397426 [Eh]

	 ================> DF-SCS-MP2 Energies <==================
	-----------------------------------------------------------
	 SCS Same-Spin Scale       =       0.3333333333333333 [-]
	 SCS Opposite-Spin Scale   =       1.2000000000000000 [-]
	 SCS Same-Spin Energy      =      -0.1479370053031659 [Eh]
	 SCS Opposite-Spin Energy  =      -1.6592754399042557 [Eh]
	 SCS Correlation Energy    =      -1.8072124452074216 [Eh]
	 SCS Total Energy          =    -761.1225602440840703 [Eh]
	-----------------------------------------------------------

  Dipole Moment: [D]
     X:    -0.8381      Y:     0.5258      Z:     3.4944     Total:     3.6318

*** Psi4 exiting successfully. Buy a developer a beer!
