                               Psi4 1.3.2 release

  ==> Input File <==

--------------------------------------------------------------------------
#psi4
#
memory 32 gb

molecule  {
0 1
  P        0.0877380    -0.0630770    -0.3573080
  O        1.3021218     0.7004831     0.3637895
  O       -0.5335540    -0.9159530     0.8701820
  O       -0.9626110     1.1157580    -0.6302230
  O        0.4956008    -0.8327302    -1.5502820
  C        2.4637000    -0.0342890     0.6951100
  C       -1.5478570    -1.8846230     0.5157310
  C       -1.3164940     2.0084280     0.4478740
  H        2.9076370    -0.4029020    -0.2303870
  H        2.2294240    -0.8677130     1.3606750
  H        3.1371140     0.6611440     1.1918470
  H       -2.3893800    -1.3915170     0.0214860
  H       -1.8772340    -2.3283310     1.4531950
  H       -1.1270350    -2.6465320    -0.1425260
  H       -1.6199920     1.4414800     1.3301320
  H       -2.1494040     2.6019710     0.0764460
  H       -0.4694080     2.6502780     0.6903180
units angstrom
no_reorient  #important for SAPT in psi4, default
symmetry c1  #important for SAPT in psi4, default
}

set PROPERTIES_ORIGIN ["COM"]
properties('MP2/aug-cc-pvtz', properties = ['dipole'])
--------------------------------------------------------------------------

    Molecular point group: c1
  Charge       = 0
  Multiplicity = 1
  Basis Set: AUG-CC-PVTZ
    Blend: AUG-CC-PVTZ
  Basis Set: (AUG-CC-PVTZ AUX)
    Blend: AUG-CC-PVTZ-JKFIT

    Orbital Energies [Eh]
    ---------------------

    Doubly Occupied:

       1A    -80.100824     2A    -20.596763     3A    -20.596662
       4A    -20.588793     5A    -20.506135     6A    -11.298213
       7A    -11.297947     8A    -11.288539     9A     -7.616807
      10A     -5.515230    11A     -5.514995    12A     -5.513699
      13A     -1.449837    14A     -1.384785    15A     -1.381325
      16A     -1.288857    17A     -0.980937    18A     -0.956912
      19A     -0.946440    20A     -0.787244    21A     -0.717585
      22A     -0.713577    23A     -0.675155    24A     -0.666681
      25A     -0.650844    26A     -0.633324    27A     -0.621791
      28A     -0.618870    29A     -0.582005    30A     -0.542688
      31A     -0.526916    32A     -0.514098    33A     -0.498647
      34A     -0.491257    35A     -0.484779    36A     -0.462013
      37A     -0.454939

  @DF-RHF Final Energy:  -759.31594262156591

   => Energetics <=

    Nuclear Repulsion Energy =            549.2381657176097178
    One-Electron Energy =               -2138.1759935355348716
    Two-Electron Energy =                 829.6218851963592442
    Total Energy =                       -759.3159426215659096
  Basis Set: (AUG-CC-PVTZ AUX)
    Blend: AUG-CC-PVTZ-RI
    Molecular point group: c1

    Geometry (in Angstrom), charge = 0, multiplicity = 1:

       Center              X                  Y                   Z               Mass
    ------------   -----------------  -----------------  -----------------  -----------------
         P            0.077995049301    -0.062482195904    -0.353693428135    30.973761998420
         O            1.292378849301     0.701077904096     0.367404071865    15.994914619570
         O           -0.543296950699    -0.915358195904     0.873796571865    15.994914619570
         O           -0.972353950699     1.116352804096    -0.626608428135    15.994914619570
         O            0.485857849301    -0.832135395904    -1.546667428135    15.994914619570
         C            2.453957049301    -0.033694195904     0.698724571865    12.000000000000
         C           -1.557599950699    -1.884028195904     0.519345571865    12.000000000000
         C           -1.326236950699     2.009022804096     0.451488571865    12.000000000000
         H            2.897894049301    -0.402307195904    -0.226772428135     1.007825032230
         H            2.219681049301    -0.867118195904     1.364289571865     1.007825032230
         H            3.127371049301     0.661738804096     1.195461571865     1.007825032230
         H           -2.399122950699    -1.390922195904     0.025100571865     1.007825032230
         H           -1.886976950699    -2.327736195904     1.456809571865     1.007825032230
         H           -1.136777950699    -2.645937195904    -0.138911428135     1.007825032230
         H           -1.629734950699     1.442074804096     1.333746571865     1.007825032230
         H           -2.159146950699     2.602565804096     0.080060571865     1.007825032230
         H           -0.479150950699     2.650872804096     0.693932571865     1.007825032230

  Basis Set: AUG-CC-PVTZ
    Blend: AUG-CC-PVTZ
  Basis Set: (AUG-CC-PVTZ AUX)
    Blend: AUG-CC-PVTZ-JKFIT
	 Reference Energy          =    -759.3159426215659096 [Eh]
	 Singles Energy            =      -0.0000000000000000 [Eh]
	 Same-Spin Energy          =      -0.4434371266758378 [Eh]
	 Opposite-Spin Energy      =      -1.3814369224101859 [Eh]
	 Correlation Energy        =      -1.8248740490860238 [Eh]
	 Total Energy              =    -761.1408166706519296 [Eh]

	 ================> DF-SCS-MP2 Energies <==================
	-----------------------------------------------------------
	 SCS Same-Spin Scale       =       0.3333333333333333 [-]
	 SCS Opposite-Spin Scale   =       1.2000000000000000 [-]
	 SCS Same-Spin Energy      =      -0.1478123755586126 [Eh]
	 SCS Opposite-Spin Energy  =      -1.6577243068922229 [Eh]
	 SCS Correlation Energy    =      -1.8055366824508354 [Eh]
	 SCS Total Energy          =    -761.1214793040167024 [Eh]
	-----------------------------------------------------------

  Dipole Moment: [D]
     X:    -1.1561      Y:     0.5832      Z:     3.5944     Total:     3.8206

*** Psi4 exiting successfully. Buy a developer a beer!
