                               Psi4 1.4a3.dev225

  ==> Input File <==

--------------------------------------------------------------------------
#psi4
#
memory 32 gb

molecule  {
0 1
  P       -0.0574490    -0.0471570     0.4194890
  O       -1.2961560     0.7325110    -0.2482760
  O        0.4722150    -0.8939050    -0.8603530
  O        0.9903180     1.1487510     0.6268930
  O       -0.2961570    -0.8492890     1.6393190
  C       -2.4621590    -0.0544570    -0.5825580
  C        1.4155078    -1.9802381    -0.5746423
  C        1.2646580     2.0469880    -0.4710390
  H       -2.8060190    -0.6071020     0.2936840
  H       -2.2248990    -0.7417540    -1.3968370
  H       -3.2216950     0.6578470    -0.8995060
  H        2.3395400    -1.5606100    -0.1879150
  H        1.5821260    -2.4612230    -1.5311740
  H        0.9711350    -2.6604290     0.1425970
  H        1.5228770     1.4835030    -1.3699410
  H        2.1109000     2.6527310    -0.1513160
  H        0.3951430     2.6772290    -0.6597860
units angstrom
no_reorient  #important for SAPT in psi4, default
symmetry c1  #important for SAPT in psi4, default
}

set PROPERTIES_ORIGIN ["COM"]
properties('MP2/aug-cc-pvtz', properties = ['dipole'])
--------------------------------------------------------------------------

    Molecular point group: c1
  Charge       = 0
  Multiplicity = 1
  Basis Set: AUG-CC-PVTZ
    Blend: AUG-CC-PVTZ
  Basis Set: (AUG-CC-PVTZ AUX)
    Blend: AUG-CC-PVTZ-JKFIT

    Orbital Energies [Eh]
    ---------------------

    Doubly Occupied:

       1A    -80.099653     2A    -20.593319     3A    -20.591707
       4A    -20.591528     5A    -20.508316     6A    -11.295074
       7A    -11.294633     8A    -11.294604     9A     -7.615409
      10A     -5.513862    11A     -5.513567    12A     -5.512338
      13A     -1.443764    14A     -1.376967    15A     -1.372188
      16A     -1.288892    17A     -0.978292    18A     -0.953483
      19A     -0.948231    20A     -0.783914    21A     -0.712544
      22A     -0.708598    23A     -0.671550    24A     -0.661437
      25A     -0.648775    26A     -0.630851    27A     -0.613850
      28A     -0.613304    29A     -0.582769    30A     -0.541562
      31A     -0.527337    32A     -0.516426    33A     -0.497568
      34A     -0.492949    35A     -0.483050    36A     -0.463554
      37A     -0.457848

  @DF-RHF Final Energy:  -759.31476624835227

   => Energetics <=

    Nuclear Repulsion Energy =            547.7672996396886447
    One-Electron Energy =               -2135.3767098360804084
    Two-Electron Energy =                 828.2946439480394929
    Total Energy =                       -759.3147662483522708
  Basis Set: (AUG-CC-PVTZ AUX)
    Blend: AUG-CC-PVTZ-RI
    Molecular point group: c1

    Geometry (in Angstrom), charge = 0, multiplicity = 1:

       Center              X                  Y                   Z               Mass
    ------------   -----------------  -----------------  -----------------  -----------------
         P           -0.053415356462    -0.049521471992     0.375464681431    30.973761998420
         O           -1.292122356462     0.730146528008    -0.292300318569    15.994914619570
         O            0.476248643538    -0.896269471992    -0.904377318569    15.994914619570
         O            0.994351643538     1.146386528008     0.582868681431    15.994914619570
         O           -0.292123356462    -0.851653471992     1.595294681431    15.994914619570
         C           -2.458125356462    -0.056821471992    -0.626582318569    12.000000000000
         C            1.419541443538    -1.982602571992    -0.618666618569    12.000000000000
         C            1.268691643538     2.044623528008    -0.515063318569    12.000000000000
         H           -2.801985356462    -0.609466471992     0.249659681431     1.007825032230
         H           -2.220865356462    -0.744118471992    -1.440861318569     1.007825032230
         H           -3.217661356462     0.655482528008    -0.943530318569     1.007825032230
         H            2.343573643538    -1.562974471992    -0.231939318569     1.007825032230
         H            1.586159643538    -2.463587471992    -1.575198318569     1.007825032230
         H            0.975168643538    -2.662793471992     0.098572681431     1.007825032230
         H            1.526910643538     1.481138528008    -1.413965318569     1.007825032230
         H            2.114933643538     2.650366528008    -0.195340318569     1.007825032230
         H            0.399176643538     2.674864528008    -0.703810318569     1.007825032230

  Basis Set: AUG-CC-PVTZ
    Blend: AUG-CC-PVTZ
  Basis Set: (AUG-CC-PVTZ AUX)
    Blend: AUG-CC-PVTZ-JKFIT
	 Reference Energy          =    -759.3147662483522708 [Eh]
	 Singles Energy            =      -0.0000000000000000 [Eh]
	 Same-Spin Energy          =      -0.4438468334609697 [Eh]
	 Opposite-Spin Energy      =      -1.3830201264329882 [Eh]
	 Correlation Energy        =      -1.8268669598939580 [Eh]
	 Total Energy              =    -761.1416332082462759 [Eh]

	 ================> DF-SCS-MP2 Energies <==================
	-----------------------------------------------------------
	 SCS Same-Spin Scale       =       0.3333333333333333 [-]
	 SCS Opposite-Spin Scale   =       1.2000000000000000 [-]
	 SCS Same-Spin Energy      =      -0.1479489444869899 [Eh]
	 SCS Opposite-Spin Energy  =      -1.6596241517195858 [Eh]
	 SCS Correlation Energy    =      -1.8075730962065757 [Eh]
	 SCS Total Energy          =    -761.1223393445588954 [Eh]
	-----------------------------------------------------------

  Dipole Moment: [D]
     X:     0.4531      Y:     0.3624      Z:    -3.7231     Total:     3.7681

*** Psi4 exiting successfully. Buy a developer a beer!
