                               Psi4 1.3.2 release

  ==> Input File <==

--------------------------------------------------------------------------
#psi4
#
memory 32 gb

molecule  {
0 1
  P        0.0877380    -0.0630770    -0.3573080
  O        1.2427911     0.6816364     0.4727449
  O       -0.4754597    -0.8809439     0.9209858
  O       -0.9626110     1.1157580    -0.6302230
  O        0.4465310    -0.8472510    -1.5565760
  C        2.4637000    -0.0342890     0.6951100
  C       -1.5478570    -1.8846230     0.5157310
  C       -1.3164940     2.0084280     0.4478740
  H        2.9076370    -0.4029020    -0.2303870
  H        2.2294240    -0.8677130     1.3606750
  H        3.1371140     0.6611440     1.1918470
  H       -2.3893800    -1.3915170     0.0214860
  H       -1.8772340    -2.3283310     1.4531950
  H       -1.1270350    -2.6465320    -0.1425260
  H       -1.6199920     1.4414800     1.3301320
  H       -2.1494040     2.6019710     0.0764460
  H       -0.4694080     2.6502780     0.6903180
units angstrom
no_reorient  #important for SAPT in psi4, default
symmetry c1  #important for SAPT in psi4, default
}

set PROPERTIES_ORIGIN ["COM"]
properties('MP2/aug-cc-pvtz', properties = ['dipole'])
--------------------------------------------------------------------------

    Molecular point group: c1
  Charge       = 0
  Multiplicity = 1
  Basis Set: AUG-CC-PVTZ
    Blend: AUG-CC-PVTZ
  Basis Set: (AUG-CC-PVTZ AUX)
    Blend: AUG-CC-PVTZ-JKFIT

    Orbital Energies [Eh]
    ---------------------

    Doubly Occupied:

       1A    -80.097319     2A    -20.594268     3A    -20.592640
       4A    -20.584840     5A    -20.512552     6A    -11.302480
       7A    -11.295193     8A    -11.289454     9A     -7.613610
      10A     -5.512150    11A     -5.511724    12A     -5.510465
      13A     -1.444051    14A     -1.379180    15A     -1.359533
      16A     -1.292676    17A     -0.976315    18A     -0.955460
      19A     -0.943862    20A     -0.782879    21A     -0.712557
      22A     -0.704216    23A     -0.669207    24A     -0.657761
      25A     -0.649001    26A     -0.626027    27A     -0.613591
      28A     -0.597816    29A     -0.584976    30A     -0.545777
      31A     -0.528791    32A     -0.516728    33A     -0.498499
      34A     -0.491182    35A     -0.480229    36A     -0.467365
      37A     -0.460499

  @DF-RHF Final Energy:  -759.30640974921266

   => Energetics <=

    Nuclear Repulsion Energy =            548.8260767773425641
    One-Electron Energy =               -2137.5552274687756835
    Two-Electron Energy =                 829.4227409422203436
    Total Energy =                       -759.3064097492126621
  Basis Set: (AUG-CC-PVTZ AUX)
    Blend: AUG-CC-PVTZ-RI
    Molecular point group: c1

    Geometry (in Angstrom), charge = 0, multiplicity = 1:

       Center              X                  Y                   Z               Mass
    ------------   -----------------  -----------------  -----------------  -----------------
         P            0.083741523192    -0.062669715764    -0.371223747757    30.973761998420
         O            1.238794623192     0.682043684236     0.458829152243    15.994914619570
         O           -0.479456176808    -0.880536615764     0.907070052243    15.994914619570
         O           -0.966607476808     1.116165284236    -0.644138747757    15.994914619570
         O            0.442534523192    -0.846843715764    -1.570491747757    15.994914619570
         C            2.459703523192    -0.033881715764     0.681194252243    12.000000000000
         C           -1.551853476808    -1.884215715764     0.501815252243    12.000000000000
         C           -1.320490476808     2.008835284236     0.433958252243    12.000000000000
         H            2.903640523192    -0.402494715764    -0.244302747757     1.007825032230
         H            2.225427523192    -0.867305715764     1.346759252243     1.007825032230
         H            3.133117523192     0.661551284236     1.177931252243     1.007825032230
         H           -2.393376476808    -1.391109715764     0.007570252243     1.007825032230
         H           -1.881230476808    -2.327923715764     1.439279252243     1.007825032230
         H           -1.131031476808    -2.646124715764    -0.156441747757     1.007825032230
         H           -1.623988476808     1.441887284236     1.316216252243     1.007825032230
         H           -2.153400476808     2.602378284236     0.062530252243     1.007825032230
         H           -0.473404476808     2.650685284236     0.676402252243     1.007825032230

  Basis Set: AUG-CC-PVTZ
    Blend: AUG-CC-PVTZ
  Basis Set: (AUG-CC-PVTZ AUX)
    Blend: AUG-CC-PVTZ-JKFIT
	 Reference Energy          =    -759.3064097492126621 [Eh]
	 Singles Energy            =      -0.0000000000000000 [Eh]
	 Same-Spin Energy          =      -0.4445984144027943 [Eh]
	 Opposite-Spin Energy      =      -1.3849703195474470 [Eh]
	 Correlation Energy        =      -1.8295687339502413 [Eh]
	 Total Energy              =    -761.1359784831629440 [Eh]

	 ================> DF-SCS-MP2 Energies <==================
	-----------------------------------------------------------
	 SCS Same-Spin Scale       =       0.3333333333333333 [-]
	 SCS Opposite-Spin Scale   =       1.2000000000000000 [-]
	 SCS Same-Spin Energy      =      -0.1481994714675981 [Eh]
	 SCS Opposite-Spin Energy  =      -1.6619643834569364 [Eh]
	 SCS Correlation Energy    =      -1.8101638549245345 [Eh]
	 SCS Total Energy          =    -761.1165736041372156 [Eh]
	-----------------------------------------------------------

  Dipole Moment: [D]
     X:    -1.0536      Y:     0.4440      Z:     3.2534     Total:     3.4484

*** Psi4 exiting successfully. Buy a developer a beer!
