                               Psi4 1.3.2 release

  ==> Input File <==

--------------------------------------------------------------------------
#psi4
#
memory 32 gb

molecule  {
0 1
  P        0.0877380    -0.0630770    -0.3573080
  O        1.2658980     0.7202100     0.4017270
  O       -0.5335540    -0.9159530     0.8701820
  O       -0.9626110     1.1157580    -0.6302230
  O        0.4465310    -0.8472510    -1.5565760
  C        2.4637000    -0.0342890     0.6951100
  C       -1.6880858    -2.0185430     0.4667277
  C       -1.3164940     2.0084280     0.4478740
  H        2.9076370    -0.4029020    -0.2303870
  H        2.2294240    -0.8677130     1.3606750
  H        3.1371140     0.6611440     1.1918470
  H       -2.3893800    -1.3915170     0.0214860
  H       -1.8772340    -2.3283310     1.4531950
  H       -1.1270350    -2.6465320    -0.1425260
  H       -1.6199920     1.4414800     1.3301320
  H       -2.1494040     2.6019710     0.0764460
  H       -0.4694080     2.6502780     0.6903180
units angstrom
no_reorient  #important for SAPT in psi4, default
symmetry c1  #important for SAPT in psi4, default
}

set PROPERTIES_ORIGIN ["COM"]
properties('MP2/aug-cc-pvtz', properties = ['dipole'])
--------------------------------------------------------------------------

    Molecular point group: c1
  Charge       = 0
  Multiplicity = 1
  Basis Set: AUG-CC-PVTZ
    Blend: AUG-CC-PVTZ
  Basis Set: (AUG-CC-PVTZ AUX)
    Blend: AUG-CC-PVTZ-JKFIT

    Orbital Energies [Eh]
    ---------------------

    Doubly Occupied:

       1A    -80.087543     2A    -20.585335     3A    -20.584457
       4A    -20.572456     5A    -20.500557     6A    -11.308447
       7A    -11.290517     8A    -11.288749     9A     -7.603559
      10A     -5.502144    11A     -5.501582    12A     -5.500547
      13A     -1.431664    14A     -1.370968    15A     -1.332648
      16A     -1.279939    17A     -0.983823    18A     -0.959184
      19A     -0.945153    20A     -0.772665    21A     -0.705251
      22A     -0.694201    23A     -0.665482    24A     -0.659946
      25A     -0.648079    26A     -0.635772    27A     -0.608854
      28A     -0.603168    29A     -0.570664    30A     -0.544532
      31A     -0.525437    32A     -0.509080    33A     -0.497808
      34A     -0.487405    35A     -0.476430    36A     -0.457361
      37A     -0.447829

  @DF-RHF Final Energy:  -759.28969271204437

   => Energetics <=

    Nuclear Repulsion Energy =            544.7943664199115119
    One-Electron Energy =               -2129.8896422566276669
    Two-Electron Energy =                 825.8055831246717844
    Total Energy =                       -759.2896927120443706
  Basis Set: (AUG-CC-PVTZ AUX)
    Blend: AUG-CC-PVTZ-RI
    Molecular point group: c1

    Geometry (in Angstrom), charge = 0, multiplicity = 1:

       Center              X                  Y                   Z               Mass
    ------------   -----------------  -----------------  -----------------  -----------------
         P            0.099755696089    -0.051599986045    -0.353108495484    30.973761998420
         O            1.277915696089     0.731687013955     0.405926504516    15.994914619570
         O           -0.521536303911    -0.904475986045     0.874381504516    15.994914619570
         O           -0.950593303911     1.127235013955    -0.626023495484    15.994914619570
         O            0.458548696089    -0.835773986045    -1.552376495484    15.994914619570
         C            2.475717696089    -0.022811986045     0.699309504516    12.000000000000
         C           -1.676068103911    -2.007065986045     0.470927204516    12.000000000000
         C           -1.304476303911     2.019905013955     0.452073504516    12.000000000000
         H            2.919654696089    -0.391424986045    -0.226187495484     1.007825032230
         H            2.241441696089    -0.856235986045     1.364874504516     1.007825032230
         H            3.149131696089     0.672621013955     1.196046504516     1.007825032230
         H           -2.377362303911    -1.380039986045     0.025685504516     1.007825032230
         H           -1.865216303911    -2.316853986045     1.457394504516     1.007825032230
         H           -1.115017303911    -2.635054986045    -0.138326495484     1.007825032230
         H           -1.607974303911     1.452957013955     1.334331504516     1.007825032230
         H           -2.137386303911     2.613448013955     0.080645504516     1.007825032230
         H           -0.457390303911     2.661755013955     0.694517504516     1.007825032230

  Basis Set: AUG-CC-PVTZ
    Blend: AUG-CC-PVTZ
  Basis Set: (AUG-CC-PVTZ AUX)
    Blend: AUG-CC-PVTZ-JKFIT
	 Reference Energy          =    -759.2896927120443706 [Eh]
	 Singles Energy            =      -0.0000000000000000 [Eh]
	 Same-Spin Energy          =      -0.4441399896064768 [Eh]
	 Opposite-Spin Energy      =      -1.3851732863095703 [Eh]
	 Correlation Energy        =      -1.8293132759160471 [Eh]
	 Total Energy              =    -761.1190059879604632 [Eh]

	 ================> DF-SCS-MP2 Energies <==================
	-----------------------------------------------------------
	 SCS Same-Spin Scale       =       0.3333333333333333 [-]
	 SCS Opposite-Spin Scale   =       1.2000000000000000 [-]
	 SCS Same-Spin Energy      =      -0.1480466632021589 [Eh]
	 SCS Opposite-Spin Energy  =      -1.6622079435714843 [Eh]
	 SCS Correlation Energy    =      -1.8102546067736431 [Eh]
	 SCS Total Energy          =    -761.0999473188180673 [Eh]
	-----------------------------------------------------------

  Dipole Moment: [D]
     X:    -1.3549      Y:    -0.0394      Z:     3.5489     Total:     3.7990

*** Psi4 exiting successfully. Buy a developer a beer!
