                               Psi4 1.3.2 release

  ==> Input File <==

--------------------------------------------------------------------------
#psi4
#
memory 32 gb

molecule  {
0 1
  P        0.0877380    -0.0630770    -0.3573080
  O        1.2694368     0.7264330     0.3896831
  O       -0.5430750    -0.9215631     0.8613837
  O       -0.9626110     1.1157580    -0.6302230
  O        0.4465310    -0.8472510    -1.5565760
  C        2.4637000    -0.0342890     0.6951100
  C       -1.5478570    -1.8846230     0.5157310
  C       -1.3164940     2.0084280     0.4478740
  H        2.9076370    -0.4029020    -0.2303870
  H        2.2294240    -0.8677130     1.3606750
  H        3.1371140     0.6611440     1.1918470
  H       -2.3893800    -1.3915170     0.0214860
  H       -1.8772340    -2.3283310     1.4531950
  H       -1.1270350    -2.6465320    -0.1425260
  H       -1.6199920     1.4414800     1.3301320
  H       -2.1494040     2.6019710     0.0764460
  H       -0.4694080     2.6502780     0.6903180
units angstrom
no_reorient  #important for SAPT in psi4, default
symmetry c1  #important for SAPT in psi4, default
}

set PROPERTIES_ORIGIN ["COM"]
properties('MP2/aug-cc-pvtz', properties = ['dipole'])
--------------------------------------------------------------------------

    Molecular point group: c1
  Charge       = 0
  Multiplicity = 1
  Basis Set: AUG-CC-PVTZ
    Blend: AUG-CC-PVTZ
  Basis Set: (AUG-CC-PVTZ AUX)
    Blend: AUG-CC-PVTZ-JKFIT

    Orbital Energies [Eh]
    ---------------------

    Doubly Occupied:

       1A    -80.099737     2A    -20.594462     3A    -20.593220
       4A    -20.592410     5A    -20.507768     6A    -11.295682
       7A    -11.295595     8A    -11.293999     9A     -7.615813
      10A     -5.514280    11A     -5.513948    12A     -5.512723
      13A     -1.448002    14A     -1.381274    15A     -1.378378
      16A     -1.289891    17A     -0.979497    18A     -0.954363
      19A     -0.947786    20A     -0.786318    21A     -0.714997
      22A     -0.712596    23A     -0.673827    24A     -0.664502
      25A     -0.649361    26A     -0.631078    27A     -0.620908
      28A     -0.614275    29A     -0.582562    30A     -0.539919
      31A     -0.529627    32A     -0.515970    33A     -0.498187
      34A     -0.491458    35A     -0.484124    36A     -0.463578
      37A     -0.457349

  @DF-RHF Final Energy:  -759.31644123490059

   => Energetics <=

    Nuclear Repulsion Energy =            549.1024651064193449
    One-Electron Energy =               -2137.9588798059103283
    Two-Electron Energy =                 829.5399734645902754
    Total Energy =                       -759.3164412349005943
  Basis Set: (AUG-CC-PVTZ AUX)
    Blend: AUG-CC-PVTZ-RI
    Molecular point group: c1

    Geometry (in Angstrom), charge = 0, multiplicity = 1:

       Center              X                  Y                   Z               Mass
    ------------   -----------------  -----------------  -----------------  -----------------
         P            0.088421477884    -0.063146899889    -0.354927259918    30.973761998420
         O            1.270120277884     0.726363100111     0.392063840082    15.994914619570
         O           -0.542391522116    -0.921632999889     0.863764440082    15.994914619570
         O           -0.961927522116     1.115688100111    -0.627842259918    15.994914619570
         O            0.447214477884    -0.847320899889    -1.554195259918    15.994914619570
         C            2.464383477884    -0.034358899889     0.697490740082    12.000000000000
         C           -1.547173522116    -1.884692899889     0.518111740082    12.000000000000
         C           -1.315810522116     2.008358100111     0.450254740082    12.000000000000
         H            2.908320477884    -0.402971899889    -0.228006259918     1.007825032230
         H            2.230107477884    -0.867782899889     1.363055740082     1.007825032230
         H            3.137797477884     0.661074100111     1.194227740082     1.007825032230
         H           -2.388696522116    -1.391586899889     0.023866740082     1.007825032230
         H           -1.876550522116    -2.328400899889     1.455575740082     1.007825032230
         H           -1.126351522116    -2.646601899889    -0.140145259918     1.007825032230
         H           -1.619308522116     1.441410100111     1.332512740082     1.007825032230
         H           -2.148720522116     2.601901100111     0.078826740082     1.007825032230
         H           -0.468724522116     2.650208100111     0.692698740082     1.007825032230

  Basis Set: AUG-CC-PVTZ
    Blend: AUG-CC-PVTZ
  Basis Set: (AUG-CC-PVTZ AUX)
    Blend: AUG-CC-PVTZ-JKFIT
	 Reference Energy          =    -759.3164412349005943 [Eh]
	 Singles Energy            =      -0.0000000000000000 [Eh]
	 Same-Spin Energy          =      -0.4436084646537443 [Eh]
	 Opposite-Spin Energy      =      -1.3820712049496329 [Eh]
	 Correlation Energy        =      -1.8256796696033772 [Eh]
	 Total Energy              =    -761.1421209045039404 [Eh]

	 ================> DF-SCS-MP2 Energies <==================
	-----------------------------------------------------------
	 SCS Same-Spin Scale       =       0.3333333333333333 [-]
	 SCS Opposite-Spin Scale   =       1.2000000000000000 [-]
	 SCS Same-Spin Energy      =      -0.1478694882179147 [Eh]
	 SCS Opposite-Spin Energy  =      -1.6584854459395595 [Eh]
	 SCS Correlation Energy    =      -1.8063549341574743 [Eh]
	 SCS Total Energy          =    -761.1227961690581196 [Eh]
	-----------------------------------------------------------

  Dipole Moment: [D]
     X:    -0.7399      Y:     0.5675      Z:     3.5932     Total:     3.7122

*** Psi4 exiting successfully. Buy a developer a beer!
