                               Psi4 1.3.2 release

  ==> Input File <==

--------------------------------------------------------------------------
#psi4
#
memory 32 gb

molecule  {
0 1
  P        0.0877380    -0.0630770    -0.3573080
  O        1.2658980     0.7202100     0.4017270
  O       -0.5335540    -0.9159530     0.8701820
  O       -0.9626110     1.1157580    -0.6302230
  O        0.4708209    -0.9003388    -1.6377652
  C        2.4637000    -0.0342890     0.6951100
  C       -1.5478570    -1.8846230     0.5157310
  C       -1.3164940     2.0084280     0.4478740
  H        2.9076370    -0.4029020    -0.2303870
  H        2.2294240    -0.8677130     1.3606750
  H        3.1371140     0.6611440     1.1918470
  H       -2.3893800    -1.3915170     0.0214860
  H       -1.8772340    -2.3283310     1.4531950
  H       -1.1270350    -2.6465320    -0.1425260
  H       -1.6199920     1.4414800     1.3301320
  H       -2.1494040     2.6019710     0.0764460
  H       -0.4694080     2.6502780     0.6903180
units angstrom
no_reorient  #important for SAPT in psi4, default
symmetry c1  #important for SAPT in psi4, default
}

set PROPERTIES_ORIGIN ["COM"]
properties('MP2/aug-cc-pvtz', properties = ['dipole'])
--------------------------------------------------------------------------

    Molecular point group: c1
  Charge       = 0
  Multiplicity = 1
  Basis Set: AUG-CC-PVTZ
    Blend: AUG-CC-PVTZ
  Basis Set: (AUG-CC-PVTZ AUX)
    Blend: AUG-CC-PVTZ-JKFIT

    Orbital Energies [Eh]
    ---------------------

    Doubly Occupied:

       1A    -80.115448     2A    -20.599601     3A    -20.599409
       4A    -20.598418     5A    -20.510929     6A    -11.299213
       7A    -11.297346     8A    -11.296895     9A     -7.628394
      10A     -5.527121    11A     -5.526819    12A     -5.524575
      13A     -1.449348    14A     -1.383576    15A     -1.383208
      16A     -1.249167    17A     -0.983300    18A     -0.957930
      19A     -0.949927    20A     -0.791731    21A     -0.716614
      22A     -0.713790    23A     -0.677527    24A     -0.666315
      25A     -0.652448    26A     -0.633291    27A     -0.621308
      28A     -0.617844    29A     -0.572283    30A     -0.541043
      31A     -0.528845    32A     -0.514029    33A     -0.497770
      34A     -0.493383    35A     -0.487216    36A     -0.445467
      37A     -0.442379

  @DF-RHF Final Energy:  -759.29732088723483

   => Energetics <=

    Nuclear Repulsion Energy =            544.5267785486917091
    One-Electron Energy =               -2128.6603862127399225
    Two-Electron Energy =                 824.8362867768133810
    Total Energy =                       -759.2973208872348323
  Basis Set: (AUG-CC-PVTZ AUX)
    Blend: AUG-CC-PVTZ-RI
    Molecular point group: c1

    Geometry (in Angstrom), charge = 0, multiplicity = 1:

       Center              X                  Y                   Z               Mass
    ------------   -----------------  -----------------  -----------------  -----------------
         P            0.084963497908    -0.057012672488    -0.348033826108    30.973761998420
         O            1.263123497908     0.726274327512     0.411001173892    15.994914619570
         O           -0.536328502092    -0.909888672488     0.879456173892    15.994914619570
         O           -0.965385502092     1.121822327512    -0.620948826108    15.994914619570
         O            0.468046397908    -0.894274472488    -1.628491026108    15.994914619570
         C            2.460925497908    -0.028224672488     0.704384173892    12.000000000000
         C           -1.550631502092    -1.878558672488     0.525005173892    12.000000000000
         C           -1.319268502092     2.014492327512     0.457148173892    12.000000000000
         H            2.904862497908    -0.396837672488    -0.221112826108     1.007825032230
         H            2.226649497908    -0.861648672488     1.369949173892     1.007825032230
         H            3.134339497908     0.667208327512     1.201121173892     1.007825032230
         H           -2.392154502092    -1.385452672488     0.030760173892     1.007825032230
         H           -1.880008502092    -2.322266672488     1.462469173892     1.007825032230
         H           -1.129809502092    -2.640467672488    -0.133251826108     1.007825032230
         H           -1.622766502092     1.447544327512     1.339406173892     1.007825032230
         H           -2.152178502092     2.608035327512     0.085720173892     1.007825032230
         H           -0.472182502092     2.656342327512     0.699592173892     1.007825032230

  Basis Set: AUG-CC-PVTZ
    Blend: AUG-CC-PVTZ
  Basis Set: (AUG-CC-PVTZ AUX)
    Blend: AUG-CC-PVTZ-JKFIT
	 Reference Energy          =    -759.2973208872348323 [Eh]
	 Singles Energy            =      -0.0000000000000000 [Eh]
	 Same-Spin Energy          =      -0.4459099359470576 [Eh]
	 Opposite-Spin Energy      =      -1.3877625566644824 [Eh]
	 Correlation Energy        =      -1.8336724926115400 [Eh]
	 Total Energy              =    -761.1309933798463589 [Eh]

	 ================> DF-SCS-MP2 Energies <==================
	-----------------------------------------------------------
	 SCS Same-Spin Scale       =       0.3333333333333333 [-]
	 SCS Opposite-Spin Scale   =       1.2000000000000000 [-]
	 SCS Same-Spin Energy      =      -0.1486366453156859 [Eh]
	 SCS Opposite-Spin Energy  =      -1.6653150679973789 [Eh]
	 SCS Correlation Energy    =      -1.8139517133130649 [Eh]
	 SCS Total Energy          =    -761.1112726005478635 [Eh]
	-----------------------------------------------------------

  Dipole Moment: [D]
     X:    -0.9054      Y:     0.7775      Z:     3.9427     Total:     4.1193

*** Psi4 exiting successfully. Buy a developer a beer!
