                               Psi4 1.3.2 release

  ==> Input File <==

--------------------------------------------------------------------------
#psi4
#
memory 32 gb

molecule  {
0 1
  P        0.0877380    -0.0630770    -0.3573080
  O        1.2658980     0.7202100     0.4017270
  O       -0.5335540    -0.9159530     0.8701820
  O       -0.9603232     1.1290364    -0.5759423
  O        0.4777367    -0.8760301    -1.5273137
  C        2.4637000    -0.0342890     0.6951100
  C       -1.5478570    -1.8846230     0.5157310
  C       -1.3164940     2.0084280     0.4478740
  H        2.9076370    -0.4029020    -0.2303870
  H        2.2294240    -0.8677130     1.3606750
  H        3.1371140     0.6611440     1.1918470
  H       -2.3893800    -1.3915170     0.0214860
  H       -1.8772340    -2.3283310     1.4531950
  H       -1.1270350    -2.6465320    -0.1425260
  H       -1.6199920     1.4414800     1.3301320
  H       -2.1494040     2.6019710     0.0764460
  H       -0.4694080     2.6502780     0.6903180
units angstrom
no_reorient  #important for SAPT in psi4, default
symmetry c1  #important for SAPT in psi4, default
}

set PROPERTIES_ORIGIN ["COM"]
properties('MP2/aug-cc-pvtz', properties = ['dipole'])
--------------------------------------------------------------------------

    Molecular point group: c1
  Charge       = 0
  Multiplicity = 1
  Basis Set: AUG-CC-PVTZ
    Blend: AUG-CC-PVTZ
  Basis Set: (AUG-CC-PVTZ AUX)
    Blend: AUG-CC-PVTZ-JKFIT

    Orbital Energies [Eh]
    ---------------------

    Doubly Occupied:

       1A    -80.102569     2A    -20.592721     3A    -20.591555
       4A    -20.591333     5A    -20.513714     6A    -11.294967
       7A    -11.293344     8A    -11.291013     9A     -7.618419
      10A     -5.517014    11A     -5.516600    12A     -5.515256
      13A     -1.452115    14A     -1.387492    15A     -1.377104
      16A     -1.294843    17A     -0.982025    18A     -0.953993
      19A     -0.946193    20A     -0.786899    21A     -0.717251
      22A     -0.713990    23A     -0.676586    24A     -0.667013
      25A     -0.652594    26A     -0.634298    27A     -0.616908
      28A     -0.615685    29A     -0.587504    30A     -0.538935
      31A     -0.526941    32A     -0.513715    33A     -0.496183
      34A     -0.490046    35A     -0.480735    36A     -0.468384
      37A     -0.460623

  @DF-RHF Final Energy:  -759.31509483082220

   => Energetics <=

    Nuclear Repulsion Energy =            550.0479281567625094
    One-Electron Energy =               -2139.7729248768227990
    Two-Electron Energy =                 830.4099018892380855
    Total Energy =                       -759.3150948308222041
  Basis Set: (AUG-CC-PVTZ AUX)
    Blend: AUG-CC-PVTZ-RI
    Molecular point group: c1

    Geometry (in Angstrom), charge = 0, multiplicity = 1:

       Center              X                  Y                   Z               Mass
    ------------   -----------------  -----------------  -----------------  -----------------
         P            0.083912171290    -0.061306244429    -0.366851174394    30.973761998420
         O            1.262072171290     0.721980755571     0.392183825606    15.994914619570
         O           -0.537379828710    -0.914182244429     0.860638825606    15.994914619570
         O           -0.964149028710     1.130807155571    -0.585485474394    15.994914619570
         O            0.473910871290    -0.874259344429    -1.536856874394    15.994914619570
         C            2.459874171290    -0.032518244429     0.685566825606    12.000000000000
         C           -1.551682828710    -1.882852244429     0.506187825606    12.000000000000
         C           -1.320319828710     2.010198755571     0.438330825606    12.000000000000
         H            2.903811171290    -0.401131244429    -0.239930174394     1.007825032230
         H            2.225598171290    -0.865942244429     1.351131825606     1.007825032230
         H            3.133288171290     0.662914755571     1.182303825606     1.007825032230
         H           -2.393205828710    -1.389746244429     0.011942825606     1.007825032230
         H           -1.881059828710    -2.326560244429     1.443651825606     1.007825032230
         H           -1.130860828710    -2.644761244429    -0.152069174394     1.007825032230
         H           -1.623817828710     1.443250755571     1.320588825606     1.007825032230
         H           -2.153229828710     2.603741755571     0.066902825606     1.007825032230
         H           -0.473233828710     2.652048755571     0.680774825606     1.007825032230

  Basis Set: AUG-CC-PVTZ
    Blend: AUG-CC-PVTZ
  Basis Set: (AUG-CC-PVTZ AUX)
    Blend: AUG-CC-PVTZ-JKFIT
	 Reference Energy          =    -759.3150948308222041 [Eh]
	 Singles Energy            =      -0.0000000000000000 [Eh]
	 Same-Spin Energy          =      -0.4436327835439754 [Eh]
	 Opposite-Spin Energy      =      -1.3815307748628947 [Eh]
	 Correlation Energy        =      -1.8251635584068699 [Eh]
	 Total Energy              =    -761.1402583892290750 [Eh]

	 ================> DF-SCS-MP2 Energies <==================
	-----------------------------------------------------------
	 SCS Same-Spin Scale       =       0.3333333333333333 [-]
	 SCS Opposite-Spin Scale   =       1.2000000000000000 [-]
	 SCS Same-Spin Energy      =      -0.1478775945146585 [Eh]
	 SCS Opposite-Spin Energy  =      -1.6578369298354736 [Eh]
	 SCS Correlation Energy    =      -1.8057145243501320 [Eh]
	 SCS Total Energy          =    -761.1208093551723550 [Eh]
	-----------------------------------------------------------

  Dipole Moment: [D]
     X:    -0.8191      Y:     0.4954      Z:     3.2594     Total:     3.3971

*** Psi4 exiting successfully. Buy a developer a beer!
