                               Psi4 1.3.2 release

  ==> Input File <==

--------------------------------------------------------------------------
#psi4
#
memory 32 gb

molecule  {
0 1
  P        0.0877380    -0.0630770    -0.3573080
  O        1.2585516     0.7075856     0.4256405
  O       -0.5143707    -0.9045384     0.8874975
  O       -0.9626110     1.1157580    -0.6302230
  O        0.4465310    -0.8472510    -1.5565760
  C        2.4637000    -0.0342890     0.6951100
  C       -1.5478570    -1.8846230     0.5157310
  C       -1.3164940     2.0084280     0.4478740
  H        2.9076370    -0.4029020    -0.2303870
  H        2.2294240    -0.8677130     1.3606750
  H        3.1371140     0.6611440     1.1918470
  H       -2.3893800    -1.3915170     0.0214860
  H       -1.8772340    -2.3283310     1.4531950
  H       -1.1270350    -2.6465320    -0.1425260
  H       -1.6199920     1.4414800     1.3301320
  H       -2.1494040     2.6019710     0.0764460
  H       -0.4694080     2.6502780     0.6903180
units angstrom
no_reorient  #important for SAPT in psi4, default
symmetry c1  #important for SAPT in psi4, default
}

set PROPERTIES_ORIGIN ["COM"]
properties('MP2/aug-cc-pvtz', properties = ['dipole'])
--------------------------------------------------------------------------

    Molecular point group: c1
  Charge       = 0
  Multiplicity = 1
  Basis Set: AUG-CC-PVTZ
    Blend: AUG-CC-PVTZ
  Basis Set: (AUG-CC-PVTZ AUX)
    Blend: AUG-CC-PVTZ-JKFIT

    Orbital Energies [Eh]
    ---------------------

    Doubly Occupied:

       1A    -80.098580     2A    -20.593204     3A    -20.593166
       4A    -20.590375     5A    -20.509813     6A    -11.297773
       7A    -11.295404     8A    -11.292875     9A     -7.614759
      10A     -5.513221    11A     -5.512917    12A     -5.511651
      13A     -1.445969    14A     -1.378792    15A     -1.371960
      16A     -1.291089    17A     -0.978075    18A     -0.954768
      19A     -0.945937    20A     -0.784906    21A     -0.713527
      22A     -0.709314    23A     -0.671682    24A     -0.661474
      25A     -0.649197    26A     -0.628878    27A     -0.614195
      28A     -0.611240    29A     -0.583606    30A     -0.542415
      31A     -0.528816    32A     -0.516180    33A     -0.498149
      34A     -0.491169    35A     -0.484158    36A     -0.465253
      37A     -0.458897

  @DF-RHF Final Energy:  -759.31425569781652

   => Energetics <=

    Nuclear Repulsion Energy =            548.9645601991508101
    One-Electron Energy =               -2137.7508619615132375
    Two-Electron Energy =                 829.4720460645459070
    Total Energy =                       -759.3142556978165203
  Basis Set: (AUG-CC-PVTZ AUX)
    Blend: AUG-CC-PVTZ-RI
    Molecular point group: c1

    Geometry (in Angstrom), charge = 0, multiplicity = 1:

       Center              X                  Y                   Z               Mass
    ------------   -----------------  -----------------  -----------------  -----------------
         P            0.086386003273    -0.062938692989    -0.362017648979    30.973761998420
         O            1.257199603273     0.707723907011     0.420930851021    15.994914619570
         O           -0.515722696727    -0.904400092989     0.882787851021    15.994914619570
         O           -0.963962996727     1.115896307011    -0.634932648979    15.994914619570
         O            0.445179003273    -0.847112692989    -1.561285648979    15.994914619570
         C            2.462348003273    -0.034150692989     0.690400351021    12.000000000000
         C           -1.549208996727    -1.884484692989     0.511021351021    12.000000000000
         C           -1.317845996727     2.008566307011     0.443164351021    12.000000000000
         H            2.906285003273    -0.402763692989    -0.235096648979     1.007825032230
         H            2.228072003273    -0.867574692989     1.355965351021     1.007825032230
         H            3.135762003273     0.661282307011     1.187137351021     1.007825032230
         H           -2.390731996727    -1.391378692989     0.016776351021     1.007825032230
         H           -1.878585996727    -2.328192692989     1.448485351021     1.007825032230
         H           -1.128386996727    -2.646393692989    -0.147235648979     1.007825032230
         H           -1.621343996727     1.441618307011     1.325422351021     1.007825032230
         H           -2.150755996727     2.602109307011     0.071736351021     1.007825032230
         H           -0.470759996727     2.650416307011     0.685608351021     1.007825032230

  Basis Set: AUG-CC-PVTZ
    Blend: AUG-CC-PVTZ
  Basis Set: (AUG-CC-PVTZ AUX)
    Blend: AUG-CC-PVTZ-JKFIT
	 Reference Energy          =    -759.3142556978165203 [Eh]
	 Singles Energy            =      -0.0000000000000000 [Eh]
	 Same-Spin Energy          =      -0.4439361160525550 [Eh]
	 Opposite-Spin Energy      =      -1.3831091285847374 [Eh]
	 Correlation Energy        =      -1.8270452446372925 [Eh]
	 Total Energy              =    -761.1413009424537677 [Eh]

	 ================> DF-SCS-MP2 Energies <==================
	-----------------------------------------------------------
	 SCS Same-Spin Scale       =       0.3333333333333333 [-]
	 SCS Opposite-Spin Scale   =       1.2000000000000000 [-]
	 SCS Same-Spin Energy      =      -0.1479787053508517 [Eh]
	 SCS Opposite-Spin Energy  =      -1.6597309543016849 [Eh]
	 SCS Correlation Energy    =      -1.8077096596525366 [Eh]
	 SCS Total Energy          =    -761.1219653574690938 [Eh]
	-----------------------------------------------------------

  Dipole Moment: [D]
     X:    -0.8847      Y:     0.5068      Z:     3.4455     Total:     3.5932

*** Psi4 exiting successfully. Buy a developer a beer!
