                               Psi4 1.3.2 release

  ==> Input File <==

--------------------------------------------------------------------------
#psi4
#
memory 32 gb

molecule  {
0 1
  P        0.0424363     0.0077002    -0.3553760
  O        1.2658980     0.7202100     0.4017270
  O       -0.5335540    -0.9159530     0.8701820
  O       -0.9626110     1.1157580    -0.6302230
  O        0.4465310    -0.8472510    -1.5565760
  C        2.4926792     0.0279233     0.7270252
  C       -1.5478570    -1.8846230     0.5157310
  C       -1.3164940     2.0084280     0.4478740
  H        2.9076370    -0.4029020    -0.2303870
  H        2.2294240    -0.8677130     1.3606750
  H        3.1371140     0.6611440     1.1918470
  H       -2.3893800    -1.3915170     0.0214860
  H       -1.8772340    -2.3283310     1.4531950
  H       -1.1270350    -2.6465320    -0.1425260
  H       -1.6199920     1.4414800     1.3301320
  H       -2.1494040     2.6019710     0.0764460
  H       -0.4694080     2.6502780     0.6903180
units angstrom
no_reorient  #important for SAPT in psi4, default
symmetry c1  #important for SAPT in psi4, default
}

set PROPERTIES_ORIGIN ["COM"]
properties('MP2/aug-cc-pvtz', properties = ['dipole'])
--------------------------------------------------------------------------

    Molecular point group: c1
  Charge       = 0
  Multiplicity = 1
  Basis Set: AUG-CC-PVTZ
    Blend: AUG-CC-PVTZ
  Basis Set: (AUG-CC-PVTZ AUX)
    Blend: AUG-CC-PVTZ-JKFIT

    Orbital Energies [Eh]
    ---------------------

    Doubly Occupied:

       1A    -80.100516     2A    -20.613708     3A    -20.587369
       4A    -20.585868     5A    -20.495443     6A    -11.310355
       7A    -11.293431     8A    -11.290158     9A     -7.616189
      10A     -5.514955    11A     -5.514414    12A     -5.512729
      13A     -1.465103    14A     -1.393309    15A     -1.368889
      16A     -1.257082    17A     -0.990219    18A     -0.965429
      19A     -0.943168    20A     -0.791038    21A     -0.721397
      22A     -0.715695    23A     -0.681606    24A     -0.669119
      25A     -0.648112    26A     -0.637973    27A     -0.629818
      28A     -0.607095    29A     -0.570306    30A     -0.550821
      31A     -0.535075    32A     -0.514942    33A     -0.501542
      34A     -0.486699    35A     -0.476372    36A     -0.442291
      37A     -0.437063

  @DF-RHF Final Energy:  -759.29997043031040

   => Energetics <=

    Nuclear Repulsion Energy =            548.7747652833643315
    One-Electron Energy =               -2137.2788782684974649
    Two-Electron Energy =                 829.2041425548227380
    Total Energy =                       -759.2999704303103954
  Basis Set: (AUG-CC-PVTZ AUX)
    Blend: AUG-CC-PVTZ-RI
    Molecular point group: c1

    Geometry (in Angstrom), charge = 0, multiplicity = 1:

       Center              X                  Y                   Z               Mass
    ------------   -----------------  -----------------  -----------------  -----------------
         P            0.049973816855    -0.013287426070    -0.358538550872    30.973761998420
         O            1.273435516855     0.699222373930     0.398564449128    15.994914619570
         O           -0.526016483145    -0.936940626070     0.867019449128    15.994914619570
         O           -0.955073483145     1.094770373930    -0.633385550872    15.994914619570
         O            0.454068516855    -0.868238626070    -1.559738550872    15.994914619570
         C            2.500216716855     0.006935673930     0.723862649128    12.000000000000
         C           -1.540319483145    -1.905610626070     0.512568449128    12.000000000000
         C           -1.308956483145     1.987440373930     0.444711449128    12.000000000000
         H            2.915174516855    -0.423889626070    -0.233549550872     1.007825032230
         H            2.236961516855    -0.888700626070     1.357512449128     1.007825032230
         H            3.144651516855     0.640156373930     1.188684449128     1.007825032230
         H           -2.381842483145    -1.412504626070     0.018323449128     1.007825032230
         H           -1.869696483145    -2.349318626070     1.450032449128     1.007825032230
         H           -1.119497483145    -2.667519626070    -0.145688550872     1.007825032230
         H           -1.612454483145     1.420492373930     1.326969449128     1.007825032230
         H           -2.141866483145     2.580983373930     0.073283449128     1.007825032230
         H           -0.461870483145     2.629290373930     0.687155449128     1.007825032230

  Basis Set: AUG-CC-PVTZ
    Blend: AUG-CC-PVTZ
  Basis Set: (AUG-CC-PVTZ AUX)
    Blend: AUG-CC-PVTZ-JKFIT
	 Reference Energy          =    -759.2999704303103954 [Eh]
	 Singles Energy            =      -0.0000000000000000 [Eh]
	 Same-Spin Energy          =      -0.4439919455196273 [Eh]
	 Opposite-Spin Energy      =      -1.3827089979355898 [Eh]
	 Correlation Energy        =      -1.8267009434552171 [Eh]
	 Total Energy              =    -761.1266713737655891 [Eh]

	 ================> DF-SCS-MP2 Energies <==================
	-----------------------------------------------------------
	 SCS Same-Spin Scale       =       0.3333333333333333 [-]
	 SCS Opposite-Spin Scale   =       1.2000000000000000 [-]
	 SCS Same-Spin Energy      =      -0.1479973151732091 [Eh]
	 SCS Opposite-Spin Energy  =      -1.6592507975227078 [Eh]
	 SCS Correlation Energy    =      -1.8072481126959168 [Eh]
	 SCS Total Energy          =    -761.1072185430062973 [Eh]
	-----------------------------------------------------------

  Dipole Moment: [D]
     X:    -1.2355      Y:     1.4836      Z:     3.7070     Total:     4.1796

*** Psi4 exiting successfully. Buy a developer a beer!
