                               Psi4 1.4a3.dev225

  ==> Input File <==

--------------------------------------------------------------------------
#psi4
#
memory 32 gb

molecule  {
0 1
  P       -0.0574490    -0.0471570     0.4194890
  O       -1.2961560     0.7325110    -0.2482760
  O        0.4722150    -0.8939050    -0.8603530
  O        0.9903180     1.1487510     0.6268930
  O       -0.2961570    -0.8492890     1.6393190
  C       -2.4621590    -0.0544570    -0.5825580
  C        1.3897842    -1.9506139    -0.5824337
  C        1.2646580     2.0469880    -0.4710390
  H       -2.8060190    -0.6071020     0.2936840
  H       -2.2248990    -0.7417540    -1.3968370
  H       -3.2216950     0.6578470    -0.8995060
  H        2.3395400    -1.5606100    -0.1879150
  H        1.5821260    -2.4612230    -1.5311740
  H        0.9711350    -2.6604290     0.1425970
  H        1.5228770     1.4835030    -1.3699410
  H        2.1109000     2.6527310    -0.1513160
  H        0.3951430     2.6772290    -0.6597860
units angstrom
no_reorient  #important for SAPT in psi4, default
symmetry c1  #important for SAPT in psi4, default
}

set PROPERTIES_ORIGIN ["COM"]
properties('MP2/aug-cc-pvtz', properties = ['dipole'])
--------------------------------------------------------------------------

    Molecular point group: c1
  Charge       = 0
  Multiplicity = 1
  Basis Set: AUG-CC-PVTZ
    Blend: AUG-CC-PVTZ
  Basis Set: (AUG-CC-PVTZ AUX)
    Blend: AUG-CC-PVTZ-JKFIT

    Orbital Energies [Eh]
    ---------------------

    Doubly Occupied:

       1A    -80.102049     2A    -20.595275     3A    -20.595027
       4A    -20.593279     5A    -20.509925     6A    -11.296269
       7A    -11.295678     8A    -11.293641     9A     -7.617832
      10A     -5.516256    11A     -5.516022    12A     -5.514734
      13A     -1.448349    14A     -1.382785    15A     -1.378494
      16A     -1.290830    17A     -0.979080    18A     -0.953401
      19A     -0.946786    20A     -0.786847    21A     -0.714718
      22A     -0.713189    23A     -0.674876    24A     -0.663133
      25A     -0.650386    26A     -0.630782    27A     -0.621195
      28A     -0.614918    29A     -0.582234    30A     -0.537821
      31A     -0.528622    32A     -0.516056    33A     -0.496788
      34A     -0.491660    35A     -0.482754    36A     -0.464639
      37A     -0.459736

  @DF-RHF Final Energy:  -759.31524054211582

   => Energetics <=

    Nuclear Repulsion Energy =            548.6711916556954520
    One-Electron Energy =               -2137.0607286602607928
    Two-Electron Energy =                 829.0742964624494107
    Total Energy =                       -759.3152405421158164
  Basis Set: (AUG-CC-PVTZ AUX)
    Blend: AUG-CC-PVTZ-RI
    Molecular point group: c1

    Geometry (in Angstrom), charge = 0, multiplicity = 1:

       Center              X                  Y                   Z               Mass
    ------------   -----------------  -----------------  -----------------  -----------------
         P           -0.051210851948    -0.052060256711     0.376132401986    30.973761998420
         O           -1.289917851948     0.727607743289    -0.291632598014    15.994914619570
         O            0.478453148052    -0.898808256711    -0.903709598014    15.994914619570
         O            0.996556148052     1.143847743289     0.583536401986    15.994914619570
         O           -0.289918851948    -0.854192256711     1.595962401986    15.994914619570
         C           -2.455920851948    -0.059360256711    -0.625914598014    12.000000000000
         C            1.396022348052    -1.955517156711    -0.625790298014    12.000000000000
         C            1.270896148052     2.042084743289    -0.514395598014    12.000000000000
         H           -2.799780851948    -0.612005256711     0.250327401986     1.007825032230
         H           -2.218660851948    -0.746657256711    -1.440193598014     1.007825032230
         H           -3.215456851948     0.652943743289    -0.942862598014     1.007825032230
         H            2.345778148052    -1.565513256711    -0.231271598014     1.007825032230
         H            1.588364148052    -2.466126256711    -1.574530598014     1.007825032230
         H            0.977373148052    -2.665332256711     0.099240401986     1.007825032230
         H            1.529115148052     1.478599743289    -1.413297598014     1.007825032230
         H            2.117138148052     2.647827743289    -0.194672598014     1.007825032230
         H            0.401381148052     2.672325743289    -0.703142598014     1.007825032230

  Basis Set: AUG-CC-PVTZ
    Blend: AUG-CC-PVTZ
  Basis Set: (AUG-CC-PVTZ AUX)
    Blend: AUG-CC-PVTZ-JKFIT
	 Reference Energy          =    -759.3152405421158164 [Eh]
	 Singles Energy            =      -0.0000000000000000 [Eh]
	 Same-Spin Energy          =      -0.4438885745618051 [Eh]
	 Opposite-Spin Energy      =      -1.3826782543466942 [Eh]
	 Correlation Energy        =      -1.8265668289084993 [Eh]
	 Total Energy              =    -761.1418073710243561 [Eh]

	 ================> DF-SCS-MP2 Energies <==================
	-----------------------------------------------------------
	 SCS Same-Spin Scale       =       0.3333333333333333 [-]
	 SCS Opposite-Spin Scale   =       1.2000000000000000 [-]
	 SCS Same-Spin Energy      =      -0.1479628581872683 [Eh]
	 SCS Opposite-Spin Energy  =      -1.6592139052160331 [Eh]
	 SCS Correlation Energy    =      -1.8071767634033014 [Eh]
	 SCS Total Energy          =    -761.1224173055190931 [Eh]
	-----------------------------------------------------------

  Dipole Moment: [D]
     X:     0.3347      Y:     0.5039      Z:    -3.7113     Total:     3.7603

*** Psi4 exiting successfully. Buy a developer a beer!
