                               Psi4 1.4a3.dev225

  ==> Input File <==

--------------------------------------------------------------------------
#psi4
#
memory 32 gb

molecule  {
0 1
  P       -0.0574490    -0.0471570     0.4194890
  O       -1.2961560     0.7325110    -0.2482760
  O        0.4722150    -0.8939050    -0.8603530
  O        0.9903180     1.1487510     0.6268930
  O       -0.2961570    -0.8492890     1.6393190
  C       -2.4621590    -0.0544570    -0.5825580
  C        1.3704916    -1.9283957    -0.5882771
  C        1.2646580     2.0469880    -0.4710390
  H       -2.8060190    -0.6071020     0.2936840
  H       -2.2248990    -0.7417540    -1.3968370
  H       -3.2216950     0.6578470    -0.8995060
  H        2.3395400    -1.5606100    -0.1879150
  H        1.5821260    -2.4612230    -1.5311740
  H        0.9711350    -2.6604290     0.1425970
  H        1.5228770     1.4835030    -1.3699410
  H        2.1109000     2.6527310    -0.1513160
  H        0.3951430     2.6772290    -0.6597860
units angstrom
no_reorient  #important for SAPT in psi4, default
symmetry c1  #important for SAPT in psi4, default
}

set PROPERTIES_ORIGIN ["COM"]
properties('MP2/aug-cc-pvtz', properties = ['dipole'])
--------------------------------------------------------------------------

    Molecular point group: c1
  Charge       = 0
  Multiplicity = 1
  Basis Set: AUG-CC-PVTZ
    Blend: AUG-CC-PVTZ
  Basis Set: (AUG-CC-PVTZ AUX)
    Blend: AUG-CC-PVTZ-JKFIT

    Orbital Energies [Eh]
    ---------------------

    Doubly Occupied:

       1A    -80.103884     2A    -20.598004     3A    -20.596318
       4A    -20.594491     5A    -20.511167     6A    -11.297178
       7A    -11.296500     8A    -11.293368     9A     -7.619690
      10A     -5.518091    11A     -5.517905    12A     -5.516570
      13A     -1.452682    14A     -1.390823    15A     -1.379690
      16A     -1.292278    17A     -0.979948    18A     -0.953926
      19A     -0.945256    20A     -0.789107    21A     -0.716876
      22A     -0.716474    23A     -0.677862    24A     -0.664717
      25A     -0.651867    26A     -0.631458    27A     -0.627018
      28A     -0.615812    29A     -0.582038    30A     -0.535026
      31A     -0.529652    32A     -0.515587    33A     -0.495921
      34A     -0.490717    35A     -0.480904    36A     -0.465217
      37A     -0.461109

  @DF-RHF Final Energy:  -759.31375855366286

   => Energetics <=

    Nuclear Repulsion Energy =            549.3670647508801039
    One-Electron Energy =               -2138.3513872276325856
    Two-Electron Energy =                 829.6705639230895031
    Total Energy =                       -759.3137585536628649
  Basis Set: (AUG-CC-PVTZ AUX)
    Blend: AUG-CC-PVTZ-RI
    Molecular point group: c1

    Geometry (in Angstrom), charge = 0, multiplicity = 1:

       Center              X                  Y                   Z               Mass
    ------------   -----------------  -----------------  -----------------  -----------------
         P           -0.049557482133    -0.053964349536     0.376633179547    30.973761998420
         O           -1.288264482133     0.725703650464    -0.291131820453    15.994914619570
         O            0.480106517867    -0.900712349536    -0.903208820453    15.994914619570
         O            0.998209517867     1.141943650464     0.584037179547    15.994914619570
         O           -0.288265482133    -0.856096349536     1.596463179547    15.994914619570
         C           -2.454267482133    -0.061264349536    -0.625413820453    12.000000000000
         C            1.378383117867    -1.935203049536    -0.631132920453    12.000000000000
         C            1.272549517867     2.040180650464    -0.513894820453    12.000000000000
         H           -2.798127482133    -0.613909349536     0.250828179547     1.007825032230
         H           -2.217007482133    -0.748561349536    -1.439692820453     1.007825032230
         H           -3.213803482133     0.651039650464    -0.942361820453     1.007825032230
         H            2.347431517867    -1.567417349536    -0.230770820453     1.007825032230
         H            1.590017517867    -2.468030349536    -1.574029820453     1.007825032230
         H            0.979026517867    -2.667236349536     0.099741179547     1.007825032230
         H            1.530768517867     1.476695650464    -1.412796820453     1.007825032230
         H            2.118791517867     2.645923650464    -0.194171820453     1.007825032230
         H            0.403034517867     2.670421650464    -0.702641820453     1.007825032230

  Basis Set: AUG-CC-PVTZ
    Blend: AUG-CC-PVTZ
  Basis Set: (AUG-CC-PVTZ AUX)
    Blend: AUG-CC-PVTZ-JKFIT
	 Reference Energy          =    -759.3137585536628649 [Eh]
	 Singles Energy            =      -0.0000000000000000 [Eh]
	 Same-Spin Energy          =      -0.4439649862755426 [Eh]
	 Opposite-Spin Energy      =      -1.3825009588711041 [Eh]
	 Correlation Energy        =      -1.8264659451466467 [Eh]
	 Total Energy              =    -761.1402244988095163 [Eh]

	 ================> DF-SCS-MP2 Energies <==================
	-----------------------------------------------------------
	 SCS Same-Spin Scale       =       0.3333333333333333 [-]
	 SCS Opposite-Spin Scale   =       1.2000000000000000 [-]
	 SCS Same-Spin Energy      =      -0.1479883287585142 [Eh]
	 SCS Opposite-Spin Energy  =      -1.6590011506453248 [Eh]
	 SCS Correlation Energy    =      -1.8069894794038390 [Eh]
	 SCS Total Energy          =    -761.1207480330666613 [Eh]
	-----------------------------------------------------------

  Dipole Moment: [D]
     X:     0.2416      Y:     0.6150      Z:    -3.7019     Total:     3.7604

*** Psi4 exiting successfully. Buy a developer a beer!
