                               Psi4 1.3.2 release

  ==> Input File <==

--------------------------------------------------------------------------
#psi4
#
memory 32 gb

molecule  {
0 1
  P        0.0877380    -0.0630770    -0.3573080
  O        1.2088852     0.7480038     0.4568852
  O       -0.5335540    -0.9159530     0.8701820
  O       -0.9626110     1.1157580    -0.6302230
  O        0.3721255    -0.8672356    -1.5632755
  C        2.4637000    -0.0342890     0.6951100
  C       -1.5478570    -1.8846230     0.5157310
  C       -1.3164940     2.0084280     0.4478740
  H        2.9076370    -0.4029020    -0.2303870
  H        2.2294240    -0.8677130     1.3606750
  H        3.1371140     0.6611440     1.1918470
  H       -2.3893800    -1.3915170     0.0214860
  H       -1.8772340    -2.3283310     1.4531950
  H       -1.1270350    -2.6465320    -0.1425260
  H       -1.6199920     1.4414800     1.3301320
  H       -2.1494040     2.6019710     0.0764460
  H       -0.4694080     2.6502780     0.6903180
units angstrom
no_reorient  #important for SAPT in psi4, default
symmetry c1  #important for SAPT in psi4, default
}

set PROPERTIES_ORIGIN ["COM"]
properties('MP2/aug-cc-pvtz', properties = ['dipole'])
--------------------------------------------------------------------------

    Molecular point group: c1
  Charge       = 0
  Multiplicity = 1
  Basis Set: AUG-CC-PVTZ
    Blend: AUG-CC-PVTZ
  Basis Set: (AUG-CC-PVTZ AUX)
    Blend: AUG-CC-PVTZ-JKFIT

    Orbital Energies [Eh]
    ---------------------

    Doubly Occupied:

       1A    -80.097289     2A    -20.598569     3A    -20.587990
       4A    -20.586351     5A    -20.511617     6A    -11.304280
       7A    -11.291390     8A    -11.291168     9A     -7.613578
      10A     -5.512121    11A     -5.511681    12A     -5.510440
      13A     -1.443538    14A     -1.373422    15A     -1.368812
      16A     -1.292124    17A     -0.976575    18A     -0.951572
      19A     -0.947315    20A     -0.783362    21A     -0.709462
      22A     -0.708343    23A     -0.669869    24A     -0.658527
      25A     -0.647043    26A     -0.626023    27A     -0.614245
      28A     -0.604250    29A     -0.584219    30A     -0.541480
      31A     -0.532723    32A     -0.515455    33A     -0.501367
      34A     -0.488982    35A     -0.480848    36A     -0.467253
      37A     -0.459667

  @DF-RHF Final Energy:  -759.30996379500573

   => Energetics <=

    Nuclear Repulsion Energy =            548.8762821312531059
    One-Electron Energy =               -2137.6465873789798025
    Two-Electron Energy =                 829.4603414527210816
    Total Energy =                       -759.3099637950057286
  Basis Set: (AUG-CC-PVTZ AUX)
    Blend: AUG-CC-PVTZ-RI
    Molecular point group: c1

    Geometry (in Angstrom), charge = 0, multiplicity = 1:

       Center              X                  Y                   Z               Mass
    ------------   -----------------  -----------------  -----------------  -----------------
         P            0.102750035272    -0.063968932761    -0.362843497131    30.973761998420
         O            1.223897235272     0.747111867239     0.451349702869    15.994914619570
         O           -0.518541964728    -0.916844932761     0.864646502869    15.994914619570
         O           -0.947598964728     1.114866067239    -0.635758497131    15.994914619570
         O            0.387137535272    -0.868127532761    -1.568810997131    15.994914619570
         C            2.478712035272    -0.035180932761     0.689574502869    12.000000000000
         C           -1.532844964728    -1.885514932761     0.510195502869    12.000000000000
         C           -1.301481964728     2.007536067239     0.442338502869    12.000000000000
         H            2.922649035272    -0.403793932761    -0.235922497131     1.007825032230
         H            2.244436035272    -0.868604932761     1.355139502869     1.007825032230
         H            3.152126035272     0.660252067239     1.186311502869     1.007825032230
         H           -2.374367964728    -1.392408932761     0.015950502869     1.007825032230
         H           -1.862221964728    -2.329222932761     1.447659502869     1.007825032230
         H           -1.112022964728    -2.647423932761    -0.148061497131     1.007825032230
         H           -1.604979964728     1.440588067239     1.324596502869     1.007825032230
         H           -2.134391964728     2.601079067239     0.070910502869     1.007825032230
         H           -0.454395964728     2.649386067239     0.684782502869     1.007825032230

  Basis Set: AUG-CC-PVTZ
    Blend: AUG-CC-PVTZ
  Basis Set: (AUG-CC-PVTZ AUX)
    Blend: AUG-CC-PVTZ-JKFIT
	 Reference Energy          =    -759.3099637950057286 [Eh]
	 Singles Energy            =      -0.0000000000000000 [Eh]
	 Same-Spin Energy          =      -0.4443787130336878 [Eh]
	 Opposite-Spin Energy      =      -1.3843729875831745 [Eh]
	 Correlation Energy        =      -1.8287517006168623 [Eh]
	 Total Energy              =    -761.1387154956225913 [Eh]

	 ================> DF-SCS-MP2 Energies <==================
	-----------------------------------------------------------
	 SCS Same-Spin Scale       =       0.3333333333333333 [-]
	 SCS Opposite-Spin Scale   =       1.2000000000000000 [-]
	 SCS Same-Spin Energy      =      -0.1481262376778959 [Eh]
	 SCS Opposite-Spin Energy  =      -1.6612475850998094 [Eh]
	 SCS Correlation Energy    =      -1.8093738227777054 [Eh]
	 SCS Total Energy          =    -761.1193376177834580 [Eh]
	-----------------------------------------------------------

  Dipole Moment: [D]
     X:    -0.2430      Y:     0.4912      Z:     3.4617     Total:     3.5048

*** Psi4 exiting successfully. Buy a developer a beer!
