                               Psi4 1.4a3.dev225

  ==> Input File <==

--------------------------------------------------------------------------
#psi4
#
memory 32 gb

molecule  {
0 1
  P       -0.0574490    -0.0471570     0.4194890
  O       -1.2961560     0.7325110    -0.2482760
  O        0.4722150    -0.8939050    -0.8603530
  O        0.9903180     1.1487510     0.6268930
  O       -0.2880888    -0.8221775     1.5980895
  C       -2.4621590    -0.0544570    -0.5825580
  C        1.4026460    -1.9654260    -0.5785380
  C        1.2646580     2.0469880    -0.4710390
  H       -2.8060190    -0.6071020     0.2936840
  H       -2.2248990    -0.7417540    -1.3968370
  H       -3.2216950     0.6578470    -0.8995060
  H        2.3395400    -1.5606100    -0.1879150
  H        1.5821260    -2.4612230    -1.5311740
  H        0.9711350    -2.6604290     0.1425970
  H        1.5228770     1.4835030    -1.3699410
  H        2.1109000     2.6527310    -0.1513160
  H        0.3951430     2.6772290    -0.6597860
units angstrom
no_reorient  #important for SAPT in psi4, default
symmetry c1  #important for SAPT in psi4, default
}

set PROPERTIES_ORIGIN ["COM"]
properties('MP2/aug-cc-pvtz', properties = ['dipole'])
--------------------------------------------------------------------------

    Molecular point group: c1
  Charge       = 0
  Multiplicity = 1
  Basis Set: AUG-CC-PVTZ
    Blend: AUG-CC-PVTZ
  Basis Set: (AUG-CC-PVTZ AUX)
    Blend: AUG-CC-PVTZ-JKFIT

    Orbital Energies [Eh]
    ---------------------

    Doubly Occupied:

       1A    -80.090732     2A    -20.590806     3A    -20.589955
       4A    -20.589333     5A    -20.507510     6A    -11.294494
       7A    -11.293125     8A    -11.293085     9A     -7.609063
      10A     -5.507161    11A     -5.506887    12A     -5.506532
      13A     -1.445969    14A     -1.375178    15A     -1.374636
      16A     -1.311403    17A     -0.976380    18A     -0.951470
      19A     -0.946207    20A     -0.782242    21A     -0.712731
      22A     -0.710184    23A     -0.670863    24A     -0.660733
      25A     -0.647993    26A     -0.629262    27A     -0.615414
      28A     -0.612436    29A     -0.589112    30A     -0.540536
      31A     -0.528626    32A     -0.517318    33A     -0.496748
      34A     -0.491582    35A     -0.482447    36A     -0.472621
      37A     -0.465985

  @DF-RHF Final Energy:  -759.31737219886031

   => Energetics <=

    Nuclear Repulsion Energy =            550.6378996402183930
    One-Electron Energy =               -2141.1370261672745983
    Two-Electron Energy =                 831.1817543281958933
    Total Energy =                       -759.3173721988603120
  Basis Set: (AUG-CC-PVTZ AUX)
    Blend: AUG-CC-PVTZ-RI
    Molecular point group: c1

    Geometry (in Angstrom), charge = 0, multiplicity = 1:

       Center              X                  Y                   Z               Mass
    ------------   -----------------  -----------------  -----------------  -----------------
         P           -0.053234734156    -0.053887809199     0.380508184760    30.973761998420
         O           -1.291941734156     0.725780190801    -0.287256815240    15.994914619570
         O            0.476429265844    -0.900635809199    -0.899333815240    15.994914619570
         O            0.994532265844     1.142020190801     0.587912184760    15.994914619570
         O           -0.283874534156    -0.828908309199     1.559108684760    15.994914619570
         C           -2.457944734156    -0.061187809199    -0.621538815240    12.000000000000
         C            1.406860265844    -1.972156809199    -0.617518815240    12.000000000000
         C            1.268872265844     2.040257190801    -0.510019815240    12.000000000000
         H           -2.801804734156    -0.613832809199     0.254703184760     1.007825032230
         H           -2.220684734156    -0.748484809199    -1.435817815240     1.007825032230
         H           -3.217480734156     0.651116190801    -0.938486815240     1.007825032230
         H            2.343754265844    -1.567340809199    -0.226895815240     1.007825032230
         H            1.586340265844    -2.467953809199    -1.570154815240     1.007825032230
         H            0.975349265844    -2.667159809199     0.103616184760     1.007825032230
         H            1.527091265844     1.476772190801    -1.408921815240     1.007825032230
         H            2.115114265844     2.646000190801    -0.190296815240     1.007825032230
         H            0.399357265844     2.670498190801    -0.698766815240     1.007825032230

  Basis Set: AUG-CC-PVTZ
    Blend: AUG-CC-PVTZ
  Basis Set: (AUG-CC-PVTZ AUX)
    Blend: AUG-CC-PVTZ-JKFIT
	 Reference Energy          =    -759.3173721988603120 [Eh]
	 Singles Energy            =      -0.0000000000000000 [Eh]
	 Same-Spin Energy          =      -0.4426592444749216 [Eh]
	 Opposite-Spin Energy      =      -1.3800270993013783 [Eh]
	 Correlation Energy        =      -1.8226863437762999 [Eh]
	 Total Energy              =    -761.1400585426366661 [Eh]

	 ================> DF-SCS-MP2 Energies <==================
	-----------------------------------------------------------
	 SCS Same-Spin Scale       =       0.3333333333333333 [-]
	 SCS Opposite-Spin Scale   =       1.2000000000000000 [-]
	 SCS Same-Spin Energy      =      -0.1475530814916405 [Eh]
	 SCS Opposite-Spin Energy  =      -1.6560325191616541 [Eh]
	 SCS Correlation Energy    =      -1.8035856006532947 [Eh]
	 SCS Total Energy          =    -761.1209577995135760 [Eh]
	-----------------------------------------------------------

  Dipole Moment: [D]
     X:     0.3541      Y:     0.3127      Z:    -3.5116     Total:     3.5432

*** Psi4 exiting successfully. Buy a developer a beer!
