                               Psi4 1.3.2 release

  ==> Input File <==

--------------------------------------------------------------------------
#psi4
#
memory 32 gb

molecule  {
0 1
  P        0.0877380    -0.0630770    -0.3573080
  O        1.2658980     0.7202100     0.4017270
  O       -0.5335540    -0.9159530     0.8701820
  O       -0.9626110     1.1157580    -0.6302230
  O        0.4465310    -0.8472510    -1.5565760
  C        2.4637000    -0.0342890     0.6951100
  C       -1.6179714    -1.9515830     0.4912293
  C       -1.3164940     2.0084280     0.4478740
  H        2.9076370    -0.4029020    -0.2303870
  H        2.2294240    -0.8677130     1.3606750
  H        3.1371140     0.6611440     1.1918470
  H       -2.3893800    -1.3915170     0.0214860
  H       -1.8772340    -2.3283310     1.4531950
  H       -1.1270350    -2.6465320    -0.1425260
  H       -1.6199920     1.4414800     1.3301320
  H       -2.1494040     2.6019710     0.0764460
  H       -0.4694080     2.6502780     0.6903180
units angstrom
no_reorient  #important for SAPT in psi4, default
symmetry c1  #important for SAPT in psi4, default
}

set PROPERTIES_ORIGIN ["COM"]
properties('MP2/aug-cc-pvtz', properties = ['dipole'])
--------------------------------------------------------------------------

    Molecular point group: c1
  Charge       = 0
  Multiplicity = 1
  Basis Set: AUG-CC-PVTZ
    Blend: AUG-CC-PVTZ
  Basis Set: (AUG-CC-PVTZ AUX)
    Blend: AUG-CC-PVTZ-JKFIT

    Orbital Energies [Eh]
    ---------------------

    Doubly Occupied:

       1A    -80.093412     2A    -20.588976     3A    -20.588851
       4A    -20.583383     5A    -20.504466     6A    -11.299823
       7A    -11.293025     8A    -11.291763     9A     -7.609471
      10A     -5.507996    11A     -5.507549    12A     -5.506427
      13A     -1.438181    14A     -1.374780    15A     -1.353429
      16A     -1.285339    17A     -0.979075    18A     -0.957309
      19A     -0.947546    20A     -0.778818    21A     -0.709445
      22A     -0.701553    23A     -0.666538    24A     -0.660969
      25A     -0.646656    26A     -0.633103    27A     -0.611636
      28A     -0.602934    29A     -0.581608    30A     -0.547312
      31A     -0.527623    32A     -0.514201    33A     -0.499956
      34A     -0.491320    35A     -0.481067    36A     -0.460994
      37A     -0.453140

  @DF-RHF Final Energy:  -759.30785827818715

   => Energetics <=

    Nuclear Repulsion Energy =            546.8659584701500762
    One-Electron Energy =               -2133.7882830700164050
    Two-Electron Energy =                 827.6144663216792878
    Total Energy =                       -759.3078582781871546
  Basis Set: (AUG-CC-PVTZ AUX)
    Blend: AUG-CC-PVTZ-RI
    Molecular point group: c1

    Geometry (in Angstrom), charge = 0, multiplicity = 1:

       Center              X                  Y                   Z               Mass
    ------------   -----------------  -----------------  -----------------  -----------------
         P            0.093746913832    -0.057338437204    -0.355208274978    30.973761998420
         O            1.271906913832     0.725948562796     0.403826725022    15.994914619570
         O           -0.527545086168    -0.910214437204     0.872281725022    15.994914619570
         O           -0.956602086168     1.121496562796    -0.628123274978    15.994914619570
         O            0.452539913832    -0.841512437204    -1.554476274978    15.994914619570
         C            2.469708913832    -0.028550437204     0.697209725022    12.000000000000
         C           -1.611962486168    -1.945844437204     0.493329025022    12.000000000000
         C           -1.310485086168     2.014166562796     0.449973725022    12.000000000000
         H            2.913645913832    -0.397163437204    -0.228287274978     1.007825032230
         H            2.235432913832    -0.861974437204     1.362774725022     1.007825032230
         H            3.143122913832     0.666882562796     1.193946725022     1.007825032230
         H           -2.383371086168    -1.385778437204     0.023585725022     1.007825032230
         H           -1.871225086168    -2.322592437204     1.455294725022     1.007825032230
         H           -1.121026086168    -2.640793437204    -0.140426274978     1.007825032230
         H           -1.613983086168     1.447218562796     1.332231725022     1.007825032230
         H           -2.143395086168     2.607709562796     0.078545725022     1.007825032230
         H           -0.463399086168     2.656016562796     0.692417725022     1.007825032230

  Basis Set: AUG-CC-PVTZ
    Blend: AUG-CC-PVTZ
  Basis Set: (AUG-CC-PVTZ AUX)
    Blend: AUG-CC-PVTZ-JKFIT
	 Reference Energy          =    -759.3078582781871546 [Eh]
	 Singles Energy            =      -0.0000000000000000 [Eh]
	 Same-Spin Energy          =      -0.4437824106851563 [Eh]
	 Opposite-Spin Energy      =      -1.3835626924688964 [Eh]
	 Correlation Energy        =      -1.8273451031540526 [Eh]
	 Total Energy              =    -761.1352033813411708 [Eh]

	 ================> DF-SCS-MP2 Energies <==================
	-----------------------------------------------------------
	 SCS Same-Spin Scale       =       0.3333333333333333 [-]
	 SCS Opposite-Spin Scale   =       1.2000000000000000 [-]
	 SCS Same-Spin Energy      =      -0.1479274702283854 [Eh]
	 SCS Opposite-Spin Energy  =      -1.6602752309626756 [Eh]
	 SCS Correlation Energy    =      -1.8082027011910611 [Eh]
	 SCS Total Energy          =    -761.1160609793781759 [Eh]
	-----------------------------------------------------------

  Dipole Moment: [D]
     X:    -1.0892      Y:     0.2360      Z:     3.5471     Total:     3.7181

*** Psi4 exiting successfully. Buy a developer a beer!
