                               Psi4 1.3.2 release

  ==> Input File <==

--------------------------------------------------------------------------
#psi4
#
memory 32 gb

molecule  {
0 1
  P        0.0877380    -0.0630770    -0.3573080
  O        1.2658980     0.7202100     0.4017270
  O       -0.5335540    -0.9159530     0.8701820
  O       -0.9632751     1.1085792    -0.6572428
  O        0.4307619    -0.8325009    -1.5706614
  C        2.4637000    -0.0342890     0.6951100
  C       -1.5478570    -1.8846230     0.5157310
  C       -1.3164940     2.0084280     0.4478740
  H        2.9076370    -0.4029020    -0.2303870
  H        2.2294240    -0.8677130     1.3606750
  H        3.1371140     0.6611440     1.1918470
  H       -2.3893800    -1.3915170     0.0214860
  H       -1.8772340    -2.3283310     1.4531950
  H       -1.1270350    -2.6465320    -0.1425260
  H       -1.6199920     1.4414800     1.3301320
  H       -2.1494040     2.6019710     0.0764460
  H       -0.4694080     2.6502780     0.6903180
units angstrom
no_reorient  #important for SAPT in psi4, default
symmetry c1  #important for SAPT in psi4, default
}

set PROPERTIES_ORIGIN ["COM"]
properties('MP2/aug-cc-pvtz', properties = ['dipole'])
--------------------------------------------------------------------------

    Molecular point group: c1
  Charge       = 0
  Multiplicity = 1
  Basis Set: AUG-CC-PVTZ
    Blend: AUG-CC-PVTZ
  Basis Set: (AUG-CC-PVTZ AUX)
    Blend: AUG-CC-PVTZ-JKFIT

    Orbital Energies [Eh]
    ---------------------

    Doubly Occupied:

       1A    -80.097869     2A    -20.594210     3A    -20.593903
       4A    -20.592445     5A    -20.505825     6A    -11.297719
       7A    -11.295449     8A    -11.295420     9A     -7.614096
      10A     -5.512498    11A     -5.512222    12A     -5.511028
      13A     -1.445490    14A     -1.378914    15A     -1.373770
      16A     -1.287845    17A     -0.977928    18A     -0.954719
      19A     -0.947604    20A     -0.785357    21A     -0.713341
      22A     -0.710146    23A     -0.672068    24A     -0.662008
      25A     -0.647535    26A     -0.628037    27A     -0.618238
      28A     -0.613300    29A     -0.580510    30A     -0.541783
      31A     -0.530486    32A     -0.516860    33A     -0.499105
      34A     -0.491858    35A     -0.485912    36A     -0.461667
      37A     -0.456357

  @DF-RHF Final Energy:  -759.31472666532477

   => Energetics <=

    Nuclear Repulsion Energy =            548.5854877423151947
    One-Electron Energy =               -2136.9933822114317081
    Two-Electron Energy =                 829.0931678037916299
    Total Energy =                       -759.3147266653247698
  Basis Set: (AUG-CC-PVTZ AUX)
    Blend: AUG-CC-PVTZ-RI
    Molecular point group: c1

    Geometry (in Angstrom), charge = 0, multiplicity = 1:

       Center              X                  Y                   Z               Mass
    ------------   -----------------  -----------------  -----------------  -----------------
         P            0.089615294922    -0.063941757459    -0.352612618771    30.973761998420
         O            1.267775294922     0.719345242541     0.406422381229    15.994914619570
         O           -0.531676705078    -0.916817757459     0.874877381229    15.994914619570
         O           -0.961397805078     1.107714442541    -0.652547418771    15.994914619570
         O            0.432639194922    -0.833365657459    -1.565966018771    15.994914619570
         C            2.465577294922    -0.035153757459     0.699805381229    12.000000000000
         C           -1.545979705078    -1.885487757459     0.520426381229    12.000000000000
         C           -1.314616705078     2.007563242541     0.452569381229    12.000000000000
         H            2.909514294922    -0.403766757459    -0.225691618771     1.007825032230
         H            2.231301294922    -0.868577757459     1.365370381229     1.007825032230
         H            3.138991294922     0.660279242541     1.196542381229     1.007825032230
         H           -2.387502705078    -1.392381757459     0.026181381229     1.007825032230
         H           -1.875356705078    -2.329195757459     1.457890381229     1.007825032230
         H           -1.125157705078    -2.647396757459    -0.137830618771     1.007825032230
         H           -1.618114705078     1.440615242541     1.334827381229     1.007825032230
         H           -2.147526705078     2.601106242541     0.081141381229     1.007825032230
         H           -0.467530705078     2.649413242541     0.695013381229     1.007825032230

  Basis Set: AUG-CC-PVTZ
    Blend: AUG-CC-PVTZ
  Basis Set: (AUG-CC-PVTZ AUX)
    Blend: AUG-CC-PVTZ-JKFIT
	 Reference Energy          =    -759.3147266653247698 [Eh]
	 Singles Energy            =      -0.0000000000000000 [Eh]
	 Same-Spin Energy          =      -0.4438108231175484 [Eh]
	 Opposite-Spin Energy      =      -1.3829610066509275 [Eh]
	 Correlation Energy        =      -1.8267718297684759 [Eh]
	 Total Energy              =    -761.1414984950932876 [Eh]

	 ================> DF-SCS-MP2 Energies <==================
	-----------------------------------------------------------
	 SCS Same-Spin Scale       =       0.3333333333333333 [-]
	 SCS Opposite-Spin Scale   =       1.2000000000000000 [-]
	 SCS Same-Spin Energy      =      -0.1479369410391828 [Eh]
	 SCS Opposite-Spin Energy  =      -1.6595532079811128 [Eh]
	 SCS Correlation Energy    =      -1.8074901490202957 [Eh]
	 SCS Total Energy          =    -761.1222168143450517 [Eh]
	-----------------------------------------------------------

  Dipole Moment: [D]
     X:    -0.7715      Y:     0.5641      Z:     3.6788     Total:     3.8009

*** Psi4 exiting successfully. Buy a developer a beer!
