                               Psi4 1.3.2 release

  ==> Input File <==

--------------------------------------------------------------------------
#psi4
#
memory 32 gb

molecule  {
0 1
  P        0.0877380    -0.0630770    -0.3573080
  O        1.1191354     0.6226365     0.3071746
  O       -0.5335540    -0.9159530     0.8701820
  O       -0.9626110     1.1157580    -0.6302230
  O        0.4465310    -0.8472510    -1.5565760
  C        2.4637000    -0.0342890     0.6951100
  C       -1.5478570    -1.8846230     0.5157310
  C       -1.3164940     2.0084280     0.4478740
  H        2.9076370    -0.4029020    -0.2303870
  H        2.2294240    -0.8677130     1.3606750
  H        3.1371140     0.6611440     1.1918470
  H       -2.3893800    -1.3915170     0.0214860
  H       -1.8772340    -2.3283310     1.4531950
  H       -1.1270350    -2.6465320    -0.1425260
  H       -1.6199920     1.4414800     1.3301320
  H       -2.1494040     2.6019710     0.0764460
  H       -0.4694080     2.6502780     0.6903180
units angstrom
no_reorient  #important for SAPT in psi4, default
symmetry c1  #important for SAPT in psi4, default
}

set PROPERTIES_ORIGIN ["COM"]
properties('MP2/aug-cc-pvtz', properties = ['dipole'])
--------------------------------------------------------------------------

    Molecular point group: c1
  Charge       = 0
  Multiplicity = 1
  Basis Set: AUG-CC-PVTZ
    Blend: AUG-CC-PVTZ
  Basis Set: (AUG-CC-PVTZ AUX)
    Blend: AUG-CC-PVTZ-JKFIT

    Orbital Energies [Eh]
    ---------------------

    Doubly Occupied:

       1A    -80.062876     2A    -20.591646     3A    -20.576828
       4A    -20.574072     5A    -20.486878     6A    -11.329461
       7A    -11.287913     8A    -11.284180     9A     -7.586507
      10A     -5.486513    11A     -5.483673    12A     -5.482473
      13A     -1.480190    14A     -1.379640    15A     -1.364103
      16A     -1.271830    17A     -0.999607    18A     -0.950335
      19A     -0.943773    20A     -0.780448    21A     -0.719442
      22A     -0.716384    23A     -0.682162    24A     -0.658062
      25A     -0.647271    26A     -0.624455    27A     -0.618320
      28A     -0.611598    29A     -0.580071    30A     -0.544860
      31A     -0.540116    32A     -0.517444    33A     -0.499916
      34A     -0.484998    35A     -0.472579    36A     -0.448392
      37A     -0.442448

  @DF-RHF Final Energy:  -759.28411590043197

   => Energetics <=

    Nuclear Repulsion Energy =            556.6958401711232227
    One-Electron Energy =               -2153.5369882080995012
    Two-Electron Energy =                 837.5570321365444215
    Total Energy =                       -759.2841159004319707
  Basis Set: (AUG-CC-PVTZ AUX)
    Blend: AUG-CC-PVTZ-RI
    Molecular point group: c1

    Geometry (in Angstrom), charge = 0, multiplicity = 1:

       Center              X                  Y                   Z               Mass
    ------------   -----------------  -----------------  -----------------  -----------------
         P            0.104502813644    -0.051931073926    -0.346507348658    30.973761998420
         O            1.135900213644     0.633782426074     0.317975251342    15.994914619570
         O           -0.516789186356    -0.904807073926     0.880982651342    15.994914619570
         O           -0.945846186356     1.126903926074    -0.619422348658    15.994914619570
         O            0.463295813644    -0.836105073926    -1.545775348658    15.994914619570
         C            2.480464813644    -0.023143073926     0.705910651342    12.000000000000
         C           -1.531092186356    -1.873477073926     0.526531651342    12.000000000000
         C           -1.299729186356     2.019573926074     0.458674651342    12.000000000000
         H            2.924401813644    -0.391756073926    -0.219586348658     1.007825032230
         H            2.246188813644    -0.856567073926     1.371475651342     1.007825032230
         H            3.153878813644     0.672289926074     1.202647651342     1.007825032230
         H           -2.372615186356    -1.380371073926     0.032286651342     1.007825032230
         H           -1.860469186356    -2.317185073926     1.463995651342     1.007825032230
         H           -1.110270186356    -2.635386073926    -0.131725348658     1.007825032230
         H           -1.603227186356     1.452625926074     1.340932651342     1.007825032230
         H           -2.132639186356     2.613116926074     0.087246651342     1.007825032230
         H           -0.452643186356     2.661423926074     0.701118651342     1.007825032230

  Basis Set: AUG-CC-PVTZ
    Blend: AUG-CC-PVTZ
  Basis Set: (AUG-CC-PVTZ AUX)
    Blend: AUG-CC-PVTZ-JKFIT
	 Reference Energy          =    -759.2841159004319707 [Eh]
	 Singles Energy            =      -0.0000000000000000 [Eh]
	 Same-Spin Energy          =      -0.4417558838809371 [Eh]
	 Opposite-Spin Energy      =      -1.3774219205013079 [Eh]
	 Correlation Energy        =      -1.8191778043822449 [Eh]
	 Total Energy              =    -761.1032937048141775 [Eh]

	 ================> DF-SCS-MP2 Energies <==================
	-----------------------------------------------------------
	 SCS Same-Spin Scale       =       0.3333333333333333 [-]
	 SCS Opposite-Spin Scale   =       1.2000000000000000 [-]
	 SCS Same-Spin Energy      =      -0.1472519612936457 [Eh]
	 SCS Opposite-Spin Energy  =      -1.6529063046015693 [Eh]
	 SCS Correlation Energy    =      -1.8001582658952149 [Eh]
	 SCS Total Energy          =    -761.0842741663271909 [Eh]
	-----------------------------------------------------------

  Dipole Moment: [D]
     X:     0.6892      Y:     0.8697      Z:     4.1658     Total:     4.3111

*** Psi4 exiting successfully. Buy a developer a beer!
