                               Psi4 1.3.2 release

  ==> Input File <==

--------------------------------------------------------------------------
#psi4
#
memory 32 gb

molecule  {
0 1
  P        0.0877380    -0.0630770    -0.3573080
  O        1.2658980     0.7202100     0.4017270
  O       -0.5335540    -0.9159530     0.8701820
  O       -0.9626110     1.1157580    -0.6302230
  O        0.3979512    -0.7410755    -1.3941976
  C        2.4637000    -0.0342890     0.6951100
  C       -1.5478570    -1.8846230     0.5157310
  C       -1.3164940     2.0084280     0.4478740
  H        2.9076370    -0.4029020    -0.2303870
  H        2.2294240    -0.8677130     1.3606750
  H        3.1371140     0.6611440     1.1918470
  H       -2.3893800    -1.3915170     0.0214860
  H       -1.8772340    -2.3283310     1.4531950
  H       -1.1270350    -2.6465320    -0.1425260
  H       -1.6199920     1.4414800     1.3301320
  H       -2.1494040     2.6019710     0.0764460
  H       -0.4694080     2.6502780     0.6903180
units angstrom
no_reorient  #important for SAPT in psi4, default
symmetry c1  #important for SAPT in psi4, default
}

set PROPERTIES_ORIGIN ["COM"]
properties('MP2/aug-cc-pvtz', properties = ['dipole'])
--------------------------------------------------------------------------

    Molecular point group: c1
  Charge       = 0
  Multiplicity = 1
  Basis Set: AUG-CC-PVTZ
    Blend: AUG-CC-PVTZ
  Basis Set: (AUG-CC-PVTZ AUX)
    Blend: AUG-CC-PVTZ-JKFIT

    Orbital Energies [Eh]
    ---------------------

    Doubly Occupied:

       1A    -80.050449     2A    -20.579578     3A    -20.578891
       4A    -20.578817     5A    -20.499321     6A    -11.291074
       7A    -11.290316     8A    -11.287204     9A     -7.582844
      10A     -5.483638    11A     -5.478420    12A     -5.478114
      13A     -1.461825    14A     -1.369512    15A     -1.367481
      16A     -1.365385    17A     -0.969948    18A     -0.947164
      19A     -0.941334    20A     -0.772869    21A     -0.714514
      22A     -0.711670    23A     -0.663926    24A     -0.658040
      25A     -0.644104    26A     -0.624772    27A     -0.611657
      28A     -0.608161    29A     -0.606337    30A     -0.557293
      31A     -0.538837    32A     -0.526119    33A     -0.499816
      34A     -0.492973    35A     -0.488973    36A     -0.475121
      37A     -0.471431

  @DF-RHF Final Energy:  -759.26466675589438

   => Energetics <=

    Nuclear Repulsion Energy =            559.5817382279606136
    One-Electron Energy =               -2159.1569517626285233
    Two-Electron Energy =                 840.3105467787735279
    Total Energy =                       -759.2646667558943818
  Basis Set: (AUG-CC-PVTZ AUX)
    Blend: AUG-CC-PVTZ-RI
    Molecular point group: c1

    Geometry (in Angstrom), charge = 0, multiplicity = 1:

       Center              X                  Y                   Z               Mass
    ------------   -----------------  -----------------  -----------------  -----------------
         P            0.093287398908    -0.075205308689    -0.375856536910    30.973761998420
         O            1.271447398908     0.708081691311     0.383178463090    15.994914619570
         O           -0.528004601092    -0.928081308689     0.851633463090    15.994914619570
         O           -0.957061601092     1.103629691311    -0.648771536910    15.994914619570
         O            0.403500598908    -0.753203808689    -1.412746136910    15.994914619570
         C            2.469249398908    -0.046417308689     0.676561463090    12.000000000000
         C           -1.542307601092    -1.896751308689     0.497182463090    12.000000000000
         C           -1.310944601092     1.996299691311     0.429325463090    12.000000000000
         H            2.913186398908    -0.415030308689    -0.248935536910     1.007825032230
         H            2.234973398908    -0.879841308689     1.342126463090     1.007825032230
         H            3.142663398908     0.649015691311     1.173298463090     1.007825032230
         H           -2.383830601092    -1.403645308689     0.002937463090     1.007825032230
         H           -1.871684601092    -2.340459308689     1.434646463090     1.007825032230
         H           -1.121485601092    -2.658660308689    -0.161074536910     1.007825032230
         H           -1.614442601092     1.429351691311     1.311583463090     1.007825032230
         H           -2.143854601092     2.589842691311     0.057897463090     1.007825032230
         H           -0.463858601092     2.638149691311     0.671769463090     1.007825032230

  Basis Set: AUG-CC-PVTZ
    Blend: AUG-CC-PVTZ
  Basis Set: (AUG-CC-PVTZ AUX)
    Blend: AUG-CC-PVTZ-JKFIT
	 Reference Energy          =    -759.2646667558943818 [Eh]
	 Singles Energy            =      -0.0000000000000000 [Eh]
	 Same-Spin Energy          =      -0.4389528665758222 [Eh]
	 Opposite-Spin Energy      =      -1.3714292038090425 [Eh]
	 Correlation Energy        =      -1.8103820703848648 [Eh]
	 Total Energy              =    -761.0750488262792715 [Eh]

	 ================> DF-SCS-MP2 Energies <==================
	-----------------------------------------------------------
	 SCS Same-Spin Scale       =       0.3333333333333333 [-]
	 SCS Opposite-Spin Scale   =       1.2000000000000000 [-]
	 SCS Same-Spin Energy      =      -0.1463176221919407 [Eh]
	 SCS Opposite-Spin Energy  =      -1.6457150445708510 [Eh]
	 SCS Correlation Energy    =      -1.7920326667627917 [Eh]
	 SCS Total Energy          =    -761.0566994226571751 [Eh]
	-----------------------------------------------------------

  Dipole Moment: [D]
     X:    -0.5477      Y:     0.0651      Z:     2.7222     Total:     2.7775

*** Psi4 exiting successfully. Buy a developer a beer!
