                               Psi4 1.3.2 release

  ==> Input File <==

--------------------------------------------------------------------------
#psi4
#
memory 32 gb

molecule  {
0 1
  P        0.0877380    -0.0630770    -0.3573080
  O        1.2658980     0.7202100     0.4017270
  O       -0.5335540    -0.9159530     0.8701820
  O       -0.9621589     1.1192129    -0.6166814
  O        0.4543749    -0.8545367    -1.5493960
  C        2.4637000    -0.0342890     0.6951100
  C       -1.5478570    -1.8846230     0.5157310
  C       -1.3164940     2.0084280     0.4478740
  H        2.9076370    -0.4029020    -0.2303870
  H        2.2294240    -0.8677130     1.3606750
  H        3.1371140     0.6611440     1.1918470
  H       -2.3893800    -1.3915170     0.0214860
  H       -1.8772340    -2.3283310     1.4531950
  H       -1.1270350    -2.6465320    -0.1425260
  H       -1.6199920     1.4414800     1.3301320
  H       -2.1494040     2.6019710     0.0764460
  H       -0.4694080     2.6502780     0.6903180
units angstrom
no_reorient  #important for SAPT in psi4, default
symmetry c1  #important for SAPT in psi4, default
}

set PROPERTIES_ORIGIN ["COM"]
properties('MP2/aug-cc-pvtz', properties = ['dipole'])
--------------------------------------------------------------------------

    Molecular point group: c1
  Charge       = 0
  Multiplicity = 1
  Basis Set: AUG-CC-PVTZ
    Blend: AUG-CC-PVTZ
  Basis Set: (AUG-CC-PVTZ AUX)
    Blend: AUG-CC-PVTZ-JKFIT

    Orbital Energies [Eh]
    ---------------------

    Doubly Occupied:

       1A    -80.100101     2A    -20.592759     3A    -20.592737
       4A    -20.592710     5A    -20.509763     6A    -11.295192
       7A    -11.294412     8A    -11.294378     9A     -7.616153
      10A     -5.514642    11A     -5.514312    12A     -5.513042
      13A     -1.448289    14A     -1.380745    15A     -1.377976
      16A     -1.291469    17A     -0.979657    18A     -0.954366
      19A     -0.946902    20A     -0.786122    21A     -0.714969
      22A     -0.712302    23A     -0.673755    24A     -0.664276
      25A     -0.650166    26A     -0.631432    27A     -0.617602
      28A     -0.614620    29A     -0.584076    30A     -0.540241
      31A     -0.528654    32A     -0.515525    33A     -0.497665
      34A     -0.491053    35A     -0.483602    36A     -0.465304
      37A     -0.458620

  @DF-RHF Final Energy:  -759.31630462582439

   => Energetics <=

    Nuclear Repulsion Energy =            549.2947844020600314
    One-Electron Energy =               -2138.3429973236293336
    Two-Electron Energy =                 829.7319082957449154
    Total Energy =                       -759.3163046258243867
  Basis Set: (AUG-CC-PVTZ AUX)
    Blend: AUG-CC-PVTZ-RI
    Molecular point group: c1

    Geometry (in Angstrom), charge = 0, multiplicity = 1:

       Center              X                  Y                   Z               Mass
    ------------   -----------------  -----------------  -----------------  -----------------
         P            0.086790480045    -0.062639296332    -0.359675090036    30.973761998420
         O            1.264950480045     0.720647703668     0.399359909964    15.994914619570
         O           -0.534501519955    -0.915515296332     0.867814909964    15.994914619570
         O           -0.963106419955     1.119650603668    -0.619048490036    15.994914619570
         O            0.453427380045    -0.854098996332    -1.551763090036    15.994914619570
         C            2.462752480045    -0.033851296332     0.692742909964    12.000000000000
         C           -1.548804519955    -1.884185296332     0.513363909964    12.000000000000
         C           -1.317441519955     2.008865703668     0.445506909964    12.000000000000
         H            2.906689480045    -0.402464296332    -0.232754090036     1.007825032230
         H            2.228476480045    -0.867275296332     1.358307909964     1.007825032230
         H            3.136166480045     0.661581703668     1.189479909964     1.007825032230
         H           -2.390327519955    -1.391079296332     0.019118909964     1.007825032230
         H           -1.878181519955    -2.327893296332     1.450827909964     1.007825032230
         H           -1.127982519955    -2.646094296332    -0.144893090036     1.007825032230
         H           -1.620939519955     1.441917703668     1.327764909964     1.007825032230
         H           -2.150351519955     2.602408703668     0.074078909964     1.007825032230
         H           -0.470355519955     2.650715703668     0.687950909964     1.007825032230

  Basis Set: AUG-CC-PVTZ
    Blend: AUG-CC-PVTZ
  Basis Set: (AUG-CC-PVTZ AUX)
    Blend: AUG-CC-PVTZ-JKFIT
	 Reference Energy          =    -759.3163046258243867 [Eh]
	 Singles Energy            =      -0.0000000000000000 [Eh]
	 Same-Spin Energy          =      -0.4436660906103445 [Eh]
	 Opposite-Spin Energy      =      -1.3821328935209367 [Eh]
	 Correlation Energy        =      -1.8257989841312812 [Eh]
	 Total Energy              =    -761.1421036099557114 [Eh]

	 ================> DF-SCS-MP2 Energies <==================
	-----------------------------------------------------------
	 SCS Same-Spin Scale       =       0.3333333333333333 [-]
	 SCS Opposite-Spin Scale   =       1.2000000000000000 [-]
	 SCS Same-Spin Energy      =      -0.1478886968701148 [Eh]
	 SCS Opposite-Spin Energy  =      -1.6585594722251240 [Eh]
	 SCS Correlation Energy    =      -1.8064481690952388 [Eh]
	 SCS Total Energy          =    -761.1227527949196201 [Eh]
	-----------------------------------------------------------

  Dipole Moment: [D]
     X:    -0.7980      Y:     0.5352      Z:     3.4743     Total:     3.6047

*** Psi4 exiting successfully. Buy a developer a beer!
