                               Psi4 1.3.2 release

  ==> Input File <==

--------------------------------------------------------------------------
#psi4
#
memory 32 gb

molecule  {
0 1
  P        0.0877380    -0.0630770    -0.3573080
  O        1.2658980     0.7202100     0.4017270
  O       -0.5265173    -0.9252054     0.8751065
  O       -0.9626110     1.1157580    -0.6302230
  O        0.4465310    -0.8472510    -1.5565760
  C        2.4637000    -0.0342890     0.6951100
  C       -1.5478570    -1.8846230     0.5157310
  C       -1.3164940     2.0084280     0.4478740
  H        2.9076370    -0.4029020    -0.2303870
  H        2.2294240    -0.8677130     1.3606750
  H        3.1371140     0.6611440     1.1918470
  H       -2.3937559    -1.3999514     0.0206137
  H       -1.8772340    -2.3283310     1.4531950
  H       -1.1270350    -2.6465320    -0.1425260
  H       -1.6199920     1.4414800     1.3301320
  H       -2.1494040     2.6019710     0.0764460
  H       -0.4694080     2.6502780     0.6903180
units angstrom
no_reorient  #important for SAPT in psi4, default
symmetry c1  #important for SAPT in psi4, default
}

set PROPERTIES_ORIGIN ["COM"]
properties('MP2/aug-cc-pvtz', properties = ['dipole'])
--------------------------------------------------------------------------

    Molecular point group: c1
  Charge       = 0
  Multiplicity = 1
  Basis Set: AUG-CC-PVTZ
    Blend: AUG-CC-PVTZ
  Basis Set: (AUG-CC-PVTZ AUX)
    Blend: AUG-CC-PVTZ-JKFIT

    Orbital Energies [Eh]
    ---------------------

    Doubly Occupied:

       1A    -80.100008     2A    -20.593664     3A    -20.593494
       4A    -20.593260     5A    -20.508642     6A    -11.295996
       7A    -11.294703     8A    -11.294695     9A     -7.616022
      10A     -5.514488    11A     -5.514152    12A     -5.512922
      13A     -1.446794    14A     -1.379045    15A     -1.377447
      16A     -1.290449    17A     -0.978711    18A     -0.954660
      19A     -0.946815    20A     -0.786128    21A     -0.714077
      22A     -0.711631    23A     -0.672952    24A     -0.663226
      25A     -0.649282    26A     -0.630545    27A     -0.616853
      28A     -0.614415    29A     -0.582994    30A     -0.540810
      31A     -0.529516    32A     -0.516090    33A     -0.498139
      34A     -0.490887    35A     -0.485134    36A     -0.464242
      37A     -0.457877

  @DF-RHF Final Energy:  -759.31556482735027

   => Energetics <=

    Nuclear Repulsion Energy =            548.7776328346698165
    One-Electron Energy =               -2137.3248597666447495
    Two-Electron Energy =                 829.2316621046245473
    Total Energy =                       -759.3155648273502720
  Basis Set: (AUG-CC-PVTZ AUX)
    Blend: AUG-CC-PVTZ-RI
    Molecular point group: c1

    Geometry (in Angstrom), charge = 0, multiplicity = 1:

       Center              X                  Y                   Z               Mass
    ------------   -----------------  -----------------  -----------------  -----------------
         P            0.086965825447    -0.061959280525    -0.357864309950    30.973761998420
         O            1.265125825447     0.721327719475     0.401170690050    15.994914619570
         O           -0.527289474553    -0.924087680525     0.874550190050    15.994914619570
         O           -0.963383174553     1.116875719475    -0.630779309950    15.994914619570
         O            0.445758825447    -0.846133280525    -1.557132309950    15.994914619570
         C            2.462927825447    -0.033171280525     0.694553690050    12.000000000000
         C           -1.548629174553    -1.883505280525     0.515174690050    12.000000000000
         C           -1.317266174553     2.009545719475     0.447317690050    12.000000000000
         H            2.906864825447    -0.401784280525    -0.230943309950     1.007825032230
         H            2.228651825447    -0.866595280525     1.360118690050     1.007825032230
         H            3.136341825447     0.662261719475     1.191290690050     1.007825032230
         H           -2.394528074553    -1.398833680525     0.020057390050     1.007825032230
         H           -1.878006174553    -2.327213280525     1.452638690050     1.007825032230
         H           -1.127807174553    -2.645414280525    -0.143082309950     1.007825032230
         H           -1.620764174553     1.442597719475     1.329575690050     1.007825032230
         H           -2.150176174553     2.603088719475     0.075889690050     1.007825032230
         H           -0.470180174553     2.651395719475     0.689761690050     1.007825032230

  Basis Set: AUG-CC-PVTZ
    Blend: AUG-CC-PVTZ
  Basis Set: (AUG-CC-PVTZ AUX)
    Blend: AUG-CC-PVTZ-JKFIT
	 Reference Energy          =    -759.3155648273502720 [Eh]
	 Singles Energy            =      -0.0000000000000000 [Eh]
	 Same-Spin Energy          =      -0.4437829974311679 [Eh]
	 Opposite-Spin Energy      =      -1.3826183467411450 [Eh]
	 Correlation Energy        =      -1.8264013441723130 [Eh]
	 Total Energy              =    -761.1419661715225402 [Eh]

	 ================> DF-SCS-MP2 Energies <==================
	-----------------------------------------------------------
	 SCS Same-Spin Scale       =       0.3333333333333333 [-]
	 SCS Opposite-Spin Scale   =       1.2000000000000000 [-]
	 SCS Same-Spin Energy      =      -0.1479276658103893 [Eh]
	 SCS Opposite-Spin Energy  =      -1.6591420160893739 [Eh]
	 SCS Correlation Energy    =      -1.8070696818997631 [Eh]
	 SCS Total Energy          =    -761.1226345092500196 [Eh]
	-----------------------------------------------------------

  Dipole Moment: [D]
     X:    -0.7959      Y:     0.5872      Z:     3.5242     Total:     3.6603

*** Psi4 exiting successfully. Buy a developer a beer!
