                               Psi4 1.3.2 release

  ==> Input File <==

--------------------------------------------------------------------------
#psi4
#
memory 32 gb

molecule  {
0 1
  P        0.0877380    -0.0630770    -0.3573080
  O        1.2658980     0.7202100     0.4017270
  O       -0.5335540    -0.9159530     0.8701820
  O       -0.9600406     1.1256931    -0.6375320
  O        0.4465310    -0.8472510    -1.5565760
  C        2.4637000    -0.0342890     0.6951100
  C       -1.5478570    -1.8846230     0.5157310
  C       -1.3164940     2.0084280     0.4478740
  H        2.9076370    -0.4029020    -0.2303870
  H        2.2294240    -0.8677130     1.3606750
  H        3.1371140     0.6611440     1.1918470
  H       -2.3893800    -1.3915170     0.0214860
  H       -1.8772340    -2.3283310     1.4531950
  H       -1.1270350    -2.6465320    -0.1425260
  H       -1.6214827     1.4496429     1.3348133
  H       -2.1494040     2.6019710     0.0764460
  H       -0.4694080     2.6502780     0.6903180
units angstrom
no_reorient  #important for SAPT in psi4, default
symmetry c1  #important for SAPT in psi4, default
}

set PROPERTIES_ORIGIN ["COM"]
properties('MP2/aug-cc-pvtz', properties = ['dipole'])
--------------------------------------------------------------------------

    Molecular point group: c1
  Charge       = 0
  Multiplicity = 1
  Basis Set: AUG-CC-PVTZ
    Blend: AUG-CC-PVTZ
  Basis Set: (AUG-CC-PVTZ AUX)
    Blend: AUG-CC-PVTZ-JKFIT

    Orbital Energies [Eh]
    ---------------------

    Doubly Occupied:

       1A    -80.100142     2A    -20.594247     3A    -20.593293
       4A    -20.592939     5A    -20.508793     6A    -11.295735
       7A    -11.294865     8A    -11.294830     9A     -7.616133
      10A     -5.514574    11A     -5.514270    12A     -5.513048
      13A     -1.446644    14A     -1.378772    15A     -1.377612
      16A     -1.290586    17A     -0.978838    18A     -0.953872
      19A     -0.947337    20A     -0.786110    21A     -0.714096
      22A     -0.711667    23A     -0.672793    24A     -0.663190
      25A     -0.649215    26A     -0.629657    27A     -0.618252
      28A     -0.614150    29A     -0.583135    30A     -0.540766
      31A     -0.528934    32A     -0.516410    33A     -0.498287
      34A     -0.491453    35A     -0.484144    36A     -0.464376
      37A     -0.458276

  @DF-RHF Final Energy:  -759.31549184768483

   => Energetics <=

    Nuclear Repulsion Energy =            548.7177925168726915
    One-Electron Energy =               -2137.2036880789778479
    Two-Electron Energy =                 829.1704037144204449
    Total Energy =                       -759.3154918476848252
  Basis Set: (AUG-CC-PVTZ AUX)
    Blend: AUG-CC-PVTZ-RI
    Molecular point group: c1

    Geometry (in Angstrom), charge = 0, multiplicity = 1:

       Center              X                  Y                   Z               Mass
    ------------   -----------------  -----------------  -----------------  -----------------
         P            0.087455244303    -0.064270526848    -0.356506850227    30.973761998420
         O            1.265615244303     0.719016473152     0.402528149773    15.994914619570
         O           -0.533836755697    -0.917146526848     0.870983149773    15.994914619570
         O           -0.960323355697     1.124499573152    -0.636730850227    15.994914619570
         O            0.446248244303    -0.848444526848    -1.555774850227    15.994914619570
         C            2.463417244303    -0.035482526848     0.695911149773    12.000000000000
         C           -1.548139755697    -1.885816526848     0.516532149773    12.000000000000
         C           -1.316776755697     2.007234473152     0.448675149773    12.000000000000
         H            2.907354244303    -0.404095526848    -0.229585850227     1.007825032230
         H            2.229141244303    -0.868906526848     1.361476149773     1.007825032230
         H            3.136831244303     0.659950473152     1.192648149773     1.007825032230
         H           -2.389662755697    -1.392710526848     0.022287149773     1.007825032230
         H           -1.877516755697    -2.329524526848     1.453996149773     1.007825032230
         H           -1.127317755697    -2.647725526848    -0.141724850227     1.007825032230
         H           -1.621765455697     1.448449373152     1.335614449773     1.007825032230
         H           -2.149686755697     2.600777473152     0.077247149773     1.007825032230
         H           -0.469690755697     2.649084473152     0.691119149773     1.007825032230

  Basis Set: AUG-CC-PVTZ
    Blend: AUG-CC-PVTZ
  Basis Set: (AUG-CC-PVTZ AUX)
    Blend: AUG-CC-PVTZ-JKFIT
	 Reference Energy          =    -759.3154918476848252 [Eh]
	 Singles Energy            =      -0.0000000000000000 [Eh]
	 Same-Spin Energy          =      -0.4437892303753943 [Eh]
	 Opposite-Spin Energy      =      -1.3826500128748951 [Eh]
	 Correlation Energy        =      -1.8264392432502894 [Eh]
	 Total Energy              =    -761.1419310909351452 [Eh]

	 ================> DF-SCS-MP2 Energies <==================
	-----------------------------------------------------------
	 SCS Same-Spin Scale       =       0.3333333333333333 [-]
	 SCS Opposite-Spin Scale   =       1.2000000000000000 [-]
	 SCS Same-Spin Energy      =      -0.1479297434584648 [Eh]
	 SCS Opposite-Spin Energy  =      -1.6591800154498741 [Eh]
	 SCS Correlation Energy    =      -1.8071097589083389 [Eh]
	 SCS Total Energy          =    -761.1226016065932072 [Eh]
	-----------------------------------------------------------

  Dipole Moment: [D]
     X:    -0.7835      Y:     0.4976      Z:     3.5595     Total:     3.6785

*** Psi4 exiting successfully. Buy a developer a beer!
