                               Psi4 1.3.2 release

  ==> Input File <==

--------------------------------------------------------------------------
#psi4
#
memory 32 gb

molecule  {
0 1
  P        0.0877380    -0.0630770    -0.3573080
  O        1.2658980     0.7202100     0.4017270
  O       -0.5335540    -0.9159530     0.8701820
  O       -0.9785924     1.0576011    -0.5846650
  O        0.4465310    -0.8472510    -1.5565760
  C        2.4637000    -0.0342890     0.6951100
  C       -1.5478570    -1.8846230     0.5157310
  C       -1.3164940     2.0084280     0.4478740
  H        2.9076370    -0.4029020    -0.2303870
  H        2.2294240    -0.8677130     1.3606750
  H        3.1371140     0.6611440     1.1918470
  H       -2.3893800    -1.3915170     0.0214860
  H       -1.8772340    -2.3283310     1.4531950
  H       -1.1270350    -2.6465320    -0.1425260
  H       -1.6105665     1.3934309     1.3006461
  H       -2.1494040     2.6019710     0.0764460
  H       -0.4694080     2.6502780     0.6903180
units angstrom
no_reorient  #important for SAPT in psi4, default
symmetry c1  #important for SAPT in psi4, default
}

set PROPERTIES_ORIGIN ["COM"]
properties('MP2/aug-cc-pvtz', properties = ['dipole'])
--------------------------------------------------------------------------

    Molecular point group: c1
  Charge       = 0
  Multiplicity = 1
  Basis Set: AUG-CC-PVTZ
    Blend: AUG-CC-PVTZ
  Basis Set: (AUG-CC-PVTZ AUX)
    Blend: AUG-CC-PVTZ-JKFIT

    Orbital Energies [Eh]
    ---------------------

    Doubly Occupied:

       1A    -80.094566     2A    -20.592127     3A    -20.590961
       4A    -20.587076     5A    -20.506592     6A    -11.299557
       7A    -11.293962     8A    -11.292499     9A     -7.611459
      10A     -5.510078    11A     -5.509617    12A     -5.508289
      13A     -1.451845    14A     -1.382942    15A     -1.374762
      16A     -1.288690    17A     -0.981173    18A     -0.957511
      19A     -0.945513    20A     -0.784367    21A     -0.715673
      22A     -0.711872    23A     -0.676649    24A     -0.664951
      25A     -0.649868    26A     -0.632207    27A     -0.615222
      28A     -0.614426    29A     -0.581884    30A     -0.540183
      31A     -0.531375    32A     -0.514605    33A     -0.496969
      34A     -0.491320    35A     -0.484300    36A     -0.462402
      37A     -0.455598

  @DF-RHF Final Energy:  -759.31608444402809

   => Energetics <=

    Nuclear Repulsion Energy =            551.0277110496815567
    One-Electron Energy =               -2141.8814100524700734
    Two-Electron Energy =                 831.5376145587604242
    Total Energy =                       -759.3160844440280925
  Basis Set: (AUG-CC-PVTZ AUX)
    Blend: AUG-CC-PVTZ-RI
    Molecular point group: c1

    Geometry (in Angstrom), charge = 0, multiplicity = 1:

       Center              X                  Y                   Z               Mass
    ------------   -----------------  -----------------  -----------------  -----------------
         P            0.089495845572    -0.056087794966    -0.362299924880    30.973761998420
         O            1.267655845572     0.727199205034     0.396735075120    15.994914619570
         O           -0.531796154428    -0.908963794966     0.865190075120    15.994914619570
         O           -0.976834554428     1.064590305034    -0.589656924880    15.994914619570
         O            0.448288845572    -0.840261794966    -1.561567924880    15.994914619570
         C            2.465457845572    -0.027299794966     0.690118075120    12.000000000000
         C           -1.546099154428    -1.877633794966     0.510739075120    12.000000000000
         C           -1.314736154428     2.015417205034     0.442882075120    12.000000000000
         H            2.909394845572    -0.395912794966    -0.235378924880     1.007825032230
         H            2.231181845572    -0.860723794966     1.355683075120     1.007825032230
         H            3.138871845572     0.668133205034     1.186855075120     1.007825032230
         H           -2.387622154428    -1.384527794966     0.016494075120     1.007825032230
         H           -1.875476154428    -2.321341794966     1.448203075120     1.007825032230
         H           -1.125277154428    -2.639542794966    -0.147517924880     1.007825032230
         H           -1.608808654428     1.400420105034     1.295654175120     1.007825032230
         H           -2.147646154428     2.608960205034     0.071454075120     1.007825032230
         H           -0.467650154428     2.657267205034     0.685326075120     1.007825032230

  Basis Set: AUG-CC-PVTZ
    Blend: AUG-CC-PVTZ
  Basis Set: (AUG-CC-PVTZ AUX)
    Blend: AUG-CC-PVTZ-JKFIT
	 Reference Energy          =    -759.3160844440280925 [Eh]
	 Singles Energy            =      -0.0000000000000000 [Eh]
	 Same-Spin Energy          =      -0.4433169314052640 [Eh]
	 Opposite-Spin Energy      =      -1.3810672460710303 [Eh]
	 Correlation Energy        =      -1.8243841774762943 [Eh]
	 Total Energy              =    -761.1404686215043967 [Eh]

	 ================> DF-SCS-MP2 Energies <==================
	-----------------------------------------------------------
	 SCS Same-Spin Scale       =       0.3333333333333333 [-]
	 SCS Opposite-Spin Scale   =       1.2000000000000000 [-]
	 SCS Same-Spin Energy      =      -0.1477723104684213 [Eh]
	 SCS Opposite-Spin Energy  =      -1.6572806952852364 [Eh]
	 SCS Correlation Energy    =      -1.8050530057536576 [Eh]
	 SCS Total Energy          =    -761.1211374497817133 [Eh]
	-----------------------------------------------------------

  Dipole Moment: [D]
     X:    -0.8199      Y:     0.8293      Z:     3.4398     Total:     3.6321

*** Psi4 exiting successfully. Buy a developer a beer!
