                               Psi4 1.3.2 release

  ==> Input File <==

--------------------------------------------------------------------------
#psi4
#
memory 32 gb

molecule  {
0 1
  P        0.0877380    -0.0630770    -0.3573080
  O        1.2658980     0.7202100     0.4017270
  O       -0.5335540    -0.9159530     0.8701820
  O       -0.9587003     1.1351318    -0.5486979
  O        0.4931637    -0.8900504    -1.5121457
  C        2.4637000    -0.0342890     0.6951100
  C       -1.5478570    -1.8846230     0.5157310
  C       -1.3164940     2.0084280     0.4478740
  H        2.9076370    -0.4029020    -0.2303870
  H        2.2294240    -0.8677130     1.3606750
  H        3.1371140     0.6611440     1.1918470
  H       -2.3893800    -1.3915170     0.0214860
  H       -1.8772340    -2.3283310     1.4531950
  H       -1.1270350    -2.6465320    -0.1425260
  H       -1.6199920     1.4414800     1.3301320
  H       -2.1494040     2.6019710     0.0764460
  H       -0.4694080     2.6502780     0.6903180
units angstrom
no_reorient  #important for SAPT in psi4, default
symmetry c1  #important for SAPT in psi4, default
}

set PROPERTIES_ORIGIN ["COM"]
properties('MP2/aug-cc-pvtz', properties = ['dipole'])
--------------------------------------------------------------------------

    Molecular point group: c1
  Charge       = 0
  Multiplicity = 1
  Basis Set: AUG-CC-PVTZ
    Blend: AUG-CC-PVTZ
  Basis Set: (AUG-CC-PVTZ AUX)
    Blend: AUG-CC-PVTZ-JKFIT

    Orbital Energies [Eh]
    ---------------------

    Doubly Occupied:

       1A    -80.104343     2A    -20.592546     3A    -20.590800
       4A    -20.590405     5A    -20.516350     6A    -11.294836
       7A    -11.292662     8A    -11.288724     9A     -7.620043
      10A     -5.518716    11A     -5.518233    12A     -5.516841
      13A     -1.455348    14A     -1.391746    15A     -1.376541
      16A     -1.296969    17A     -0.983975    18A     -0.953733
      19A     -0.945717    20A     -0.787397    21A     -0.718874
      22A     -0.715128    23A     -0.679192    24A     -0.669100
      25A     -0.653923    26A     -0.635873    27A     -0.616446
      28A     -0.616265    29A     -0.589709    30A     -0.538213
      31A     -0.525938    32A     -0.512353    33A     -0.495176
      34A     -0.489169    35A     -0.478690    36A     -0.469927
      37A     -0.461815

  @DF-RHF Final Energy:  -759.31264255989447

   => Energetics <=

    Nuclear Repulsion Energy =            550.5732722428776924
    One-Electron Energy =               -2140.7683977886617868
    Two-Electron Energy =                 830.8824829858896237
    Total Energy =                       -759.3126425598944707
  Basis Set: (AUG-CC-PVTZ AUX)
    Blend: AUG-CC-PVTZ-RI
    Molecular point group: c1

    Geometry (in Angstrom), charge = 0, multiplicity = 1:

       Center              X                  Y                   Z               Mass
    ------------   -----------------  -----------------  -----------------  -----------------
         P            0.081964562343    -0.060400983627    -0.371695940034    30.973761998420
         O            1.260124562343     0.722886016373     0.387339059966    15.994914619570
         O           -0.539327437657    -0.913276983627     0.855794059966    15.994914619570
         O           -0.964473737657     1.137807816373    -0.563085840034    15.994914619570
         O            0.487390262343    -0.887374383627    -1.526533640034    15.994914619570
         C            2.457926562343    -0.031612983627     0.680722059966    12.000000000000
         C           -1.553630437657    -1.881946983627     0.501343059966    12.000000000000
         C           -1.322267437657     2.011104016373     0.433486059966    12.000000000000
         H            2.901863562343    -0.400225983627    -0.244774940034     1.007825032230
         H            2.223650562343    -0.865036983627     1.346287059966     1.007825032230
         H            3.131340562343     0.663820016373     1.177459059966     1.007825032230
         H           -2.395153437657    -1.388840983627     0.007098059966     1.007825032230
         H           -1.883007437657    -2.325654983627     1.438807059966     1.007825032230
         H           -1.132808437657    -2.643855983627    -0.156913940034     1.007825032230
         H           -1.625765437657     1.444156016373     1.315744059966     1.007825032230
         H           -2.155177437657     2.604647016373     0.062058059966     1.007825032230
         H           -0.475181437657     2.652954016373     0.675930059966     1.007825032230

  Basis Set: AUG-CC-PVTZ
    Blend: AUG-CC-PVTZ
  Basis Set: (AUG-CC-PVTZ AUX)
    Blend: AUG-CC-PVTZ-JKFIT
	 Reference Energy          =    -759.3126425598944707 [Eh]
	 Singles Energy            =      -0.0000000000000000 [Eh]
	 Same-Spin Energy          =      -0.4436712339425100 [Eh]
	 Opposite-Spin Energy      =      -1.3812534912199772 [Eh]
	 Correlation Energy        =      -1.8249247251624872 [Eh]
	 Total Energy              =    -761.1375672850570027 [Eh]

	 ================> DF-SCS-MP2 Energies <==================
	-----------------------------------------------------------
	 SCS Same-Spin Scale       =       0.3333333333333333 [-]
	 SCS Opposite-Spin Scale   =       1.2000000000000000 [-]
	 SCS Same-Spin Energy      =      -0.1478904113141700 [Eh]
	 SCS Opposite-Spin Energy  =      -1.6575041894639726 [Eh]
	 SCS Correlation Energy    =      -1.8053946007781425 [Eh]
	 SCS Total Energy          =    -761.1180371606726567 [Eh]
	-----------------------------------------------------------

  Dipole Moment: [D]
     X:    -0.8302      Y:     0.4630      Z:     3.1110     Total:     3.2530

*** Psi4 exiting successfully. Buy a developer a beer!
