                               Psi4 1.3.2 release

  ==> Input File <==

--------------------------------------------------------------------------
#psi4
#
memory 32 gb

molecule  {
0 1
  P        0.0877380    -0.0630770    -0.3573080
  O        1.2658980     0.7202100     0.4017270
  O       -0.5335540    -0.9159530     0.8701820
  O       -0.9629831     1.1122133    -0.6437438
  O        0.4386598    -0.8399055    -1.5636646
  C        2.4637000    -0.0342890     0.6951100
  C       -1.5478570    -1.8846230     0.5157310
  C       -1.3164940     2.0084280     0.4478740
  H        2.9076370    -0.4029020    -0.2303870
  H        2.2294240    -0.8677130     1.3606750
  H        3.1371140     0.6611440     1.1918470
  H       -2.3893800    -1.3915170     0.0214860
  H       -1.8772340    -2.3283310     1.4531950
  H       -1.1270350    -2.6465320    -0.1425260
  H       -1.6199920     1.4414800     1.3301320
  H       -2.1494040     2.6019710     0.0764460
  H       -0.4694080     2.6502780     0.6903180
units angstrom
no_reorient  #important for SAPT in psi4, default
symmetry c1  #important for SAPT in psi4, default
}

set PROPERTIES_ORIGIN ["COM"]
properties('MP2/aug-cc-pvtz', properties = ['dipole'])
--------------------------------------------------------------------------

    Molecular point group: c1
  Charge       = 0
  Multiplicity = 1
  Basis Set: AUG-CC-PVTZ
    Blend: AUG-CC-PVTZ
  Basis Set: (AUG-CC-PVTZ AUX)
    Blend: AUG-CC-PVTZ-JKFIT

    Orbital Energies [Eh]
    ---------------------

    Doubly Occupied:

       1A    -80.098587     2A    -20.593722     3A    -20.593504
       4A    -20.592576     5A    -20.507136     6A    -11.296631
       7A    -11.295360     8A    -11.295072     9A     -7.614758
      10A     -5.513186    11A     -5.512896    12A     -5.511677
      13A     -1.446323    14A     -1.378611    15A     -1.376086
      16A     -1.289083    17A     -0.978437    18A     -0.954604
      19A     -0.947371    20A     -0.785607    21A     -0.713791
      22A     -0.710937    23A     -0.672520    24A     -0.662715
      25A     -0.648411    26A     -0.629211    27A     -0.618039
      28A     -0.613770    29A     -0.581714    30A     -0.541247
      31A     -0.529874    32A     -0.516473    33A     -0.498631
      34A     -0.491605    35A     -0.485207    36A     -0.462931
      37A     -0.457142

  @DF-RHF Final Energy:  -759.31555050014288

   => Energetics <=

    Nuclear Repulsion Energy =            548.8169172721123914
    One-Electron Energy =               -2137.4340451999260040
    Two-Electron Energy =                 829.3015774276708498
    Total Energy =                       -759.3155505001428764
  Basis Set: (AUG-CC-PVTZ AUX)
    Blend: AUG-CC-PVTZ-RI
    Molecular point group: c1

    Geometry (in Angstrom), charge = 0, multiplicity = 1:

       Center              X                  Y                   Z               Mass
    ------------   -----------------  -----------------  -----------------  -----------------
         P            0.088679763187    -0.063511053494    -0.354953852646    30.973761998420
         O            1.266839763187     0.719775946506     0.404081147354    15.994914619570
         O           -0.532612236813    -0.916387053494     0.872536147354    15.994914619570
         O           -0.962041336813     1.111779246506    -0.641389652646    15.994914619570
         O            0.439601563187    -0.840339553494    -1.561310452646    15.994914619570
         C            2.464641763187    -0.034723053494     0.697464147354    12.000000000000
         C           -1.546915236813    -1.885057053494     0.518085147354    12.000000000000
         C           -1.315552236813     2.007993946506     0.450228147354    12.000000000000
         H            2.908578763187    -0.403336053494    -0.228032852646     1.007825032230
         H            2.230365763187    -0.868147053494     1.363029147354     1.007825032230
         H            3.138055763187     0.660709946506     1.194201147354     1.007825032230
         H           -2.388438236813    -1.391951053494     0.023840147354     1.007825032230
         H           -1.876292236813    -2.328765053494     1.455549147354     1.007825032230
         H           -1.126093236813    -2.646966053494    -0.140171852646     1.007825032230
         H           -1.619050236813     1.441045946506     1.332486147354     1.007825032230
         H           -2.148462236813     2.601536946506     0.078800147354     1.007825032230
         H           -0.468466236813     2.649843946506     0.692672147354     1.007825032230

  Basis Set: AUG-CC-PVTZ
    Blend: AUG-CC-PVTZ
  Basis Set: (AUG-CC-PVTZ AUX)
    Blend: AUG-CC-PVTZ-JKFIT
	 Reference Energy          =    -759.3155505001428764 [Eh]
	 Singles Energy            =      -0.0000000000000000 [Eh]
	 Same-Spin Energy          =      -0.4437500444528936 [Eh]
	 Opposite-Spin Energy      =      -1.3826596044986563 [Eh]
	 Correlation Energy        =      -1.8264096489515498 [Eh]
	 Total Energy              =    -761.1419601490944160 [Eh]

	 ================> DF-SCS-MP2 Energies <==================
	-----------------------------------------------------------
	 SCS Same-Spin Scale       =       0.3333333333333333 [-]
	 SCS Opposite-Spin Scale   =       1.2000000000000000 [-]
	 SCS Same-Spin Energy      =      -0.1479166814842978 [Eh]
	 SCS Opposite-Spin Energy  =      -1.6591915253983875 [Eh]
	 SCS Correlation Energy    =      -1.8071082068826854 [Eh]
	 SCS Total Energy          =    -761.1226587070256073 [Eh]
	-----------------------------------------------------------

  Dipole Moment: [D]
     X:    -0.7809      Y:     0.5557      Z:     3.6119     Total:     3.7369

*** Psi4 exiting successfully. Buy a developer a beer!
