                               Psi4 1.3.2 release

  ==> Input File <==

--------------------------------------------------------------------------
#psi4
#
memory 32 gb

molecule  {
0 1
  P        0.0877380    -0.0630770    -0.3573080
  O        1.2658980     0.7202100     0.4017270
  O       -0.5335540    -0.9159530     0.8701820
  O       -0.9626110     1.1157580    -0.6302230
  O        0.4465310    -0.8472510    -1.5565760
  C        2.4637000    -0.0342890     0.6951100
  C       -1.4076282    -1.7507030     0.5647343
  C       -1.3164940     2.0084280     0.4478740
  H        2.9076370    -0.4029020    -0.2303870
  H        2.2294240    -0.8677130     1.3606750
  H        3.1371140     0.6611440     1.1918470
  H       -2.3893800    -1.3915170     0.0214860
  H       -1.8772340    -2.3283310     1.4531950
  H       -1.1270350    -2.6465320    -0.1425260
  H       -1.6199920     1.4414800     1.3301320
  H       -2.1494040     2.6019710     0.0764460
  H       -0.4694080     2.6502780     0.6903180
units angstrom
no_reorient  #important for SAPT in psi4, default
symmetry c1  #important for SAPT in psi4, default
}

set PROPERTIES_ORIGIN ["COM"]
properties('MP2/aug-cc-pvtz', properties = ['dipole'])
--------------------------------------------------------------------------

    Molecular point group: c1
  Charge       = 0
  Multiplicity = 1
  Basis Set: AUG-CC-PVTZ
    Blend: AUG-CC-PVTZ
  Basis Set: (AUG-CC-PVTZ AUX)
    Blend: AUG-CC-PVTZ-JKFIT

    Orbital Energies [Eh]
    ---------------------

    Doubly Occupied:

       1A    -80.112728     2A    -20.611724     3A    -20.602195
       4A    -20.601266     5A    -20.517708     6A    -11.301224
       7A    -11.301194     8A    -11.299487     9A     -7.629016
      10A     -5.527404    11A     -5.527251    12A     -5.525738
      13A     -1.499783    14A     -1.424431    15A     -1.386899
      16A     -1.300385    17A     -0.987921    18A     -0.959264
      19A     -0.941548    20A     -0.800827    21A     -0.737490
      22A     -0.729576    23A     -0.702781    24A     -0.678501
      25A     -0.662727    26A     -0.650778    27A     -0.639162
      28A     -0.621139    29A     -0.585639    30A     -0.536200
      31A     -0.529899    32A     -0.516170    33A     -0.494443
      34A     -0.481342    35A     -0.469650    36A     -0.464495
      37A     -0.444346

  @DF-RHF Final Energy:  -759.27469827163463

   => Energetics <=

    Nuclear Repulsion Energy =            553.9724211689105005
    One-Electron Energy =               -2146.8895777773477676
    Two-Electron Energy =                 833.6424583368027470
    Total Energy =                       -759.2746982716346338
  Basis Set: (AUG-CC-PVTZ AUX)
    Blend: AUG-CC-PVTZ-RI
    Molecular point group: c1

    Geometry (in Angstrom), charge = 0, multiplicity = 1:

       Center              X                  Y                   Z               Mass
    ------------   -----------------  -----------------  -----------------  -----------------
         P            0.075720567061    -0.074553790680    -0.361507630600    30.973761998420
         O            1.253880567061     0.708733209320     0.397527369400    15.994914619570
         O           -0.545571432939    -0.927429790680     0.865982369400    15.994914619570
         O           -0.974628432939     1.104281209320    -0.634422630600    15.994914619570
         O            0.434513567061    -0.858727790680    -1.560775630600    15.994914619570
         C            2.451682567061    -0.045765790680     0.690910369400    12.000000000000
         C           -1.419645632939    -1.762179790680     0.560534669400    12.000000000000
         C           -1.328511432939     1.996951209320     0.443674369400    12.000000000000
         H            2.895619567061    -0.414378790680    -0.234586630600     1.007825032230
         H            2.217406567061    -0.879189790680     1.356475369400     1.007825032230
         H            3.125096567061     0.649667209320     1.187647369400     1.007825032230
         H           -2.401397432939    -1.402993790680     0.017286369400     1.007825032230
         H           -1.889251432939    -2.339807790680     1.448995369400     1.007825032230
         H           -1.139052432939    -2.658008790680    -0.146725630600     1.007825032230
         H           -1.632009432939     1.430003209320     1.325932369400     1.007825032230
         H           -2.161421432939     2.590494209320     0.072246369400     1.007825032230
         H           -0.481425432939     2.638801209320     0.686118369400     1.007825032230

  Basis Set: AUG-CC-PVTZ
    Blend: AUG-CC-PVTZ
  Basis Set: (AUG-CC-PVTZ AUX)
    Blend: AUG-CC-PVTZ-JKFIT
	 Reference Energy          =    -759.2746982716346338 [Eh]
	 Singles Energy            =      -0.0000000000000000 [Eh]
	 Same-Spin Energy          =      -0.4448723019732854 [Eh]
	 Opposite-Spin Energy      =      -1.3824179540095280 [Eh]
	 Correlation Energy        =      -1.8272902559828135 [Eh]
	 Total Energy              =    -761.1019885276174364 [Eh]

	 ================> DF-SCS-MP2 Energies <==================
	-----------------------------------------------------------
	 SCS Same-Spin Scale       =       0.3333333333333333 [-]
	 SCS Opposite-Spin Scale   =       1.2000000000000000 [-]
	 SCS Same-Spin Energy      =      -0.1482907673244285 [Eh]
	 SCS Opposite-Spin Energy  =      -1.6589015448114337 [Eh]
	 SCS Correlation Energy    =      -1.8071923121358622 [Eh]
	 SCS Total Energy          =    -761.0818905837704733 [Eh]
	-----------------------------------------------------------

  Dipole Moment: [D]
     X:    -0.0396      Y:     1.3234      Z:     3.5315     Total:     3.7716

*** Psi4 exiting successfully. Buy a developer a beer!
