                               Psi4 1.3.2 release

  ==> Input File <==

--------------------------------------------------------------------------
#psi4
#
memory 32 gb

molecule  {
0 1
  P        0.0877380    -0.0630770    -0.3573080
  O        1.2658980     0.7202100     0.4017270
  O       -0.5335540    -0.9159530     0.8701820
  O       -0.9731601     1.0767049    -0.6001718
  O        0.4465310    -0.8472510    -1.5565760
  C        2.4637000    -0.0342890     0.6951100
  C       -1.5478570    -1.8846230     0.5157310
  C       -1.3164940     2.0084280     0.4478740
  H        2.9076370    -0.4029020    -0.2303870
  H        2.2294240    -0.8677130     1.3606750
  H        3.1371140     0.6611440     1.1918470
  H       -2.3893800    -1.3915170     0.0214860
  H       -1.8772340    -2.3283310     1.4531950
  H       -1.1270350    -2.6465320    -0.1425260
  H       -1.6137992     1.4092664     1.3107386
  H       -2.1494040     2.6019710     0.0764460
  H       -0.4694080     2.6502780     0.6903180
units angstrom
no_reorient  #important for SAPT in psi4, default
symmetry c1  #important for SAPT in psi4, default
}

set PROPERTIES_ORIGIN ["COM"]
properties('MP2/aug-cc-pvtz', properties = ['dipole'])
--------------------------------------------------------------------------

    Molecular point group: c1
  Charge       = 0
  Multiplicity = 1
  Basis Set: AUG-CC-PVTZ
    Blend: AUG-CC-PVTZ
  Basis Set: (AUG-CC-PVTZ AUX)
    Blend: AUG-CC-PVTZ-JKFIT

    Orbital Energies [Eh]
    ---------------------

    Doubly Occupied:

       1A    -80.096128     2A    -20.592428     3A    -20.591550
       4A    -20.589146     5A    -20.507169     6A    -11.298250
       7A    -11.294199     8A    -11.293425     9A     -7.612752
      10A     -5.511309    11A     -5.510918    12A     -5.509610
      13A     -1.450143    14A     -1.381620    15A     -1.375937
      16A     -1.289188    17A     -0.980235    18A     -0.956671
      19A     -0.946102    20A     -0.784867    21A     -0.715241
      22A     -0.711735    23A     -0.675082    24A     -0.664533
      25A     -0.649690    26A     -0.632001    27A     -0.616070
      28A     -0.614402    29A     -0.582147    30A     -0.540442
      31A     -0.530638    32A     -0.514901    33A     -0.497447
      34A     -0.491219    35A     -0.484681    36A     -0.463041
      37A     -0.456369

  @DF-RHF Final Energy:  -759.31675836829481

   => Energetics <=

    Nuclear Repulsion Energy =            550.3779159832718051
    One-Electron Energy =               -2140.5667760064347931
    Two-Electron Energy =                 830.8721016548681746
    Total Energy =                       -759.3167583682948134
  Basis Set: (AUG-CC-PVTZ AUX)
    Blend: AUG-CC-PVTZ-RI
    Molecular point group: c1

    Geometry (in Angstrom), charge = 0, multiplicity = 1:

       Center              X                  Y                   Z               Mass
    ------------   -----------------  -----------------  -----------------  -----------------
         P            0.088898581740    -0.058383997169    -0.360601225158    30.973761998420
         O            1.267058581740     0.724903002831     0.398433774842    15.994914619570
         O           -0.532393418260    -0.911259997169     0.866888774842    15.994914619570
         O           -0.971999518260     1.081397902831    -0.603465025158    15.994914619570
         O            0.447691581740    -0.842557997169    -1.559869225158    15.994914619570
         C            2.464860581740    -0.029595997169     0.691816774842    12.000000000000
         C           -1.546696418260    -1.879929997169     0.512437774842    12.000000000000
         C           -1.315333418260     2.013121002831     0.444580774842    12.000000000000
         H            2.908797581740    -0.398208997169    -0.233680225158     1.007825032230
         H            2.230584581740    -0.863019997169     1.357381774842     1.007825032230
         H            3.138274581740     0.665837002831     1.188553774842     1.007825032230
         H           -2.388219418260    -1.386823997169     0.018192774842     1.007825032230
         H           -1.876073418260    -2.323637997169     1.449901774842     1.007825032230
         H           -1.125874418260    -2.641838997169    -0.145819225158     1.007825032230
         H           -1.612638618260     1.413959402831     1.307445374842     1.007825032230
         H           -2.148243418260     2.606664002831     0.073152774842     1.007825032230
         H           -0.468247418260     2.654971002831     0.687024774842     1.007825032230

  Basis Set: AUG-CC-PVTZ
    Blend: AUG-CC-PVTZ
  Basis Set: (AUG-CC-PVTZ AUX)
    Blend: AUG-CC-PVTZ-JKFIT
	 Reference Energy          =    -759.3167583682948134 [Eh]
	 Singles Energy            =      -0.0000000000000000 [Eh]
	 Same-Spin Energy          =      -0.4434180056234777 [Eh]
	 Opposite-Spin Energy      =      -1.3814509422055532 [Eh]
	 Correlation Energy        =      -1.8248689478290308 [Eh]
	 Total Energy              =    -761.1416273161238450 [Eh]

	 ================> DF-SCS-MP2 Energies <==================
	-----------------------------------------------------------
	 SCS Same-Spin Scale       =       0.3333333333333333 [-]
	 SCS Opposite-Spin Scale   =       1.2000000000000000 [-]
	 SCS Same-Spin Energy      =      -0.1478060018744926 [Eh]
	 SCS Opposite-Spin Energy  =      -1.6577411306466638 [Eh]
	 SCS Correlation Energy    =      -1.8055471325211565 [Eh]
	 SCS Total Energy          =    -761.1223055008159690 [Eh]
	-----------------------------------------------------------

  Dipole Moment: [D]
     X:    -0.8114      Y:     0.7365      Z:     3.4761     Total:     3.6447

*** Psi4 exiting successfully. Buy a developer a beer!
