                               Psi4 1.4a3.dev225

  ==> Input File <==

--------------------------------------------------------------------------
#psi4
#
memory 32 gb

molecule  {
0 1
  P       -0.0574490    -0.0471570     0.4194890
  O       -1.3115553     0.7422036    -0.2565775
  O        0.4722150    -0.8939050    -0.8603530
  O        0.9903180     1.1487510     0.6268930
  O       -0.2961570    -0.8492890     1.6393190
  C       -2.4621590    -0.0544570    -0.5825580
  C        1.4026460    -1.9654260    -0.5785380
  C        1.2646580     2.0469880    -0.4710390
  H       -2.8060190    -0.6071020     0.2936840
  H       -2.2248990    -0.7417540    -1.3968370
  H       -3.2216950     0.6578470    -0.8995060
  H        2.3395400    -1.5606100    -0.1879150
  H        1.5821260    -2.4612230    -1.5311740
  H        0.9711350    -2.6604290     0.1425970
  H        1.5228770     1.4835030    -1.3699410
  H        2.1109000     2.6527310    -0.1513160
  H        0.3951430     2.6772290    -0.6597860
units angstrom
no_reorient  #important for SAPT in psi4, default
symmetry c1  #important for SAPT in psi4, default
}

set PROPERTIES_ORIGIN ["COM"]
properties('MP2/aug-cc-pvtz', properties = ['dipole'])
--------------------------------------------------------------------------

    Molecular point group: c1
  Charge       = 0
  Multiplicity = 1
  Basis Set: AUG-CC-PVTZ
    Blend: AUG-CC-PVTZ
  Basis Set: (AUG-CC-PVTZ AUX)
    Blend: AUG-CC-PVTZ-JKFIT

    Orbital Energies [Eh]
    ---------------------

    Doubly Occupied:

       1A    -80.103534     2A    -20.594857     3A    -20.594049
       4A    -20.593803     5A    -20.511050     6A    -11.295802
       7A    -11.295007     8A    -11.292716     9A     -7.618943
      10A     -5.517348    11A     -5.517110    12A     -5.515856
      13A     -1.444675    14A     -1.378998    15A     -1.376755
      16A     -1.291511    17A     -0.977766    18A     -0.953922
      19A     -0.946135    20A     -0.785960    21A     -0.713387
      22A     -0.710873    23A     -0.672777    24A     -0.662371
      25A     -0.649738    26A     -0.631519    27A     -0.617897
      28A     -0.613455    29A     -0.583423    30A     -0.540168
      31A     -0.528442    32A     -0.515305    33A     -0.496415
      34A     -0.491386    35A     -0.483795    36A     -0.465395
      37A     -0.459882

  @DF-RHF Final Energy:  -759.31386147865271

   => Energetics <=

    Nuclear Repulsion Energy =            547.5390468540804250
    One-Electron Energy =               -2134.8217639773324663
    Two-Electron Energy =                 827.9688556445993299
    Total Energy =                       -759.3138614786527114
  Basis Set: (AUG-CC-PVTZ AUX)
    Blend: AUG-CC-PVTZ-RI
    Molecular point group: c1

    Geometry (in Angstrom), charge = 0, multiplicity = 1:

       Center              X                  Y                   Z               Mass
    ------------   -----------------  -----------------  -----------------  -----------------
         P           -0.050554043187    -0.051898049407     0.376746821503    30.973761998420
         O           -1.304660343187     0.737462550593    -0.299319678497    15.994914619570
         O            0.479109956813    -0.898646049407    -0.903095178497    15.994914619570
         O            0.997212956813     1.144009950593     0.584150821503    15.994914619570
         O           -0.289262043187    -0.854030049407     1.596576821503    15.994914619570
         C           -2.455264043187    -0.059198049407    -0.625300178497    12.000000000000
         C            1.409540956813    -1.970167049407    -0.621280178497    12.000000000000
         C            1.271552956813     2.042246950593    -0.513781178497    12.000000000000
         H           -2.799124043187    -0.611843049407     0.250941821503     1.007825032230
         H           -2.218004043187    -0.746495049407    -1.439579178497     1.007825032230
         H           -3.214800043187     0.653105950593    -0.942248178497     1.007825032230
         H            2.346434956813    -1.565351049407    -0.230657178497     1.007825032230
         H            1.589020956813    -2.465964049407    -1.573916178497     1.007825032230
         H            0.978029956813    -2.665170049407     0.099854821503     1.007825032230
         H            1.529771956813     1.478761950593    -1.412683178497     1.007825032230
         H            2.117794956813     2.647989950593    -0.194058178497     1.007825032230
         H            0.402037956813     2.672487950593    -0.702528178497     1.007825032230

  Basis Set: AUG-CC-PVTZ
    Blend: AUG-CC-PVTZ
  Basis Set: (AUG-CC-PVTZ AUX)
    Blend: AUG-CC-PVTZ-JKFIT
	 Reference Energy          =    -759.3138614786527114 [Eh]
	 Singles Energy            =      -0.0000000000000000 [Eh]
	 Same-Spin Energy          =      -0.4440759551918603 [Eh]
	 Opposite-Spin Energy      =      -1.3833917729185703 [Eh]
	 Correlation Energy        =      -1.8274677281104306 [Eh]
	 Total Energy              =    -761.1413292067630891 [Eh]

	 ================> DF-SCS-MP2 Energies <==================
	-----------------------------------------------------------
	 SCS Same-Spin Scale       =       0.3333333333333333 [-]
	 SCS Opposite-Spin Scale   =       1.2000000000000000 [-]
	 SCS Same-Spin Energy      =      -0.1480253183972867 [Eh]
	 SCS Opposite-Spin Energy  =      -1.6600701275022842 [Eh]
	 SCS Correlation Energy    =      -1.8080954458995711 [Eh]
	 SCS Total Energy          =    -761.1219569245522507 [Eh]
	-----------------------------------------------------------

  Dipole Moment: [D]
     X:     0.5303      Y:     0.4032      Z:    -3.6656     Total:     3.7256

*** Psi4 exiting successfully. Buy a developer a beer!
