                               Psi4 1.3.2 release

  ==> Input File <==

--------------------------------------------------------------------------
#psi4
#
memory 32 gb

molecule  {
0 1
  P        0.0877380    -0.0630770    -0.3573080
  O        1.2508485     0.6947264     0.4493156
  O       -0.4950040    -0.8928675     0.9044338
  O       -0.9626110     1.1157580    -0.6302230
  O        0.4465310    -0.8472510    -1.5565760
  C        2.4637000    -0.0342890     0.6951100
  C       -1.5478570    -1.8846230     0.5157310
  C       -1.3164940     2.0084280     0.4478740
  H        2.9076370    -0.4029020    -0.2303870
  H        2.2294240    -0.8677130     1.3606750
  H        3.1371140     0.6611440     1.1918470
  H       -2.3893800    -1.3915170     0.0214860
  H       -1.8772340    -2.3283310     1.4531950
  H       -1.1270350    -2.6465320    -0.1425260
  H       -1.6199920     1.4414800     1.3301320
  H       -2.1494040     2.6019710     0.0764460
  H       -0.4694080     2.6502780     0.6903180
units angstrom
no_reorient  #important for SAPT in psi4, default
symmetry c1  #important for SAPT in psi4, default
}

set PROPERTIES_ORIGIN ["COM"]
properties('MP2/aug-cc-pvtz', properties = ['dipole'])
--------------------------------------------------------------------------

    Molecular point group: c1
  Charge       = 0
  Multiplicity = 1
  Basis Set: AUG-CC-PVTZ
    Blend: AUG-CC-PVTZ
  Basis Set: (AUG-CC-PVTZ AUX)
    Blend: AUG-CC-PVTZ-JKFIT

    Orbital Energies [Eh]
    ---------------------

    Doubly Occupied:

       1A    -80.097910     2A    -20.593735     3A    -20.592967
       4A    -20.587616     5A    -20.511182     6A    -11.300182
       7A    -11.295292     8A    -11.291117     9A     -7.614148
      10A     -5.512641    11A     -5.512290    12A     -5.511024
      13A     -1.444917    14A     -1.379006    15A     -1.365731
      16A     -1.291885    17A     -0.977177    18A     -0.955094
      19A     -0.944852    20A     -0.783904    21A     -0.712995
      22A     -0.706774    23A     -0.670395    24A     -0.659571
      25A     -0.649115    26A     -0.627425    27A     -0.613917
      28A     -0.604603    29A     -0.584315    30A     -0.544117
      31A     -0.528690    32A     -0.516407    33A     -0.498274
      34A     -0.491160    35A     -0.482656    36A     -0.466329
      37A     -0.459771

  @DF-RHF Final Energy:  -759.31101595538848

   => Energetics <=

    Nuclear Repulsion Energy =            548.8886335795712057
    One-Electron Energy =               -2137.6409353670455857
    Two-Electron Energy =                 829.4412858320858959
    Total Energy =                       -759.3110159553884841
  Basis Set: (AUG-CC-PVTZ AUX)
    Blend: AUG-CC-PVTZ-RI
    Molecular point group: c1

    Geometry (in Angstrom), charge = 0, multiplicity = 1:

       Center              X                  Y                   Z               Mass
    ------------   -----------------  -----------------  -----------------  -----------------
         P            0.085053671018    -0.062802953558    -0.366656686509    30.973761998420
         O            1.248164171018     0.695000446442     0.439966913491    15.994914619570
         O           -0.497688328982    -0.892593453558     0.895085113491    15.994914619570
         O           -0.965295328982     1.116032046442    -0.639571686509    15.994914619570
         O            0.443846671018    -0.846976953558    -1.565924686509    15.994914619570
         C            2.461015671018    -0.034014953558     0.685761313491    12.000000000000
         C           -1.550541328982    -1.884348953558     0.506382313491    12.000000000000
         C           -1.319178328982     2.008702046442     0.438525313491    12.000000000000
         H            2.904952671018    -0.402627953558    -0.239735686509     1.007825032230
         H            2.226739671018    -0.867438953558     1.351326313491     1.007825032230
         H            3.134429671018     0.661418046442     1.182498313491     1.007825032230
         H           -2.392064328982    -1.391242953558     0.012137313491     1.007825032230
         H           -1.879918328982    -2.328056953558     1.443846313491     1.007825032230
         H           -1.129719328982    -2.646257953558    -0.151874686509     1.007825032230
         H           -1.622676328982     1.441754046442     1.320783313491     1.007825032230
         H           -2.152088328982     2.602245046442     0.067097313491     1.007825032230
         H           -0.472092328982     2.650552046442     0.680969313491     1.007825032230

  Basis Set: AUG-CC-PVTZ
    Blend: AUG-CC-PVTZ
  Basis Set: (AUG-CC-PVTZ AUX)
    Blend: AUG-CC-PVTZ-JKFIT
	 Reference Energy          =    -759.3110159553884841 [Eh]
	 Singles Energy            =      -0.0000000000000000 [Eh]
	 Same-Spin Energy          =      -0.4442345627683100 [Eh]
	 Opposite-Spin Energy      =      -1.3839704645838062 [Eh]
	 Correlation Energy        =      -1.8282050273521162 [Eh]
	 Total Energy              =    -761.1392209827406532 [Eh]

	 ================> DF-SCS-MP2 Energies <==================
	-----------------------------------------------------------
	 SCS Same-Spin Scale       =       0.3333333333333333 [-]
	 SCS Opposite-Spin Scale   =       1.2000000000000000 [-]
	 SCS Same-Spin Energy      =      -0.1480781875894366 [Eh]
	 SCS Opposite-Spin Energy  =      -1.6607645575005674 [Eh]
	 SCS Correlation Energy    =      -1.8088427450900040 [Eh]
	 SCS Total Energy          =    -761.1198587004785168 [Eh]
	-----------------------------------------------------------

  Dipole Moment: [D]
     X:    -0.9728      Y:     0.4727      Z:     3.3486     Total:     3.5190

*** Psi4 exiting successfully. Buy a developer a beer!
