                               Psi4 1.3.2 release

  ==> Input File <==

--------------------------------------------------------------------------
#psi4
#
memory 32 gb

molecule  {
0 1
  P        0.0877380    -0.0630770    -0.3573080
  O        1.2658980     0.7202100     0.4017270
  O       -0.5335540    -0.9159530     0.8701820
  O       -0.9616269     1.1225778    -0.6031201
  O        0.4621909    -0.8617622    -1.5421253
  C        2.4637000    -0.0342890     0.6951100
  C       -1.5478570    -1.8846230     0.5157310
  C       -1.3164940     2.0084280     0.4478740
  H        2.9076370    -0.4029020    -0.2303870
  H        2.2294240    -0.8677130     1.3606750
  H        3.1371140     0.6611440     1.1918470
  H       -2.3893800    -1.3915170     0.0214860
  H       -1.8772340    -2.3283310     1.4531950
  H       -1.1270350    -2.6465320    -0.1425260
  H       -1.6199920     1.4414800     1.3301320
  H       -2.1494040     2.6019710     0.0764460
  H       -0.4694080     2.6502780     0.6903180
units angstrom
no_reorient  #important for SAPT in psi4, default
symmetry c1  #important for SAPT in psi4, default
}

set PROPERTIES_ORIGIN ["COM"]
properties('MP2/aug-cc-pvtz', properties = ['dipole'])
--------------------------------------------------------------------------

    Molecular point group: c1
  Charge       = 0
  Multiplicity = 1
  Basis Set: AUG-CC-PVTZ
    Blend: AUG-CC-PVTZ
  Basis Set: (AUG-CC-PVTZ AUX)
    Blend: AUG-CC-PVTZ-JKFIT

    Orbital Energies [Eh]
    ---------------------

    Doubly Occupied:

       1A    -80.100898     2A    -20.592765     3A    -20.592326
       4A    -20.592276     5A    -20.511079     6A    -11.295114
       7A    -11.294032     8A    -11.293287     9A     -7.616885
      10A     -5.515408    11A     -5.515052    12A     -5.513758
      13A     -1.449439    14A     -1.383027    15A     -1.377684
      16A     -1.292620    17A     -0.980373    18A     -0.954244
      19A     -0.946667    20A     -0.786382    21A     -0.715684
      22A     -0.712890    23A     -0.674559    24A     -0.665135
      25A     -0.651018    26A     -0.632455    27A     -0.617373
      28A     -0.615002    29A     -0.585234    30A     -0.539777
      31A     -0.528061    32A     -0.514968    33A     -0.497175
      34A     -0.490747    35A     -0.482701    36A     -0.466403
      37A     -0.459315

  @DF-RHF Final Energy:  -759.31622073983442

   => Energetics <=

    Nuclear Repulsion Energy =            549.5410640842197836
    One-Electron Energy =               -2138.8109433286040257
    Two-Electron Energy =                 829.9536585045499351
    Total Energy =                       -759.3162207398344208
  Basis Set: (AUG-CC-PVTZ AUX)
    Blend: AUG-CC-PVTZ-RI
    Molecular point group: c1

    Geometry (in Angstrom), charge = 0, multiplicity = 1:

       Center              X                  Y                   Z               Mass
    ------------   -----------------  -----------------  -----------------  -----------------
         P            0.085836888558    -0.062198300250    -0.362054728015    30.973761998420
         O            1.263996888558     0.721088699750     0.396980271985    15.994914619570
         O           -0.535455111442    -0.915074300250     0.865435271985    15.994914619570
         O           -0.963528011442     1.123456499750    -0.607866828015    15.994914619570
         O            0.460289788558    -0.860883500250    -1.546872028015    15.994914619570
         C            2.461798888558    -0.033410300250     0.690363271985    12.000000000000
         C           -1.549758111442    -1.883744300250     0.510984271985    12.000000000000
         C           -1.318395111442     2.009306699750     0.443127271985    12.000000000000
         H            2.905735888558    -0.402023300250    -0.235133728015     1.007825032230
         H            2.227522888558    -0.866834300250     1.355928271985     1.007825032230
         H            3.135212888558     0.662022699750     1.187100271985     1.007825032230
         H           -2.391281111442    -1.390638300250     0.016739271985     1.007825032230
         H           -1.879135111442    -2.327452300250     1.448448271985     1.007825032230
         H           -1.128936111442    -2.645653300250    -0.147272728015     1.007825032230
         H           -1.621893111442     1.442358699750     1.325385271985     1.007825032230
         H           -2.151305111442     2.602849699750     0.071699271985     1.007825032230
         H           -0.471309111442     2.651156699750     0.685571271985     1.007825032230

  Basis Set: AUG-CC-PVTZ
    Blend: AUG-CC-PVTZ
  Basis Set: (AUG-CC-PVTZ AUX)
    Blend: AUG-CC-PVTZ-JKFIT
	 Reference Energy          =    -759.3162207398344208 [Eh]
	 Singles Energy            =      -0.0000000000000000 [Eh]
	 Same-Spin Energy          =      -0.4436427321716791 [Eh]
	 Opposite-Spin Energy      =      -1.3819072570194222 [Eh]
	 Correlation Energy        =      -1.8255499891911013 [Eh]
	 Total Energy              =    -761.1417707290255521 [Eh]

	 ================> DF-SCS-MP2 Energies <==================
	-----------------------------------------------------------
	 SCS Same-Spin Scale       =       0.3333333333333333 [-]
	 SCS Opposite-Spin Scale   =       1.2000000000000000 [-]
	 SCS Same-Spin Energy      =      -0.1478809107238930 [Eh]
	 SCS Opposite-Spin Energy  =      -1.6582887084233067 [Eh]
	 SCS Correlation Energy    =      -1.8061696191471996 [Eh]
	 SCS Total Energy          =    -761.1223903589816473 [Eh]
	-----------------------------------------------------------

  Dipole Moment: [D]
     X:    -0.8056      Y:     0.5231      Z:     3.4037     Total:     3.5367

*** Psi4 exiting successfully. Buy a developer a beer!
