                               Psi4 1.3.2 release

  ==> Input File <==

--------------------------------------------------------------------------
#psi4
#
memory 32 gb

molecule  {
0 1
  P        0.0877380    -0.0630770    -0.3573080
  O        1.2658980     0.7202100     0.4017270
  O       -0.4925112    -0.9725490     0.8993113
  O       -0.9626110     1.1157580    -0.6302230
  O        0.4465310    -0.8472510    -1.5565760
  C        2.4637000    -0.0342890     0.6951100
  C       -1.5478570    -1.8846230     0.5157310
  C       -1.3164940     2.0084280     0.4478740
  H        2.9076370    -0.4029020    -0.2303870
  H        2.2294240    -0.8677130     1.3606750
  H        3.1371140     0.6611440     1.1918470
  H       -2.4146626    -1.4426643     0.0168190
  H       -1.8772340    -2.3283310     1.4531950
  H       -1.1270350    -2.6465320    -0.1425260
  H       -1.6199920     1.4414800     1.3301320
  H       -2.1494040     2.6019710     0.0764460
  H       -0.4694080     2.6502780     0.6903180
units angstrom
no_reorient  #important for SAPT in psi4, default
symmetry c1  #important for SAPT in psi4, default
}

set PROPERTIES_ORIGIN ["COM"]
properties('MP2/aug-cc-pvtz', properties = ['dipole'])
--------------------------------------------------------------------------

    Molecular point group: c1
  Charge       = 0
  Multiplicity = 1
  Basis Set: AUG-CC-PVTZ
    Blend: AUG-CC-PVTZ
  Basis Set: (AUG-CC-PVTZ AUX)
    Blend: AUG-CC-PVTZ-JKFIT

    Orbital Energies [Eh]
    ---------------------

    Doubly Occupied:

       1A    -80.103483     2A    -20.598571     3A    -20.594643
       4A    -20.594147     5A    -20.509754     6A    -11.298339
       7A    -11.294676     8A    -11.291691     9A     -7.619029
      10A     -5.517529    11A     -5.517055    12A     -5.515898
      13A     -1.444990    14A     -1.381618    15A     -1.373254
      16A     -1.291343    17A     -0.977742    18A     -0.955506
      19A     -0.944719    20A     -0.787423    21A     -0.713456
      22A     -0.711091    23A     -0.672484    24A     -0.662320
      25A     -0.649079    26A     -0.631671    27A     -0.616235
      28A     -0.610388    29A     -0.583562    30A     -0.541221
      31A     -0.530667    32A     -0.517088    33A     -0.497685
      34A     -0.488706    35A     -0.487490    36A     -0.464777
      37A     -0.457722

  @DF-RHF Final Energy:  -759.31075620913293

   => Energetics <=

    Nuclear Repulsion Energy =            547.3615744395459615
    One-Electron Energy =               -2134.4505522248769012
    Two-Electron Energy =                 827.7782215761978932
    Total Energy =                       -759.3107562091329328
  Basis Set: (AUG-CC-PVTZ AUX)
    Blend: AUG-CC-PVTZ-RI
    Molecular point group: c1

    Geometry (in Angstrom), charge = 0, multiplicity = 1:

       Center              X                  Y                   Z               Mass
    ------------   -----------------  -----------------  -----------------  -----------------
         P            0.083231787380    -0.056243797100    -0.360601910204    30.973761998420
         O            1.261391787380     0.727043202900     0.398433089796    15.994914619570
         O           -0.497017412620    -0.965715797100     0.896017389796    15.994914619570
         O           -0.967117212620     1.122591202900    -0.633516910204    15.994914619570
         O            0.442024787380    -0.840417797100    -1.559869910204    15.994914619570
         C            2.459193787380    -0.027455797100     0.691816089796    12.000000000000
         C           -1.552363212620    -1.877789797100     0.512437089796    12.000000000000
         C           -1.321000212620     2.015261202900     0.444580089796    12.000000000000
         H            2.903130787380    -0.396068797100    -0.233680910204     1.007825032230
         H            2.224917787380    -0.860879797100     1.357381089796     1.007825032230
         H            3.132607787380     0.667977202900     1.188553089796     1.007825032230
         H           -2.419168812620    -1.435831097100     0.013525089796     1.007825032230
         H           -1.881740212620    -2.321497797100     1.449901089796     1.007825032230
         H           -1.131541212620    -2.639698797100    -0.145819910204     1.007825032230
         H           -1.624498212620     1.448313202900     1.326838089796     1.007825032230
         H           -2.153910212620     2.608804202900     0.073152089796     1.007825032230
         H           -0.473914212620     2.657111202900     0.687024089796     1.007825032230

  Basis Set: AUG-CC-PVTZ
    Blend: AUG-CC-PVTZ
  Basis Set: (AUG-CC-PVTZ AUX)
    Blend: AUG-CC-PVTZ-JKFIT
	 Reference Energy          =    -759.3107562091329328 [Eh]
	 Singles Energy            =      -0.0000000000000000 [Eh]
	 Same-Spin Energy          =      -0.4442851191245332 [Eh]
	 Opposite-Spin Energy      =      -1.3839881197723751 [Eh]
	 Correlation Energy        =      -1.8282732388969083 [Eh]
	 Total Energy              =    -761.1390294480298735 [Eh]

	 ================> DF-SCS-MP2 Energies <==================
	-----------------------------------------------------------
	 SCS Same-Spin Scale       =       0.3333333333333333 [-]
	 SCS Opposite-Spin Scale   =       1.2000000000000000 [-]
	 SCS Same-Spin Energy      =      -0.1480950397081777 [Eh]
	 SCS Opposite-Spin Energy  =      -1.6607857437268501 [Eh]
	 SCS Correlation Energy    =      -1.8088807834350278 [Eh]
	 SCS Total Energy          =    -761.1196369925679619 [Eh]
	-----------------------------------------------------------

  Dipole Moment: [D]
     X:    -0.8182      Y:     0.7977      Z:     3.4256     Total:     3.6112

*** Psi4 exiting successfully. Buy a developer a beer!
