                               Psi4 1.3.2 release

  ==> Input File <==

--------------------------------------------------------------------------
#psi4
#
memory 32 gb

molecule  {
0 1
  O       -0.8024720     1.2871770    -0.2968200
  N        0.3743340    -0.6973860    -0.1281030
  N       -1.9547761    -0.7241182    -0.2345175
  C        1.5987580    -0.0472160    -0.4975290
  C        2.3001670     0.7476450     0.5591710
  C        2.8599170    -0.5791270     0.1240600
  C       -0.7916110     0.0679730    -0.1462250
  C       -3.1892790     0.0185180     0.2391280
  H        1.6584990     0.3313320    -1.5170780
  H        1.8133820     0.7968280     1.5261570
  H        2.8068830     1.6562200     0.2533550
  H        3.7595130    -0.5939570    -0.4821470
  H        2.7562930    -1.4149420     0.8077760
  H        0.2670080    -1.6424170    -0.4848710
  H       -1.8163630    -1.5386920     0.5601430
  H       -3.2269270     0.5129170     1.2166470
  H       -4.0142600    -0.6916670     0.1589620
  H       -3.2950640     0.7803290    -0.5317260
units angstrom
no_reorient  #important for SAPT in psi4, default
symmetry c1  #important for SAPT in psi4, default
}

set PROPERTIES_ORIGIN ["COM"]
properties('MP2/aug-cc-pvtz', properties = ['dipole'])
--------------------------------------------------------------------------

    Molecular point group: c1
  Charge       = 0
  Multiplicity = 1
  Basis Set: AUG-CC-PVTZ
    Blend: AUG-CC-PVTZ
  Basis Set: (AUG-CC-PVTZ AUX)
    Blend: AUG-CC-PVTZ-JKFIT

    Orbital Energies [Eh]
    ---------------------

    Doubly Occupied:

       1A    -20.521002     2A    -15.601087     3A    -15.584089
       4A    -11.374610     5A    -11.265798     6A    -11.258216
       7A    -11.229965     8A    -11.224750     9A     -1.387833
      10A     -1.244748    11A     -1.198033    12A     -1.114334
      13A     -0.935556    14A     -0.831260    15A     -0.823153
      16A     -0.765664    17A     -0.716100    18A     -0.697894
      19A     -0.657367    20A     -0.624058    21A     -0.616635
      22A     -0.592664    23A     -0.548701    24A     -0.540562
      25A     -0.520479    26A     -0.516627    27A     -0.457503
      28A     -0.443253    29A     -0.426169    30A     -0.418615
      31A     -0.391434

  @DF-RHF Final Energy:  -379.02206497247653

   => Energetics <=

    Nuclear Repulsion Energy =            378.2352265678828189
    One-Electron Energy =               -1265.4582626160997734
    Two-Electron Energy =                 508.2009710757404264
    Total Energy =                       -379.0220649724765281
  Basis Set: (AUG-CC-PVTZ AUX)
    Blend: AUG-CC-PVTZ-RI
    Molecular point group: c1

    Geometry (in Angstrom), charge = 0, multiplicity = 1:

       Center              X                  Y                   Z               Mass
    ------------   -----------------  -----------------  -----------------  -----------------
         O           -0.794437386881     1.275271178266    -0.253313950598    15.994914619570
         N            0.382368613119    -0.709291821734    -0.084596950598    14.003074004430
         N           -1.946741486881    -0.736024021734    -0.191011450598    14.003074004430
         C            1.606792613119    -0.059121821734    -0.454022950598    12.000000000000
         C            2.308201613119     0.735739178266     0.602677049402    12.000000000000
         C            2.867951613119    -0.591032821734     0.167566049402    12.000000000000
         C           -0.783576386881     0.056067178266    -0.102718950598    12.000000000000
         C           -3.181244386881     0.006612178266     0.282634049402    12.000000000000
         H            1.666533613119     0.319426178266    -1.473571950598     1.007825032230
         H            1.821416613119     0.784922178266     1.569663049402     1.007825032230
         H            2.814917613119     1.644314178266     0.296861049402     1.007825032230
         H            3.767547613119    -0.605862821734    -0.438640950598     1.007825032230
         H            2.764327613119    -1.426847821734     0.851282049402     1.007825032230
         H            0.275042613119    -1.654322821734    -0.441364950598     1.007825032230
         H           -1.808328386881    -1.550597821734     0.603649049402     1.007825032230
         H           -3.218892386881     0.501011178266     1.260153049402     1.007825032230
         H           -4.006225386881    -0.703572821734     0.202468049402     1.007825032230
         H           -3.287029386881     0.768423178266    -0.488219950598     1.007825032230

  Basis Set: AUG-CC-PVTZ
    Blend: AUG-CC-PVTZ
  Basis Set: (AUG-CC-PVTZ AUX)
    Blend: AUG-CC-PVTZ-JKFIT
	 Reference Energy          =    -379.0220649724765281 [Eh]
	 Singles Energy            =      -0.0000000000000000 [Eh]
	 Same-Spin Energy          =      -0.3921667867739235 [Eh]
	 Opposite-Spin Energy      =      -1.2655667004001065 [Eh]
	 Correlation Energy        =      -1.6577334871740301 [Eh]
	 Total Energy              =    -380.6797984596505557 [Eh]

	 ================> DF-SCS-MP2 Energies <==================
	-----------------------------------------------------------
	 SCS Same-Spin Scale       =       0.3333333333333333 [-]
	 SCS Opposite-Spin Scale   =       1.2000000000000000 [-]
	 SCS Same-Spin Energy      =      -0.1307222622579745 [Eh]
	 SCS Opposite-Spin Energy  =      -1.5186800404801277 [Eh]
	 SCS Correlation Energy    =      -1.6494023027381022 [Eh]
	 SCS Total Energy          =    -380.6714672752146384 [Eh]
	-----------------------------------------------------------

  Dipole Moment: [D]
     X:     0.1910      Y:    -2.8033      Z:     0.8205     Total:     2.9271

*** Psi4 exiting successfully. Buy a developer a beer!
