                               Psi4 1.3.2 release

  ==> Input File <==

--------------------------------------------------------------------------
#psi4
#
memory 32 gb

molecule  {
0 1
  O       -0.8024720     1.2871770    -0.2968200
  N        0.3743340    -0.6973860    -0.1281030
  N       -1.9396050    -0.6940620     0.0132050
  C        1.5987580    -0.0472160    -0.4975290
  C        2.3001670     0.7476450     0.5591710
  C        2.8599170    -0.5791270     0.1240600
  C       -0.7916110     0.0679730    -0.1462250
  C       -3.1892790     0.0185180     0.2391280
  H        1.6584990     0.3313320    -1.5170780
  H        1.8133820     0.7968280     1.5261570
  H        2.8068830     1.6562200     0.2533550
  H        3.7595130    -0.5939570    -0.4821470
  H        2.7562930    -1.4149420     0.8077760
  H        0.2670080    -1.6424170    -0.4848710
  H       -1.8163630    -1.5386920     0.5601430
  H       -3.2269270     0.5129170     1.2166470
  H       -4.0142600    -0.6916670     0.1589620
  H       -3.2950640     0.7803290    -0.5317260
units angstrom
no_reorient  #important for SAPT in psi4, default
symmetry c1  #important for SAPT in psi4, default
}

set PROPERTIES_ORIGIN ["COM"]
properties('MP2/aug-cc-pvtz', properties = ['dipole'])
--------------------------------------------------------------------------

    Molecular point group: c1
  Charge       = 0
  Multiplicity = 1
  Basis Set: AUG-CC-PVTZ
    Blend: AUG-CC-PVTZ
  Basis Set: (AUG-CC-PVTZ AUX)
    Blend: AUG-CC-PVTZ-JKFIT

    Orbital Energies [Eh]
    ---------------------

    Doubly Occupied:

       1A    -20.513265     2A    -15.581638     3A    -15.580728
       4A    -11.371442     5A    -11.264187     6A    -11.254940
       7A    -11.228788     8A    -11.223204     9A     -1.384652
      10A     -1.245449    11A     -1.213165    12A     -1.114434
      13A     -0.942888    14A     -0.830459    15A     -0.825016
      16A     -0.775404    17A     -0.737996    18A     -0.698976
      19A     -0.657024    20A     -0.625088    21A     -0.615684
      22A     -0.599735    23A     -0.560080    24A     -0.544028
      25A     -0.538404    26A     -0.515282    27A     -0.452139
      28A     -0.440955    29A     -0.422431    30A     -0.403131
      31A     -0.386830

  @DF-RHF Final Energy:  -379.05220178388606

   => Energetics <=

    Nuclear Repulsion Energy =            379.8453462301458217
    One-Electron Energy =               -1268.7002128418127995
    Two-Electron Energy =                 509.8026648277808590
    Total Energy =                       -379.0522017838860620
  Basis Set: (AUG-CC-PVTZ AUX)
    Blend: AUG-CC-PVTZ-RI
    Molecular point group: c1

    Geometry (in Angstrom), charge = 0, multiplicity = 1:

       Center              X                  Y                   Z               Mass
    ------------   -----------------  -----------------  -----------------  -----------------
         O           -0.796299617907     1.271581822309    -0.283721536429    15.994914619570
         N            0.380506382093    -0.712981177691    -0.115004536429    14.003074004430
         N           -1.933432617907    -0.709657177691     0.026303463571    14.003074004430
         C            1.604930382093    -0.062811177691    -0.484430536429    12.000000000000
         C            2.306339382093     0.732049822309     0.572269463571    12.000000000000
         C            2.866089382093    -0.594722177691     0.137158463571    12.000000000000
         C           -0.785438617907     0.052377822309    -0.133126536429    12.000000000000
         C           -3.183106617907     0.002922822309     0.252226463571    12.000000000000
         H            1.664671382093     0.315736822309    -1.503979536429     1.007825032230
         H            1.819554382093     0.781232822309     1.539255463571     1.007825032230
         H            2.813055382093     1.640624822309     0.266453463571     1.007825032230
         H            3.765685382093    -0.609552177691    -0.469048536429     1.007825032230
         H            2.762465382093    -1.430537177691     0.820874463571     1.007825032230
         H            0.273180382093    -1.658012177691    -0.471772536429     1.007825032230
         H           -1.810190617907    -1.554287177691     0.573241463571     1.007825032230
         H           -3.220754617907     0.497321822309     1.229745463571     1.007825032230
         H           -4.008087617907    -0.707262177691     0.172060463571     1.007825032230
         H           -3.288891617907     0.764733822309    -0.518627536429     1.007825032230

  Basis Set: AUG-CC-PVTZ
    Blend: AUG-CC-PVTZ
  Basis Set: (AUG-CC-PVTZ AUX)
    Blend: AUG-CC-PVTZ-JKFIT
	 Reference Energy          =    -379.0522017838860620 [Eh]
	 Singles Energy            =      -0.0000000000000000 [Eh]
	 Same-Spin Energy          =      -0.3907649538615686 [Eh]
	 Opposite-Spin Energy      =      -1.2600351337576323 [Eh]
	 Correlation Energy        =      -1.6508000876192011 [Eh]
	 Total Energy              =    -380.7030018715052506 [Eh]

	 ================> DF-SCS-MP2 Energies <==================
	-----------------------------------------------------------
	 SCS Same-Spin Scale       =       0.3333333333333333 [-]
	 SCS Opposite-Spin Scale   =       1.2000000000000000 [-]
	 SCS Same-Spin Energy      =      -0.1302549846205229 [Eh]
	 SCS Opposite-Spin Energy  =      -1.5120421605091587 [Eh]
	 SCS Correlation Energy    =      -1.6422971451296817 [Eh]
	 SCS Total Energy          =    -380.6944989290157650 [Eh]
	-----------------------------------------------------------

  Dipole Moment: [D]
     X:    -0.1035      Y:    -3.1823      Z:     0.4956     Total:     3.2223

*** Psi4 exiting successfully. Buy a developer a beer!
