                               Psi4 1.3.2 release

  ==> Input File <==

--------------------------------------------------------------------------
#psi4
#
memory 32 gb

molecule  {
0 1
  O       -0.8024720     1.2871770    -0.2968200
  N        0.3743340    -0.6973860    -0.1281030
  N       -1.9426392    -0.7000732    -0.0363395
  C        1.5987580    -0.0472160    -0.4975290
  C        2.3001670     0.7476450     0.5591710
  C        2.8599170    -0.5791270     0.1240600
  C       -0.7916110     0.0679730    -0.1462250
  C       -3.1892790     0.0185180     0.2391280
  H        1.6584990     0.3313320    -1.5170780
  H        1.8133820     0.7968280     1.5261570
  H        2.8068830     1.6562200     0.2533550
  H        3.7595130    -0.5939570    -0.4821470
  H        2.7562930    -1.4149420     0.8077760
  H        0.2670080    -1.6424170    -0.4848710
  H       -1.8163630    -1.5386920     0.5601430
  H       -3.2269270     0.5129170     1.2166470
  H       -4.0142600    -0.6916670     0.1589620
  H       -3.2950640     0.7803290    -0.5317260
units angstrom
no_reorient  #important for SAPT in psi4, default
symmetry c1  #important for SAPT in psi4, default
}

set PROPERTIES_ORIGIN ["COM"]
properties('MP2/aug-cc-pvtz', properties = ['dipole'])
--------------------------------------------------------------------------

    Molecular point group: c1
  Charge       = 0
  Multiplicity = 1
  Basis Set: AUG-CC-PVTZ
    Blend: AUG-CC-PVTZ
  Basis Set: (AUG-CC-PVTZ AUX)
    Blend: AUG-CC-PVTZ-JKFIT

    Orbital Energies [Eh]
    ---------------------

    Doubly Occupied:

       1A    -20.514440     2A    -15.584052     3A    -15.581994
       4A    -11.371655     5A    -11.264442     6A    -11.255378
       7A    -11.228971     8A    -11.223457     9A     -1.385289
      10A     -1.245264    11A     -1.211166    12A     -1.114449
      13A     -0.941891    14A     -0.830342    15A     -0.824189
      16A     -0.772516    17A     -0.735365    18A     -0.698910
      19A     -0.657246    20A     -0.625356    21A     -0.615759
      22A     -0.597678    23A     -0.556483    24A     -0.542630
      25A     -0.539238    26A     -0.515504    27A     -0.452999
      28A     -0.441327    29A     -0.422760    30A     -0.405770
      31A     -0.388298

  @DF-RHF Final Energy:  -379.05014858412540

   => Energetics <=

    Nuclear Repulsion Energy =            379.6282058217995541
    One-Electron Energy =               -1268.2670708859332080
    Two-Electron Energy =                 509.5887164800082019
    Total Energy =                       -379.0501485841253952
  Basis Set: (AUG-CC-PVTZ AUX)
    Blend: AUG-CC-PVTZ-RI
    Molecular point group: c1

    Geometry (in Angstrom), charge = 0, multiplicity = 1:

       Center              X                  Y                   Z               Mass
    ------------   -----------------  -----------------  -----------------  -----------------
         O           -0.795927174157     1.272319688590    -0.277640019263    15.994914619570
         N            0.380878825843    -0.712243311410    -0.108923019263    14.003074004430
         N           -1.936094374157    -0.714930511410    -0.017159519263    14.003074004430
         C            1.605302825843    -0.062073311410    -0.478349019263    12.000000000000
         C            2.306711825843     0.732787688590     0.578350980737    12.000000000000
         C            2.866461825843    -0.593984311410     0.143239980737    12.000000000000
         C           -0.785066174157     0.053115688590    -0.127045019263    12.000000000000
         C           -3.182734174157     0.003660688590     0.258307980737    12.000000000000
         H            1.665043825843     0.316474688590    -1.497898019263     1.007825032230
         H            1.819926825843     0.781970688590     1.545336980737     1.007825032230
         H            2.813427825843     1.641362688590     0.272534980737     1.007825032230
         H            3.766057825843    -0.608814311410    -0.462967019263     1.007825032230
         H            2.762837825843    -1.429799311410     0.826955980737     1.007825032230
         H            0.273552825843    -1.657274311410    -0.465691019263     1.007825032230
         H           -1.809818174157    -1.553549311410     0.579322980737     1.007825032230
         H           -3.220382174157     0.498059688590     1.235826980737     1.007825032230
         H           -4.007715174157    -0.706524311410     0.178141980737     1.007825032230
         H           -3.288519174157     0.765471688590    -0.512546019263     1.007825032230

  Basis Set: AUG-CC-PVTZ
    Blend: AUG-CC-PVTZ
  Basis Set: (AUG-CC-PVTZ AUX)
    Blend: AUG-CC-PVTZ-JKFIT
	 Reference Energy          =    -379.0501485841253952 [Eh]
	 Singles Energy            =      -0.0000000000000000 [Eh]
	 Same-Spin Energy          =      -0.3908924964677472 [Eh]
	 Opposite-Spin Energy      =      -1.2606689212644235 [Eh]
	 Correlation Energy        =      -1.6515614177321707 [Eh]
	 Total Energy              =    -380.7017100018575775 [Eh]

	 ================> DF-SCS-MP2 Energies <==================
	-----------------------------------------------------------
	 SCS Same-Spin Scale       =       0.3333333333333333 [-]
	 SCS Opposite-Spin Scale   =       1.2000000000000000 [-]
	 SCS Same-Spin Energy      =      -0.1302974988225824 [Eh]
	 SCS Opposite-Spin Energy  =      -1.5128027055173081 [Eh]
	 SCS Correlation Energy    =      -1.6431002043398906 [Eh]
	 SCS Total Energy          =    -380.6932487884652687 [Eh]
	-----------------------------------------------------------

  Dipole Moment: [D]
     X:    -0.0568      Y:    -3.1164      Z:     0.5721     Total:     3.1690

*** Psi4 exiting successfully. Buy a developer a beer!
