                               Psi4 1.3.2 release

  ==> Input File <==

--------------------------------------------------------------------------
#psi4
#
memory 32 gb

molecule  {
0 1
  O       -0.8024720     1.2871770    -0.2968200
  N        0.3743340    -0.6973860    -0.1281030
  N       -1.9578104    -0.7301295    -0.2840621
  C        1.5987580    -0.0472160    -0.4975290
  C        2.3001670     0.7476450     0.5591710
  C        2.8599170    -0.5791270     0.1240600
  C       -0.7916110     0.0679730    -0.1462250
  C       -3.1892790     0.0185180     0.2391280
  H        1.6584990     0.3313320    -1.5170780
  H        1.8133820     0.7968280     1.5261570
  H        2.8068830     1.6562200     0.2533550
  H        3.7595130    -0.5939570    -0.4821470
  H        2.7562930    -1.4149420     0.8077760
  H        0.2670080    -1.6424170    -0.4848710
  H       -1.8163630    -1.5386920     0.5601430
  H       -3.2269270     0.5129170     1.2166470
  H       -4.0142600    -0.6916670     0.1589620
  H       -3.2950640     0.7803290    -0.5317260
units angstrom
no_reorient  #important for SAPT in psi4, default
symmetry c1  #important for SAPT in psi4, default
}

set PROPERTIES_ORIGIN ["COM"]
properties('MP2/aug-cc-pvtz', properties = ['dipole'])
--------------------------------------------------------------------------

    Molecular point group: c1
  Charge       = 0
  Multiplicity = 1
  Basis Set: AUG-CC-PVTZ
    Blend: AUG-CC-PVTZ
  Basis Set: (AUG-CC-PVTZ AUX)
    Blend: AUG-CC-PVTZ-JKFIT

    Orbital Energies [Eh]
    ---------------------

    Doubly Occupied:

       1A    -20.522880     2A    -15.606202     3A    -15.584682
       4A    -11.375850     5A    -11.266175     6A    -11.259272
       7A    -11.230238     8A    -11.225099     9A     -1.388404
      10A     -1.244703    11A     -1.193418    12A     -1.114183
      13A     -0.933591    14A     -0.831624    15A     -0.823400
      16A     -0.765227    17A     -0.710945    18A     -0.696711
      19A     -0.657210    20A     -0.623066    21A     -0.616701
      22A     -0.592032    23A     -0.549877    24A     -0.538143
      25A     -0.516931    26A     -0.512718    27A     -0.458664
      28A     -0.443789    29A     -0.428465    30A     -0.420432
      31A     -0.391799

  @DF-RHF Final Energy:  -379.01004870239501

   => Energetics <=

    Nuclear Repulsion Energy =            377.7699914235592473
    One-Electron Energy =               -1264.5152239081783136
    Two-Electron Energy =                 507.7351837822239986
    Total Energy =                       -379.0100487023950109
  Basis Set: (AUG-CC-PVTZ AUX)
    Blend: AUG-CC-PVTZ-RI
    Molecular point group: c1

    Geometry (in Angstrom), charge = 0, multiplicity = 1:

       Center              X                  Y                   Z               Mass
    ------------   -----------------  -----------------  -----------------  -----------------
         O           -0.794064930856     1.276009056823    -0.247232421157    15.994914619570
         N            0.382741069144    -0.708553943177    -0.078515421157    14.003074004430
         N           -1.949403330856    -0.741297443177    -0.234474521157    14.003074004430
         C            1.607165069144    -0.058383943177    -0.447941421157    12.000000000000
         C            2.308574069144     0.736477056823     0.608758578843    12.000000000000
         C            2.868324069144    -0.590294943177     0.173647578843    12.000000000000
         C           -0.783203930856     0.056805056823    -0.096637421157    12.000000000000
         C           -3.180871930856     0.007350056823     0.288715578843    12.000000000000
         H            1.666906069144     0.320164056823    -1.467490421157     1.007825032230
         H            1.821789069144     0.785660056823     1.575744578843     1.007825032230
         H            2.815290069144     1.645052056823     0.302942578843     1.007825032230
         H            3.767920069144    -0.605124943177    -0.432559421157     1.007825032230
         H            2.764700069144    -1.426109943177     0.857363578843     1.007825032230
         H            0.275415069144    -1.653584943177    -0.435283421157     1.007825032230
         H           -1.807955930856    -1.549859943177     0.609730578843     1.007825032230
         H           -3.218519930856     0.501749056823     1.266234578843     1.007825032230
         H           -4.005852930856    -0.702834943177     0.208549578843     1.007825032230
         H           -3.286656930856     0.769161056823    -0.482138421157     1.007825032230

  Basis Set: AUG-CC-PVTZ
    Blend: AUG-CC-PVTZ
  Basis Set: (AUG-CC-PVTZ AUX)
    Blend: AUG-CC-PVTZ-JKFIT
	 Reference Energy          =    -379.0100487023950109 [Eh]
	 Singles Energy            =      -0.0000000000000000 [Eh]
	 Same-Spin Energy          =      -0.3927101242024831 [Eh]
	 Opposite-Spin Energy      =      -1.2674461214102974 [Eh]
	 Correlation Energy        =      -1.6601562456127805 [Eh]
	 Total Energy              =    -380.6702049480077790 [Eh]

	 ================> DF-SCS-MP2 Energies <==================
	-----------------------------------------------------------
	 SCS Same-Spin Scale       =       0.3333333333333333 [-]
	 SCS Opposite-Spin Scale   =       1.2000000000000000 [-]
	 SCS Same-Spin Energy      =      -0.1309033747341610 [Eh]
	 SCS Opposite-Spin Energy  =      -1.5209353456923569 [Eh]
	 SCS Correlation Energy    =      -1.6518387204265179 [Eh]
	 SCS Total Energy          =    -380.6618874228215077 [Eh]
	-----------------------------------------------------------

  Dipole Moment: [D]
     X:     0.2607      Y:    -2.7192      Z:     0.8668     Total:     2.8659

*** Psi4 exiting successfully. Buy a developer a beer!
