                               Psi4 1.3.2 release

  ==> Input File <==

--------------------------------------------------------------------------
#psi4
#
memory 32 gb

molecule  {
0 1
  O       -0.8024720     1.2871770    -0.2968200
  N        0.3743340    -0.6973860    -0.1281030
  N       -1.9517419    -0.7181070    -0.1849730
  C        1.5987580    -0.0472160    -0.4975290
  C        2.3001670     0.7476450     0.5591710
  C        2.8599170    -0.5791270     0.1240600
  C       -0.7916110     0.0679730    -0.1462250
  C       -3.1892790     0.0185180     0.2391280
  H        1.6584990     0.3313320    -1.5170780
  H        1.8133820     0.7968280     1.5261570
  H        2.8068830     1.6562200     0.2533550
  H        3.7595130    -0.5939570    -0.4821470
  H        2.7562930    -1.4149420     0.8077760
  H        0.2670080    -1.6424170    -0.4848710
  H       -1.8163630    -1.5386920     0.5601430
  H       -3.2269270     0.5129170     1.2166470
  H       -4.0142600    -0.6916670     0.1589620
  H       -3.2950640     0.7803290    -0.5317260
units angstrom
no_reorient  #important for SAPT in psi4, default
symmetry c1  #important for SAPT in psi4, default
}

set PROPERTIES_ORIGIN ["COM"]
properties('MP2/aug-cc-pvtz', properties = ['dipole'])
--------------------------------------------------------------------------

    Molecular point group: c1
  Charge       = 0
  Multiplicity = 1
  Basis Set: AUG-CC-PVTZ
    Blend: AUG-CC-PVTZ
  Basis Set: (AUG-CC-PVTZ AUX)
    Blend: AUG-CC-PVTZ-JKFIT

    Orbital Energies [Eh]
    ---------------------

    Doubly Occupied:

       1A    -20.519179     2A    -15.596285     3A    -15.583506
       4A    -11.373565     5A    -11.265429     6A    -11.257308
       7A    -11.229694     8A    -11.224404     9A     -1.387228
      10A     -1.244827    11A     -1.202120    12A     -1.114419
      13A     -0.937414    14A     -0.830928    15A     -0.823075
      16A     -0.766521    17A     -0.721703    18A     -0.698445
      19A     -0.657456    20A     -0.624763    21A     -0.616455
      22A     -0.593478    23A     -0.547927    24A     -0.542926
      25A     -0.527436    26A     -0.516328    27A     -0.456282
      28A     -0.442737    29A     -0.424670    30A     -0.415808
      31A     -0.390946

  @DF-RHF Final Energy:  -379.03211510345585

   => Energetics <=

    Nuclear Repulsion Energy =            378.6566760663827722
    One-Electron Energy =               -1266.3110583001114264
    Two-Electron Energy =                 508.6222671302728600
    Total Energy =                       -379.0321151034558511
  Basis Set: (AUG-CC-PVTZ AUX)
    Blend: AUG-CC-PVTZ-RI
    Molecular point group: c1

    Geometry (in Angstrom), charge = 0, multiplicity = 1:

       Center              X                  Y                   Z               Mass
    ------------   -----------------  -----------------  -----------------  -----------------
         O           -0.794809830631     1.274533311985    -0.259395467764    15.994914619570
         N            0.381996169369    -0.710029688015    -0.090678467764    14.003074004430
         N           -1.944079730631    -0.730750688015    -0.147548467764    14.003074004430
         C            1.606420169369    -0.059859688015    -0.460104467764    12.000000000000
         C            2.307829169369     0.735001311985     0.596595532236    12.000000000000
         C            2.867579169369    -0.591770688015     0.161484532236    12.000000000000
         C           -0.783948830631     0.055329311985    -0.108800467764    12.000000000000
         C           -3.181616830631     0.005874311985     0.276552532236    12.000000000000
         H            1.666161169369     0.318688311985    -1.479653467764     1.007825032230
         H            1.821044169369     0.784184311985     1.563581532236     1.007825032230
         H            2.814545169369     1.643576311985     0.290779532236     1.007825032230
         H            3.767175169369    -0.606600688015    -0.444722467764     1.007825032230
         H            2.763955169369    -1.427585688015     0.845200532236     1.007825032230
         H            0.274670169369    -1.655060688015    -0.447446467764     1.007825032230
         H           -1.808700830631    -1.551335688015     0.597567532236     1.007825032230
         H           -3.219264830631     0.500273311985     1.254071532236     1.007825032230
         H           -4.006597830631    -0.704310688015     0.196386532236     1.007825032230
         H           -3.287401830631     0.767685311985    -0.494301467764     1.007825032230

  Basis Set: AUG-CC-PVTZ
    Blend: AUG-CC-PVTZ
  Basis Set: (AUG-CC-PVTZ AUX)
    Blend: AUG-CC-PVTZ-JKFIT
	 Reference Energy          =    -379.0321151034558511 [Eh]
	 Singles Energy            =      -0.0000000000000000 [Eh]
	 Same-Spin Energy          =      -0.3917202726517353 [Eh]
	 Opposite-Spin Energy      =      -1.2639613740326614 [Eh]
	 Correlation Energy        =      -1.6556816466843967 [Eh]
	 Total Energy              =    -380.6877967501402509 [Eh]

	 ================> DF-SCS-MP2 Energies <==================
	-----------------------------------------------------------
	 SCS Same-Spin Scale       =       0.3333333333333333 [-]
	 SCS Opposite-Spin Scale   =       1.2000000000000000 [-]
	 SCS Same-Spin Energy      =      -0.1305734242172451 [Eh]
	 SCS Opposite-Spin Energy  =      -1.5167536488391937 [Eh]
	 SCS Correlation Energy    =      -1.6473270730564389 [Eh]
	 SCS Total Energy          =    -380.6794421765122820 [Eh]
	-----------------------------------------------------------

  Dipole Moment: [D]
     X:     0.1231      Y:    -2.8863      Z:     0.7676     Total:     2.9892

*** Psi4 exiting successfully. Buy a developer a beer!
