                               Psi4 1.3.2 release

  ==> Input File <==

--------------------------------------------------------------------------
#psi4
#
memory 32 gb

molecule  {
0 1
  O       -0.8024720     1.2871770    -0.2968200
  N        0.3743340    -0.6973860    -0.1281030
  N       -1.9487077    -0.7120957    -0.1354285
  C        1.5987580    -0.0472160    -0.4975290
  C        2.3001670     0.7476450     0.5591710
  C        2.8599170    -0.5791270     0.1240600
  C       -0.7916110     0.0679730    -0.1462250
  C       -3.1892790     0.0185180     0.2391280
  H        1.6584990     0.3313320    -1.5170780
  H        1.8133820     0.7968280     1.5261570
  H        2.8068830     1.6562200     0.2533550
  H        3.7595130    -0.5939570    -0.4821470
  H        2.7562930    -1.4149420     0.8077760
  H        0.2670080    -1.6424170    -0.4848710
  H       -1.8163630    -1.5386920     0.5601430
  H       -3.2269270     0.5129170     1.2166470
  H       -4.0142600    -0.6916670     0.1589620
  H       -3.2950640     0.7803290    -0.5317260
units angstrom
no_reorient  #important for SAPT in psi4, default
symmetry c1  #important for SAPT in psi4, default
}

set PROPERTIES_ORIGIN ["COM"]
properties('MP2/aug-cc-pvtz', properties = ['dipole'])
--------------------------------------------------------------------------

    Molecular point group: c1
  Charge       = 0
  Multiplicity = 1
  Basis Set: AUG-CC-PVTZ
    Blend: AUG-CC-PVTZ
  Basis Set: (AUG-CC-PVTZ AUX)
    Blend: AUG-CC-PVTZ-JKFIT

    Orbital Energies [Eh]
    ---------------------

    Doubly Occupied:

       1A    -20.517448     2A    -15.591832     3A    -15.582950
       4A    -11.372721     5A    -11.265074     6A    -11.256541
       7A    -11.229434     8A    -11.224067     9A     -1.386594
      10A     -1.244942    11A     -1.205666    12A     -1.114456
      13A     -0.939117    14A     -0.830643    15A     -0.823203
      16A     -0.767920    17A     -0.727066    18A     -0.698706
      19A     -0.657467    20A     -0.625204    21A     -0.616212
      22A     -0.594544    23A     -0.549119    24A     -0.543830
      25A     -0.533125    26A     -0.516035    27A     -0.455094
      28A     -0.442237    29A     -0.423775    30A     -0.412414
      31A     -0.390298

  @DF-RHF Final Energy:  -379.04015017384137

   => Energetics <=

    Nuclear Repulsion Energy =            379.0312510705442719
    One-Electron Energy =               -1267.0673302329230410
    Two-Electron Energy =                 508.9959289885374005
    Total Energy =                       -379.0401501738413685
  Basis Set: (AUG-CC-PVTZ AUX)
    Blend: AUG-CC-PVTZ-RI
    Molecular point group: c1

    Geometry (in Angstrom), charge = 0, multiplicity = 1:

       Center              X                  Y                   Z               Mass
    ------------   -----------------  -----------------  -----------------  -----------------
         O           -0.795182274381     1.273795433428    -0.265476984930    15.994914619570
         N            0.381623725619    -0.710767566572    -0.096759984930    14.003074004430
         N           -1.941417974381    -0.725477266572    -0.104085484930    14.003074004430
         C            1.606047725619    -0.060597566572    -0.466185984930    12.000000000000
         C            2.307456725619     0.734263433428     0.590514015070    12.000000000000
         C            2.867206725619    -0.592508566572     0.155403015070    12.000000000000
         C           -0.784321274381     0.054591433428    -0.114881984930    12.000000000000
         C           -3.181989274381     0.005136433428     0.270471015070    12.000000000000
         H            1.665788725619     0.317950433428    -1.485734984930     1.007825032230
         H            1.820671725619     0.783446433428     1.557500015070     1.007825032230
         H            2.814172725619     1.642838433428     0.284698015070     1.007825032230
         H            3.766802725619    -0.607338566572    -0.450803984930     1.007825032230
         H            2.763582725619    -1.428323566572     0.839119015070     1.007825032230
         H            0.274297725619    -1.655798566572    -0.453527984930     1.007825032230
         H           -1.809073274381    -1.552073566572     0.591486015070     1.007825032230
         H           -3.219637274381     0.499535433428     1.247990015070     1.007825032230
         H           -4.006970274381    -0.705048566572     0.190305015070     1.007825032230
         H           -3.287774274381     0.766947433428    -0.500382984930     1.007825032230

  Basis Set: AUG-CC-PVTZ
    Blend: AUG-CC-PVTZ
  Basis Set: (AUG-CC-PVTZ AUX)
    Blend: AUG-CC-PVTZ-JKFIT
	 Reference Energy          =    -379.0401501738413685 [Eh]
	 Singles Energy            =      -0.0000000000000000 [Eh]
	 Same-Spin Energy          =      -0.3913635251182597 [Eh]
	 Opposite-Spin Energy      =      -1.2626187028587486 [Eh]
	 Correlation Energy        =      -1.6539822279770082 [Eh]
	 Total Energy              =    -380.6941324018183650 [Eh]

	 ================> DF-SCS-MP2 Energies <==================
	-----------------------------------------------------------
	 SCS Same-Spin Scale       =       0.3333333333333333 [-]
	 SCS Opposite-Spin Scale   =       1.2000000000000000 [-]
	 SCS Same-Spin Energy      =      -0.1304545083727532 [Eh]
	 SCS Opposite-Spin Energy  =      -1.5151424434304983 [Eh]
	 SCS Correlation Energy    =      -1.6455969518032516 [Eh]
	 SCS Total Energy          =    -380.6857471256446388 [Eh]
	-----------------------------------------------------------

  Dipole Moment: [D]
     X:     0.0581      Y:    -2.9671      Z:     0.7083     Total:     3.0510

*** Psi4 exiting successfully. Buy a developer a beer!
