                               Psi4 1.3.2 release

  ==> Input File <==

--------------------------------------------------------------------------
#psi4
#
memory 32 gb

molecule  {
0 1
  O       -0.8024720     1.2871770    -0.2968200
  N        0.3743340    -0.6973860    -0.1281030
  N       -1.9456735    -0.7060845    -0.0858840
  C        1.5987580    -0.0472160    -0.4975290
  C        2.3001670     0.7476450     0.5591710
  C        2.8599170    -0.5791270     0.1240600
  C       -0.7916110     0.0679730    -0.1462250
  C       -3.1892790     0.0185180     0.2391280
  H        1.6584990     0.3313320    -1.5170780
  H        1.8133820     0.7968280     1.5261570
  H        2.8068830     1.6562200     0.2533550
  H        3.7595130    -0.5939570    -0.4821470
  H        2.7562930    -1.4149420     0.8077760
  H        0.2670080    -1.6424170    -0.4848710
  H       -1.8163630    -1.5386920     0.5601430
  H       -3.2269270     0.5129170     1.2166470
  H       -4.0142600    -0.6916670     0.1589620
  H       -3.2950640     0.7803290    -0.5317260
units angstrom
no_reorient  #important for SAPT in psi4, default
symmetry c1  #important for SAPT in psi4, default
}

set PROPERTIES_ORIGIN ["COM"]
properties('MP2/aug-cc-pvtz', properties = ['dipole'])
--------------------------------------------------------------------------

    Molecular point group: c1
  Charge       = 0
  Multiplicity = 1
  Basis Set: AUG-CC-PVTZ
    Blend: AUG-CC-PVTZ
  Basis Set: (AUG-CC-PVTZ AUX)
    Blend: AUG-CC-PVTZ-JKFIT

    Orbital Energies [Eh]
    ---------------------

    Doubly Occupied:

       1A    -20.515851     2A    -15.587752     3A    -15.582439
       4A    -11.372083     5A    -11.264741     6A    -11.255904
       7A    -11.229190     8A    -11.223748     9A     -1.385943
      10A     -1.245090    11A     -1.208676    12A     -1.114461
      13A     -0.940623    14A     -0.830432    15A     -0.823569
      16A     -0.769939    17A     -0.731710    18A     -0.698835
      19A     -0.657397    20A     -0.625398    21A     -0.615959
      22A     -0.595932    23A     -0.552549    24A     -0.543043
      25A     -0.537240    26A     -0.515758    27A     -0.453990
      28A     -0.441762    29A     -0.423188    30A     -0.408946
      31A     -0.389438

  @DF-RHF Final Energy:  -379.04615385472277

   => Energetics <=

    Nuclear Repulsion Energy =            379.3560070136302329
    One-Electron Energy =               -1267.7211482405166407
    Two-Electron Energy =                 509.3189873721636332
    Total Energy =                       -379.0461538547227747
  Basis Set: (AUG-CC-PVTZ AUX)
    Blend: AUG-CC-PVTZ-RI
    Molecular point group: c1

    Geometry (in Angstrom), charge = 0, multiplicity = 1:

       Center              X                  Y                   Z               Mass
    ------------   -----------------  -----------------  -----------------  -----------------
         O           -0.795554718132     1.273057567147    -0.271558502096    15.994914619570
         N            0.381251281868    -0.711505432853    -0.102841502096    14.003074004430
         N           -1.938756218132    -0.720203932853    -0.060622502096    14.003074004430
         C            1.605675281868    -0.061335432853    -0.472267502096    12.000000000000
         C            2.307084281868     0.733525567147     0.584432497904    12.000000000000
         C            2.866834281868    -0.593246432853     0.149321497904    12.000000000000
         C           -0.784693718132     0.053853567147    -0.120963502096    12.000000000000
         C           -3.182361718132     0.004398567147     0.264389497904    12.000000000000
         H            1.665416281868     0.317212567147    -1.491816502096     1.007825032230
         H            1.820299281868     0.782708567147     1.551418497904     1.007825032230
         H            2.813800281868     1.642100567147     0.278616497904     1.007825032230
         H            3.766430281868    -0.608076432853    -0.456885502096     1.007825032230
         H            2.763210281868    -1.429061432853     0.833037497904     1.007825032230
         H            0.273925281868    -1.656536432853    -0.459609502096     1.007825032230
         H           -1.809445718132    -1.552811432853     0.585404497904     1.007825032230
         H           -3.220009718132     0.498797567147     1.241908497904     1.007825032230
         H           -4.007342718132    -0.705786432853     0.184223497904     1.007825032230
         H           -3.288146718132     0.766209567147    -0.506464502096     1.007825032230

  Basis Set: AUG-CC-PVTZ
    Blend: AUG-CC-PVTZ
  Basis Set: (AUG-CC-PVTZ AUX)
    Blend: AUG-CC-PVTZ-JKFIT
	 Reference Energy          =    -379.0461538547227747 [Eh]
	 Singles Energy            =      -0.0000000000000000 [Eh]
	 Same-Spin Energy          =      -0.3910897954690078 [Eh]
	 Opposite-Spin Energy      =      -1.2615257238362205 [Eh]
	 Correlation Energy        =      -1.6526155193052283 [Eh]
	 Total Energy              =    -380.6987693740280179 [Eh]

	 ================> DF-SCS-MP2 Energies <==================
	-----------------------------------------------------------
	 SCS Same-Spin Scale       =       0.3333333333333333 [-]
	 SCS Opposite-Spin Scale   =       1.2000000000000000 [-]
	 SCS Same-Spin Energy      =      -0.1303632651563359 [Eh]
	 SCS Opposite-Spin Energy  =      -1.5138308686034645 [Eh]
	 SCS Correlation Energy    =      -1.6441941337598005 [Eh]
	 SCS Total Energy          =    -380.6903479884825856 [Eh]
	-----------------------------------------------------------

  Dipole Moment: [D]
     X:    -0.0024      Y:    -3.0442      Z:     0.6431     Total:     3.1114

*** Psi4 exiting successfully. Buy a developer a beer!
