                               Psi4 1.3.2 release

  ==> Input File <==

--------------------------------------------------------------------------
#psi4
#
memory 32 gb

molecule  {
0 1
  O       -1.2542770    -0.2468050     0.3469180
  O       -0.1468590     1.6858550    -0.1065980
  O        2.1477990    -1.6706520    -0.3530900
  C        1.0245608    -0.1489108     0.9690365
  C       -2.4120090     0.3089700    -0.3319760
  C       -0.1772750     0.5642190     0.3788660
  C        2.0280760    -0.5019680    -0.0034050
  C       -3.4935710    -0.7441700    -0.2685760
  C        2.8657550     0.6173710    -0.5671120
  H        0.6699150    -1.0123850     1.5771470
  H        1.4326490     0.6059550     1.7585010
  H       -2.7005340     1.2360120     0.1703920
  H       -2.1291700     0.5558430    -1.3586020
  H       -4.3948760    -0.3798980    -0.7694460
  H       -3.1658200    -1.6603590    -0.7638670
  H       -3.7423020    -0.9776200     0.7686940
  H        3.4353450     0.2519410    -1.4221430
  H        3.5571500     0.9732660     0.2049480
  H        2.2307250     1.4606800    -0.8503130
units angstrom
no_reorient  #important for SAPT in psi4, default
symmetry c1  #important for SAPT in psi4, default
}

set PROPERTIES_ORIGIN ["COM"]
properties('MP2/aug-cc-pvtz', properties = ['dipole'])
--------------------------------------------------------------------------

    Molecular point group: c1
  Charge       = 0
  Multiplicity = 1
  Basis Set: AUG-CC-PVTZ
    Blend: AUG-CC-PVTZ
  Basis Set: (AUG-CC-PVTZ AUX)
    Blend: AUG-CC-PVTZ-JKFIT

    Orbital Energies [Eh]
    ---------------------

    Doubly Occupied:

       1A    -20.617358     2A    -20.560293     3A    -20.555262
       4A    -11.403345     5A    -11.342636     6A    -11.298002
       7A    -11.267161     8A    -11.235243     9A    -11.230575
      10A     -1.468672    11A     -1.389363    12A     -1.367913
      13A     -1.089455    14A     -1.043929    15A     -0.989617
      16A     -0.879940    17A     -0.805527    18A     -0.760054
      19A     -0.709986    20A     -0.694677    21A     -0.679402
      22A     -0.654844    23A     -0.642925    24A     -0.602730
      25A     -0.586512    26A     -0.573452    27A     -0.564525
      28A     -0.552796    29A     -0.530381    30A     -0.522975
      31A     -0.514114    32A     -0.500414    33A     -0.471040
      34A     -0.456295    35A     -0.429680

  @DF-RHF Final Energy:  -457.79638571526323

   => Energetics <=

    Nuclear Repulsion Energy =            454.3390488129933260
    One-Electron Energy =               -1526.2886821719819181
    Two-Electron Energy =                 614.1532476437254218
    Total Energy =                       -457.7963857152632272
  Basis Set: (AUG-CC-PVTZ AUX)
    Blend: AUG-CC-PVTZ-RI
    Molecular point group: c1

    Geometry (in Angstrom), charge = 0, multiplicity = 1:

       Center              X                  Y                   Z               Mass
    ------------   -----------------  -----------------  -----------------  -----------------
         O           -1.293678832001    -0.235297947880     0.349776547410    15.994914619570
         O           -0.186260832001     1.697362052120    -0.103739452590    15.994914619570
         O            2.108397167999    -1.659144947880    -0.350231452590    15.994914619570
         C            0.985158967999    -0.137403747880     0.971895047410    12.000000000000
         C           -2.451410832001     0.320477052120    -0.329117452590    12.000000000000
         C           -0.216676832001     0.575726052120     0.381724547410    12.000000000000
         C            1.988674167999    -0.490460947880    -0.000546452590    12.000000000000
         C           -3.532972832001    -0.732662947880    -0.265717452590    12.000000000000
         C            2.826353167999     0.628878052120    -0.564253452590    12.000000000000
         H            0.630513167999    -1.000877947880     1.580005547410     1.007825032230
         H            1.393247167999     0.617462052120     1.761359547410     1.007825032230
         H           -2.739935832001     1.247519052120     0.173250547410     1.007825032230
         H           -2.168571832001     0.567350052120    -1.355743452590     1.007825032230
         H           -4.434277832001    -0.368390947880    -0.766587452590     1.007825032230
         H           -3.205221832001    -1.648851947880    -0.761008452590     1.007825032230
         H           -3.781703832001    -0.966112947880     0.771552547410     1.007825032230
         H            3.395943167999     0.263448052120    -1.419284452590     1.007825032230
         H            3.517748167999     0.984773052120     0.207806547410     1.007825032230
         H            2.191323167999     1.472187052120    -0.847454452590     1.007825032230

  Basis Set: AUG-CC-PVTZ
    Blend: AUG-CC-PVTZ
  Basis Set: (AUG-CC-PVTZ AUX)
    Blend: AUG-CC-PVTZ-JKFIT
	 Reference Energy          =    -457.7963857152632272 [Eh]
	 Singles Energy            =      -0.0000000000000000 [Eh]
	 Same-Spin Energy          =      -0.4489322272886837 [Eh]
	 Opposite-Spin Energy      =      -1.4403584003592602 [Eh]
	 Correlation Energy        =      -1.8892906276479440 [Eh]
	 Total Energy              =    -459.6856763429111652 [Eh]

	 ================> DF-SCS-MP2 Energies <==================
	-----------------------------------------------------------
	 SCS Same-Spin Scale       =       0.3333333333333333 [-]
	 SCS Opposite-Spin Scale   =       1.2000000000000000 [-]
	 SCS Same-Spin Energy      =      -0.1496440757628946 [Eh]
	 SCS Opposite-Spin Energy  =      -1.7284300804311121 [Eh]
	 SCS Correlation Energy    =      -1.8780741561940066 [Eh]
	 SCS Total Energy          =    -459.6744598714572589 [Eh]
	-----------------------------------------------------------

  Dipole Moment: [D]
     X:    -1.4958      Y:     1.1821      Z:     1.0366     Total:     2.1701

*** Psi4 exiting successfully. Buy a developer a beer!
