                               Psi4 1.3.2 release

  ==> Input File <==

--------------------------------------------------------------------------
#psi4
#
memory 32 gb

molecule  {
0 1
  O       -1.2542770    -0.2468050     0.3469180
  O       -0.1468590     1.6858550    -0.1065980
  O        2.1477990    -1.6706520    -0.3530900
  C        0.9946260    -0.1111920     1.0566790
  C       -2.4120090     0.3089700    -0.3319760
  C       -0.1772750     0.5642190     0.3788660
  C        2.0280760    -0.5019680    -0.0034050
  C       -3.4935710    -0.7441700    -0.2685760
  C        2.8317425     0.6246845    -0.6030239
  H        0.6699150    -1.0123850     1.5771470
  H        1.4326490     0.6059550     1.7585010
  H       -2.7005340     1.2360120     0.1703920
  H       -2.1291700     0.5558430    -1.3586020
  H       -4.3948760    -0.3798980    -0.7694460
  H       -3.1658200    -1.6603590    -0.7638670
  H       -3.7423020    -0.9776200     0.7686940
  H        3.4353450     0.2519410    -1.4221430
  H        3.5571500     0.9732660     0.2049480
  H        2.2307250     1.4606800    -0.8503130
units angstrom
no_reorient  #important for SAPT in psi4, default
symmetry c1  #important for SAPT in psi4, default
}

set PROPERTIES_ORIGIN ["COM"]
properties('MP2/aug-cc-pvtz', properties = ['dipole'])
--------------------------------------------------------------------------

    Molecular point group: c1
  Charge       = 0
  Multiplicity = 1
  Basis Set: AUG-CC-PVTZ
    Blend: AUG-CC-PVTZ
  Basis Set: (AUG-CC-PVTZ AUX)
    Blend: AUG-CC-PVTZ-JKFIT

    Orbital Energies [Eh]
    ---------------------

    Doubly Occupied:

       1A    -20.615929     2A    -20.558845     3A    -20.558435
       4A    -11.400615     5A    -11.349938     6A    -11.297132
       7A    -11.263296     8A    -11.237414     9A    -11.229985
      10A     -1.467329    11A     -1.388927    12A     -1.366664
      13A     -1.082554    14A     -1.040868    15A     -0.991269
      16A     -0.876454    17A     -0.799805    18A     -0.756661
      19A     -0.709241    20A     -0.694314    21A     -0.679177
      22A     -0.654957    23A     -0.643185    24A     -0.597129
      25A     -0.591553    26A     -0.574129    27A     -0.569101
      28A     -0.556354    29A     -0.538737    30A     -0.521922
      31A     -0.514755    32A     -0.500506    33A     -0.470135
      34A     -0.458650    35A     -0.423527

  @DF-RHF Final Energy:  -457.80403443114426

   => Energetics <=

    Nuclear Repulsion Energy =            453.3679506930369030
    One-Electron Energy =               -1524.3849870499277586
    Two-Electron Energy =                 613.2130019257466529
    Total Energy =                       -457.8040344311442595
  Basis Set: (AUG-CC-PVTZ AUX)
    Blend: AUG-CC-PVTZ-RI
    Molecular point group: c1

    Geometry (in Angstrom), charge = 0, multiplicity = 1:

       Center              X                  Y                   Z               Mass
    ------------   -----------------  -----------------  -----------------  -----------------
         O           -1.287778863261    -0.239452762272     0.345003727870    15.994914619570
         O           -0.180360863261     1.693207237728    -0.108512272130    15.994914619570
         O            2.114297136739    -1.663299762272    -0.355004272130    15.994914619570
         C            0.961124136739    -0.103839762272     1.054764727870    12.000000000000
         C           -2.445510863261     0.316322237728    -0.333890272130    12.000000000000
         C           -0.210776863261     0.571571237728     0.376951727870    12.000000000000
         C            1.994574136739    -0.494615762272    -0.005319272130    12.000000000000
         C           -3.527072863261    -0.736817762272    -0.270490272130    12.000000000000
         C            2.798240636739     0.632036737728    -0.604938172130    12.000000000000
         H            0.636413136739    -1.005032762272     1.575232727870     1.007825032230
         H            1.399147136739     0.613307237728     1.756586727870     1.007825032230
         H           -2.734035863261     1.243364237728     0.168477727870     1.007825032230
         H           -2.162671863261     0.563195237728    -1.360516272130     1.007825032230
         H           -4.428377863261    -0.372545762272    -0.771360272130     1.007825032230
         H           -3.199321863261    -1.653006762272    -0.765781272130     1.007825032230
         H           -3.775803863261    -0.970267762272     0.766779727870     1.007825032230
         H            3.401843136739     0.259293237728    -1.424057272130     1.007825032230
         H            3.523648136739     0.980618237728     0.203033727870     1.007825032230
         H            2.197223136739     1.468032237728    -0.852227272130     1.007825032230

  Basis Set: AUG-CC-PVTZ
    Blend: AUG-CC-PVTZ
  Basis Set: (AUG-CC-PVTZ AUX)
    Blend: AUG-CC-PVTZ-JKFIT
	 Reference Energy          =    -457.8040344311442595 [Eh]
	 Singles Energy            =      -0.0000000000000000 [Eh]
	 Same-Spin Energy          =      -0.4483027968960892 [Eh]
	 Opposite-Spin Energy      =      -1.4394840326357088 [Eh]
	 Correlation Energy        =      -1.8877868295317981 [Eh]
	 Total Energy              =    -459.6918212606760790 [Eh]

	 ================> DF-SCS-MP2 Energies <==================
	-----------------------------------------------------------
	 SCS Same-Spin Scale       =       0.3333333333333333 [-]
	 SCS Opposite-Spin Scale   =       1.2000000000000000 [-]
	 SCS Same-Spin Energy      =      -0.1494342656320297 [Eh]
	 SCS Opposite-Spin Energy  =      -1.7273808391628505 [Eh]
	 SCS Correlation Energy    =      -1.8768151047948802 [Eh]
	 SCS Total Energy          =    -459.6808495359391600 [Eh]
	-----------------------------------------------------------

  Dipole Moment: [D]
     X:    -1.3152      Y:     1.1213      Z:     0.9730     Total:     1.9833

*** Psi4 exiting successfully. Buy a developer a beer!
