                               Psi4 1.3.2 release

  ==> Input File <==

--------------------------------------------------------------------------
#psi4
#
memory 32 gb

molecule  {
0 1
  O       -1.2542770    -0.2468050     0.3469180
  O       -0.1468590     1.6858550    -0.1065980
  O        2.1477990    -1.6706520    -0.3530900
  C        0.9946260    -0.1111920     1.0566790
  C       -2.4120090     0.3089700    -0.3319760
  C       -0.1772750     0.5642190     0.3788660
  C        2.0280760    -0.5019680    -0.0034050
  C       -3.4935710    -0.7441700    -0.2685760
  C        2.7637175     0.6393116    -0.6748476
  H        0.6699150    -1.0123850     1.5771470
  H        1.4326490     0.6059550     1.7585010
  H       -2.7005340     1.2360120     0.1703920
  H       -2.1291700     0.5558430    -1.3586020
  H       -4.3948760    -0.3798980    -0.7694460
  H       -3.1658200    -1.6603590    -0.7638670
  H       -3.7423020    -0.9776200     0.7686940
  H        3.4353450     0.2519410    -1.4221430
  H        3.5571500     0.9732660     0.2049480
  H        2.2307250     1.4606800    -0.8503130
units angstrom
no_reorient  #important for SAPT in psi4, default
symmetry c1  #important for SAPT in psi4, default
}

set PROPERTIES_ORIGIN ["COM"]
properties('MP2/aug-cc-pvtz', properties = ['dipole'])
--------------------------------------------------------------------------

    Molecular point group: c1
  Charge       = 0
  Multiplicity = 1
  Basis Set: AUG-CC-PVTZ
    Blend: AUG-CC-PVTZ
  Basis Set: (AUG-CC-PVTZ AUX)
    Blend: AUG-CC-PVTZ-JKFIT

    Orbital Energies [Eh]
    ---------------------

    Doubly Occupied:

       1A    -20.616308     2A    -20.559405     3A    -20.558310
       4A    -11.401082     5A    -11.351699     6A    -11.297404
       7A    -11.263501     8A    -11.241485     9A    -11.230177
      10A     -1.467748    11A     -1.389055    12A     -1.367164
      13A     -1.082821    14A     -1.041130    15A     -0.992078
      16A     -0.876835    17A     -0.800295    18A     -0.758442
      19A     -0.709654    20A     -0.696007    21A     -0.679548
      22A     -0.662773    23A     -0.643450    24A     -0.601497
      25A     -0.591112    26A     -0.574096    27A     -0.568457
      28A     -0.557868    29A     -0.535111    30A     -0.521760
      31A     -0.515107    32A     -0.489269    33A     -0.470173
      34A     -0.459904    35A     -0.423224

  @DF-RHF Final Energy:  -457.78599286566407

   => Energetics <=

    Nuclear Repulsion Energy =            453.6575020176887847
    One-Electron Energy =               -1524.8990956146590179
    Two-Electron Energy =                 613.4556007313061627
    Total Energy =                       -457.7859928656640705
  Basis Set: (AUG-CC-PVTZ AUX)
    Blend: AUG-CC-PVTZ-RI
    Molecular point group: c1

    Geometry (in Angstrom), charge = 0, multiplicity = 1:

       Center              X                  Y                   Z               Mass
    ------------   -----------------  -----------------  -----------------  -----------------
         O           -1.281502673748    -0.240802302170     0.351630396781    15.994914619570
         O           -0.174084673748     1.691857697830    -0.101885603219    15.994914619570
         O            2.120573326252    -1.664649302170    -0.348377603219    15.994914619570
         C            0.967400326252    -0.105189302170     1.061391396781    12.000000000000
         C           -2.439234673748     0.314972697830    -0.327263603219    12.000000000000
         C           -0.204500673748     0.570221697830     0.383578396781    12.000000000000
         C            2.000850326252    -0.495965302170     0.001307396781    12.000000000000
         C           -3.520796673748    -0.738167302170    -0.263863603219    12.000000000000
         C            2.736491826252     0.645314297830    -0.670135203219    12.000000000000
         H            0.642689326252    -1.006382302170     1.581859396781     1.007825032230
         H            1.405423326252     0.611957697830     1.763213396781     1.007825032230
         H           -2.727759673748     1.242014697830     0.175104396781     1.007825032230
         H           -2.156395673748     0.561845697830    -1.353889603219     1.007825032230
         H           -4.422101673748    -0.373895302170    -0.764733603219     1.007825032230
         H           -3.193045673748    -1.654356302170    -0.759154603219     1.007825032230
         H           -3.769527673748    -0.971617302170     0.773406396781     1.007825032230
         H            3.408119326252     0.257943697830    -1.417430603219     1.007825032230
         H            3.529924326252     0.979268697830     0.209660396781     1.007825032230
         H            2.203499326252     1.466682697830    -0.845600603219     1.007825032230

  Basis Set: AUG-CC-PVTZ
    Blend: AUG-CC-PVTZ
  Basis Set: (AUG-CC-PVTZ AUX)
    Blend: AUG-CC-PVTZ-JKFIT
	 Reference Energy          =    -457.7859928656640705 [Eh]
	 Singles Energy            =      -0.0000000000000000 [Eh]
	 Same-Spin Energy          =      -0.4485553173591293 [Eh]
	 Opposite-Spin Energy      =      -1.4403040046568774 [Eh]
	 Correlation Energy        =      -1.8888593220160068 [Eh]
	 Total Energy              =    -459.6748521876800737 [Eh]

	 ================> DF-SCS-MP2 Energies <==================
	-----------------------------------------------------------
	 SCS Same-Spin Scale       =       0.3333333333333333 [-]
	 SCS Opposite-Spin Scale   =       1.2000000000000000 [-]
	 SCS Same-Spin Energy      =      -0.1495184391197098 [Eh]
	 SCS Opposite-Spin Energy  =      -1.7283648055882528 [Eh]
	 SCS Correlation Energy    =      -1.8778832447079625 [Eh]
	 SCS Total Energy          =    -459.6638761103720299 [Eh]
	-----------------------------------------------------------

  Dipole Moment: [D]
     X:    -1.3320      Y:     1.1222      Z:     0.9398     Total:     1.9790

*** Psi4 exiting successfully. Buy a developer a beer!
