                               Psi4 1.3.2 release

  ==> Input File <==

--------------------------------------------------------------------------
#psi4
#
memory 32 gb

molecule  {
0 1
  O       -1.2542770    -0.2468050     0.3469180
  O       -0.1468590     1.6858550    -0.1065980
  O        2.1477990    -1.6706520    -0.3530900
  C        0.9946260    -0.1111920     1.0566790
  C       -2.4120090     0.3089700    -0.3319760
  C       -0.1772750     0.5642190     0.3788660
  C        2.0280760    -0.5019680    -0.0034050
  C       -3.4935710    -0.7441700    -0.2685760
  C        2.6616801     0.6612522    -0.7825833
  H        0.6699150    -1.0123850     1.5771470
  H        1.4326490     0.6059550     1.7585010
  H       -2.7005340     1.2360120     0.1703920
  H       -2.1291700     0.5558430    -1.3586020
  H       -4.3948760    -0.3798980    -0.7694460
  H       -3.1658200    -1.6603590    -0.7638670
  H       -3.7423020    -0.9776200     0.7686940
  H        3.4353450     0.2519410    -1.4221430
  H        3.5571500     0.9732660     0.2049480
  H        2.2307250     1.4606800    -0.8503130
units angstrom
no_reorient  #important for SAPT in psi4, default
symmetry c1  #important for SAPT in psi4, default
}

set PROPERTIES_ORIGIN ["COM"]
properties('MP2/aug-cc-pvtz', properties = ['dipole'])
--------------------------------------------------------------------------

    Molecular point group: c1
  Charge       = 0
  Multiplicity = 1
  Basis Set: AUG-CC-PVTZ
    Blend: AUG-CC-PVTZ
  Basis Set: (AUG-CC-PVTZ AUX)
    Blend: AUG-CC-PVTZ-JKFIT

    Orbital Energies [Eh]
    ---------------------

    Doubly Occupied:

       1A    -20.616972     2A    -20.560311     3A    -20.558611
       4A    -11.401835     5A    -11.356810     6A    -11.297886
       7A    -11.264203     8A    -11.252520     9A    -11.230532
      10A     -1.468468    11A     -1.389720    12A     -1.367999
      13A     -1.083303    14A     -1.041726    15A     -0.994742
      16A     -0.877631    17A     -0.801392    18A     -0.763984
      19A     -0.711667    20A     -0.701453    21A     -0.683673
      22A     -0.672862    23A     -0.642188    24A     -0.612694
      25A     -0.588731    26A     -0.575572    27A     -0.569005
      28A     -0.555595    29A     -0.529241    30A     -0.521380
      31A     -0.515584    32A     -0.472609    33A     -0.464491
      34A     -0.457297    35A     -0.421678

  @DF-RHF Final Energy:  -457.73079653577565

   => Energetics <=

    Nuclear Repulsion Energy =            453.9303915807194585
    One-Electron Energy =               -1525.2736428420485026
    Two-Electron Energy =                 613.6124547255533344
    Total Energy =                       -457.7307965357756530
  Basis Set: (AUG-CC-PVTZ AUX)
    Blend: AUG-CC-PVTZ-RI
    Molecular point group: c1

    Geometry (in Angstrom), charge = 0, multiplicity = 1:

       Center              X                  Y                   Z               Mass
    ------------   -----------------  -----------------  -----------------  -----------------
         O           -1.272088398706    -0.242826607405     0.361570413987    15.994914619570
         O           -0.164670398706     1.689833392595    -0.091945586013    15.994914619570
         O            2.129987601294    -1.666673607405    -0.338437586013    15.994914619570
         C            0.976814601294    -0.107213607405     1.071331413987    12.000000000000
         C           -2.429820398706     0.312948392595    -0.317323586013    12.000000000000
         C           -0.195086398706     0.568197392595     0.393518413987    12.000000000000
         C            2.010264601294    -0.497989607405     0.011247413987    12.000000000000
         C           -3.511382398706    -0.740191607405    -0.253923586013    12.000000000000
         C            2.643868701294     0.665230592595    -0.767930886013    12.000000000000
         H            0.652103601294    -1.008406607405     1.591799413987     1.007825032230
         H            1.414837601294     0.609933392595     1.773153413987     1.007825032230
         H           -2.718345398706     1.239990392595     0.185044413987     1.007825032230
         H           -2.146981398706     0.559821392595    -1.343949586013     1.007825032230
         H           -4.412687398706    -0.375919607405    -0.754793586013     1.007825032230
         H           -3.183631398706    -1.656380607405    -0.749214586013     1.007825032230
         H           -3.760113398706    -0.973641607405     0.783346413987     1.007825032230
         H            3.417533601294     0.255919392595    -1.407490586013     1.007825032230
         H            3.539338601294     0.977244392595     0.219600413987     1.007825032230
         H            2.212913601294     1.464658392595    -0.835660586013     1.007825032230

  Basis Set: AUG-CC-PVTZ
    Blend: AUG-CC-PVTZ
  Basis Set: (AUG-CC-PVTZ AUX)
    Blend: AUG-CC-PVTZ-JKFIT
	 Reference Energy          =    -457.7307965357756530 [Eh]
	 Singles Energy            =      -0.0000000000000000 [Eh]
	 Same-Spin Energy          =      -0.4494191760356060 [Eh]
	 Opposite-Spin Energy      =      -1.4432638127671713 [Eh]
	 Correlation Energy        =      -1.8926829888027772 [Eh]
	 Total Energy              =    -459.6234795245784426 [Eh]

	 ================> DF-SCS-MP2 Energies <==================
	-----------------------------------------------------------
	 SCS Same-Spin Scale       =       0.3333333333333333 [-]
	 SCS Opposite-Spin Scale   =       1.2000000000000000 [-]
	 SCS Same-Spin Energy      =      -0.1498063920118687 [Eh]
	 SCS Opposite-Spin Energy  =      -1.7319165753206056 [Eh]
	 SCS Correlation Energy    =      -1.8817229673324742 [Eh]
	 SCS Total Energy          =    -459.6125195031081034 [Eh]
	-----------------------------------------------------------

  Dipole Moment: [D]
     X:    -1.3641      Y:     1.1082      Z:     0.8951     Total:     1.9723

*** Psi4 exiting successfully. Buy a developer a beer!
