                               Psi4 1.3.2 release

  ==> Input File <==

--------------------------------------------------------------------------
#psi4
#
memory 32 gb

molecule  {
0 1
  O       -1.2542770    -0.2468050     0.3469180
  O       -0.1468590     1.6858550    -0.1065980
  O        2.1477990    -1.6706520    -0.3530900
  C        0.9946260    -0.1111920     1.0566790
  C       -2.4120090     0.3089700    -0.3319760
  C       -0.1772750     0.5642190     0.3788660
  C        2.0280760    -0.5019680    -0.0034050
  C       -3.4935710    -0.7441700    -0.2685760
  C        2.7297050     0.6466251    -0.7107595
  H        0.6699150    -1.0123850     1.5771470
  H        1.4326490     0.6059550     1.7585010
  H       -2.7005340     1.2360120     0.1703920
  H       -2.1291700     0.5558430    -1.3586020
  H       -4.3948760    -0.3798980    -0.7694460
  H       -3.1658200    -1.6603590    -0.7638670
  H       -3.7423020    -0.9776200     0.7686940
  H        3.4353450     0.2519410    -1.4221430
  H        3.5571500     0.9732660     0.2049480
  H        2.2307250     1.4606800    -0.8503130
units angstrom
no_reorient  #important for SAPT in psi4, default
symmetry c1  #important for SAPT in psi4, default
}

set PROPERTIES_ORIGIN ["COM"]
properties('MP2/aug-cc-pvtz', properties = ['dipole'])
--------------------------------------------------------------------------

    Molecular point group: c1
  Charge       = 0
  Multiplicity = 1
  Basis Set: AUG-CC-PVTZ
    Blend: AUG-CC-PVTZ
  Basis Set: (AUG-CC-PVTZ AUX)
    Blend: AUG-CC-PVTZ-JKFIT

    Orbital Energies [Eh]
    ---------------------

    Doubly Occupied:

       1A    -20.616519     2A    -20.559702     3A    -20.558352
       4A    -11.401328     5A    -11.353109     6A    -11.297556
       7A    -11.263687     8A    -11.244545     9A    -11.230288
      10A     -1.467978    11A     -1.389224    12A     -1.367434
      13A     -1.082975    14A     -1.041303    15A     -0.992779
      16A     -0.877074    17A     -0.800613    18A     -0.759902
      19A     -0.710076    20A     -0.697384    21A     -0.680388
      22A     -0.667103    23A     -0.643248    24A     -0.606092
      25A     -0.589845    26A     -0.574631    27A     -0.568795
      28A     -0.556820    29A     -0.532835    30A     -0.521655
      31A     -0.515280    32A     -0.481735    33A     -0.469871
      34A     -0.460316    35A     -0.422899

  @DF-RHF Final Energy:  -457.77100626134541

   => Energetics <=

    Nuclear Repulsion Energy =            453.7710887378800066
    One-Electron Energy =               -1525.0775098315868945
    Two-Electron Energy =                 613.5354148323614254
    Total Energy =                       -457.7710062613454056
  Basis Set: (AUG-CC-PVTZ AUX)
    Blend: AUG-CC-PVTZ-RI
    Molecular point group: c1

    Geometry (in Angstrom), charge = 0, multiplicity = 1:

       Center              X                  Y                   Z               Mass
    ------------   -----------------  -----------------  -----------------  -----------------
         O           -1.278364578992    -0.241477067507     0.354943735850    15.994914619570
         O           -0.170946578992     1.691182932493    -0.098572264150    15.994914619570
         O            2.123711421008    -1.665324067507    -0.345064264150    15.994914619570
         C            0.970538421008    -0.105864067507     1.064704735850    12.000000000000
         C           -2.436096578992     0.314297932493    -0.323950264150    12.000000000000
         C           -0.201362578992     0.569546932493     0.386891735850    12.000000000000
         C            2.003988421008    -0.496640067507     0.004620735850    12.000000000000
         C           -3.517658578992    -0.738842067507    -0.260550264150    12.000000000000
         C            2.705617421008     0.651953032493    -0.702733764150    12.000000000000
         H            0.645827421008    -1.007057067507     1.585172735850     1.007825032230
         H            1.408561421008     0.611282932493     1.766526735850     1.007825032230
         H           -2.724621578992     1.241339932493     0.178417735850     1.007825032230
         H           -2.153257578992     0.561170932493    -1.350576264150     1.007825032230
         H           -4.418963578992    -0.374570067507    -0.761420264150     1.007825032230
         H           -3.189907578992    -1.655031067507    -0.755841264150     1.007825032230
         H           -3.766389578992    -0.972292067507     0.776719735850     1.007825032230
         H            3.411257421008     0.257268932493    -1.414117264150     1.007825032230
         H            3.533062421008     0.978593932493     0.212973735850     1.007825032230
         H            2.206637421008     1.466007932493    -0.842287264150     1.007825032230

  Basis Set: AUG-CC-PVTZ
    Blend: AUG-CC-PVTZ
  Basis Set: (AUG-CC-PVTZ AUX)
    Blend: AUG-CC-PVTZ-JKFIT
	 Reference Energy          =    -457.7710062613454056 [Eh]
	 Singles Energy            =      -0.0000000000000000 [Eh]
	 Same-Spin Energy          =      -0.4487770270134937 [Eh]
	 Opposite-Spin Energy      =      -1.4410538688606933 [Eh]
	 Correlation Energy        =      -1.8898308958741870 [Eh]
	 Total Energy              =    -459.6608371572195892 [Eh]

	 ================> DF-SCS-MP2 Energies <==================
	-----------------------------------------------------------
	 SCS Same-Spin Scale       =       0.3333333333333333 [-]
	 SCS Opposite-Spin Scale   =       1.2000000000000000 [-]
	 SCS Same-Spin Energy      =      -0.1495923423378312 [Eh]
	 SCS Opposite-Spin Energy  =      -1.7292646426328320 [Eh]
	 SCS Correlation Energy    =      -1.8788569849706631 [Eh]
	 SCS Total Energy          =    -459.6498632463160448 [Eh]
	-----------------------------------------------------------

  Dipole Moment: [D]
     X:    -1.3426      Y:     1.1190      Z:     0.9231     Total:     1.9766

*** Psi4 exiting successfully. Buy a developer a beer!
