                               Psi4 1.3.2 release

  ==> Input File <==

--------------------------------------------------------------------------
#psi4
#
memory 32 gb

molecule  {
0 1
  O       -1.2542770    -0.2468050     0.3469180
  O       -0.1468590     1.6858550    -0.1065980
  O        2.1477990    -1.6706520    -0.3530900
  C        0.9946260    -0.1111920     1.0566790
  C       -2.4120090     0.3089700    -0.3319760
  C       -0.1772750     0.5642190     0.3788660
  C        2.0280760    -0.5019680    -0.0034050
  C       -3.4935710    -0.7441700    -0.2685760
  C        2.6956926     0.6539387    -0.7466714
  H        0.6699150    -1.0123850     1.5771470
  H        1.4326490     0.6059550     1.7585010
  H       -2.7005340     1.2360120     0.1703920
  H       -2.1291700     0.5558430    -1.3586020
  H       -4.3948760    -0.3798980    -0.7694460
  H       -3.1658200    -1.6603590    -0.7638670
  H       -3.7423020    -0.9776200     0.7686940
  H        3.4353450     0.2519410    -1.4221430
  H        3.5571500     0.9732660     0.2049480
  H        2.2307250     1.4606800    -0.8503130
units angstrom
no_reorient  #important for SAPT in psi4, default
symmetry c1  #important for SAPT in psi4, default
}

set PROPERTIES_ORIGIN ["COM"]
properties('MP2/aug-cc-pvtz', properties = ['dipole'])
--------------------------------------------------------------------------

    Molecular point group: c1
  Charge       = 0
  Multiplicity = 1
  Basis Set: AUG-CC-PVTZ
    Blend: AUG-CC-PVTZ
  Basis Set: (AUG-CC-PVTZ AUX)
    Blend: AUG-CC-PVTZ-JKFIT

    Orbital Energies [Eh]
    ---------------------

    Doubly Occupied:

       1A    -20.616741     2A    -20.560005     3A    -20.558455
       4A    -11.401580     5A    -11.354827     6A    -11.297717
       7A    -11.263922     8A    -11.248243     9A    -11.230407
      10A     -1.468219    11A     -1.389449    12A     -1.367713
      13A     -1.083137    14A     -1.041502    15A     -0.993669
      16A     -0.877341    17A     -0.800978    18A     -0.761752
      19A     -0.710703    20A     -0.699245    21A     -0.681830
      22A     -0.670630    23A     -0.642820    24A     -0.609841
      25A     -0.589124    26A     -0.575132    27A     -0.569016
      28A     -0.556040    29A     -0.530828    30A     -0.521529
      31A     -0.515442    32A     -0.474999    33A     -0.468178
      34A     -0.460222    35A     -0.422407

  @DF-RHF Final Energy:  -457.75248606865807

   => Energetics <=

    Nuclear Repulsion Energy =            453.8623893921631520
    One-Electron Energy =               -1525.2024627419746139
    Two-Electron Energy =                 613.5875872811534464
    Total Energy =                       -457.7524860686580723
  Basis Set: (AUG-CC-PVTZ AUX)
    Blend: AUG-CC-PVTZ-RI
    Molecular point group: c1

    Geometry (in Angstrom), charge = 0, multiplicity = 1:

       Center              X                  Y                   Z               Mass
    ------------   -----------------  -----------------  -----------------  -----------------
         O           -1.275226493463    -0.242151842069     0.358257074918    15.994914619570
         O           -0.167808493463     1.690508157931    -0.095258925082    15.994914619570
         O            2.126849506537    -1.665998842069    -0.341750925082    15.994914619570
         C            0.973676506537    -0.106538842069     1.068018074918    12.000000000000
         C           -2.432958493463     0.313623157931    -0.320636925082    12.000000000000
         C           -0.198224493463     0.568872157931     0.390205074918    12.000000000000
         C            2.007126506537    -0.497314842069     0.007934074918    12.000000000000
         C           -3.514520493463    -0.739516842069    -0.257236925082    12.000000000000
         C            2.674743106537     0.658591857931    -0.735332325082    12.000000000000
         H            0.648965506537    -1.007731842069     1.588486074918     1.007825032230
         H            1.411699506537     0.610608157931     1.769840074918     1.007825032230
         H           -2.721483493463     1.240665157931     0.181731074918     1.007825032230
         H           -2.150119493463     0.560496157931    -1.347262925082     1.007825032230
         H           -4.415825493463    -0.375244842069    -0.758106925082     1.007825032230
         H           -3.186769493463    -1.655705842069    -0.752527925082     1.007825032230
         H           -3.763251493463    -0.972966842069     0.780033074918     1.007825032230
         H            3.414395506537     0.256594157931    -1.410803925082     1.007825032230
         H            3.536200506537     0.977919157931     0.216287074918     1.007825032230
         H            2.209775506537     1.465333157931    -0.838973925082     1.007825032230

  Basis Set: AUG-CC-PVTZ
    Blend: AUG-CC-PVTZ
  Basis Set: (AUG-CC-PVTZ AUX)
    Blend: AUG-CC-PVTZ-JKFIT
	 Reference Energy          =    -457.7524860686580723 [Eh]
	 Singles Energy            =      -0.0000000000000000 [Eh]
	 Same-Spin Energy          =      -0.4490641357244863 [Eh]
	 Opposite-Spin Energy      =      -1.4420383376363077 [Eh]
	 Correlation Energy        =      -1.8911024733607942 [Eh]
	 Total Energy              =    -459.6435885420188470 [Eh]

	 ================> DF-SCS-MP2 Energies <==================
	-----------------------------------------------------------
	 SCS Same-Spin Scale       =       0.3333333333333333 [-]
	 SCS Opposite-Spin Scale   =       1.2000000000000000 [-]
	 SCS Same-Spin Energy      =      -0.1496880452414954 [Eh]
	 SCS Opposite-Spin Energy  =      -1.7304460051635693 [Eh]
	 SCS Correlation Energy    =      -1.8801340504050648 [Eh]
	 SCS Total Energy          =    -459.6326201190631195 [Eh]
	-----------------------------------------------------------

  Dipole Moment: [D]
     X:    -1.3536      Y:     1.1141      Z:     0.9077     Total:     1.9742

*** Psi4 exiting successfully. Buy a developer a beer!
