                               Psi4 1.3.2 release

  ==> Input File <==

--------------------------------------------------------------------------
#psi4
#
memory 32 gb

molecule  {
0 1
  O       -1.2542770    -0.2468050     0.3469180
  O       -0.1468590     1.6858550    -0.1065980
  O        2.1477990    -1.6706520    -0.3530900
  C        1.0095934    -0.1300514     1.0128578
  C       -2.4120090     0.3089700    -0.3319760
  C       -0.1772750     0.5642190     0.3788660
  C        2.0280760    -0.5019680    -0.0034050
  C       -3.4935710    -0.7441700    -0.2685760
  C        2.8657550     0.6173710    -0.5671120
  H        0.6699150    -1.0123850     1.5771470
  H        1.4326490     0.6059550     1.7585010
  H       -2.7005340     1.2360120     0.1703920
  H       -2.1291700     0.5558430    -1.3586020
  H       -4.3948760    -0.3798980    -0.7694460
  H       -3.1658200    -1.6603590    -0.7638670
  H       -3.7423020    -0.9776200     0.7686940
  H        3.4353450     0.2519410    -1.4221430
  H        3.5571500     0.9732660     0.2049480
  H        2.2307250     1.4606800    -0.8503130
units angstrom
no_reorient  #important for SAPT in psi4, default
symmetry c1  #important for SAPT in psi4, default
}

set PROPERTIES_ORIGIN ["COM"]
properties('MP2/aug-cc-pvtz', properties = ['dipole'])
--------------------------------------------------------------------------

    Molecular point group: c1
  Charge       = 0
  Multiplicity = 1
  Basis Set: AUG-CC-PVTZ
    Blend: AUG-CC-PVTZ
  Basis Set: (AUG-CC-PVTZ AUX)
    Blend: AUG-CC-PVTZ-JKFIT

    Orbital Energies [Eh]
    ---------------------

    Doubly Occupied:

       1A    -20.616534     2A    -20.559436     3A    -20.556909
       4A    -11.401700     5A    -11.346275     6A    -11.297479
       7A    -11.265058     8A    -11.235814     9A    -11.230225
      10A     -1.467894    11A     -1.389031    12A     -1.367163
      13A     -1.085695    14A     -1.042312    15A     -0.990412
      16A     -0.877889    17A     -0.802323    18A     -0.758254
      19A     -0.709716    20A     -0.694184    21A     -0.679255
      22A     -0.653622    23A     -0.642843    24A     -0.602681
      25A     -0.586761    26A     -0.574508    27A     -0.566612
      28A     -0.552272    29A     -0.535378    30A     -0.522463
      31A     -0.514498    32A     -0.502586    33A     -0.470522
      34A     -0.457284    35A     -0.426959

  @DF-RHF Final Energy:  -457.80387460146858

   => Energetics <=

    Nuclear Repulsion Energy =            453.7659828131982636
    One-Electron Energy =               -1525.1746231350180096
    Two-Electron Energy =                 613.6047657203512244
    Total Energy =                       -457.8038746014685785
  Basis Set: (AUG-CC-PVTZ AUX)
    Blend: AUG-CC-PVTZ-RI
    Molecular point group: c1

    Geometry (in Angstrom), charge = 0, multiplicity = 1:

       Center              X                  Y                   Z               Mass
    ------------   -----------------  -----------------  -----------------  -----------------
         O           -1.292297895009    -0.237037972408     0.345733463493    15.994914619570
         O           -0.184879895009     1.695622027592    -0.107782536507    15.994914619570
         O            2.109778104991    -1.660884972408    -0.354274536507    15.994914619570
         C            0.971572504991    -0.120284372408     1.011673263493    12.000000000000
         C           -2.450029895009     0.318737027592    -0.333160536507    12.000000000000
         C           -0.215295895009     0.573986027592     0.377681463493    12.000000000000
         C            1.990055104991    -0.492200972408    -0.004589536507    12.000000000000
         C           -3.531591895009    -0.734402972408    -0.269760536507    12.000000000000
         C            2.827734104991     0.627138027592    -0.568296536507    12.000000000000
         H            0.631894104991    -1.002617972408     1.575962463493     1.007825032230
         H            1.394628104991     0.615722027592     1.757316463493     1.007825032230
         H           -2.738554895009     1.245779027592     0.169207463493     1.007825032230
         H           -2.167190895009     0.565610027592    -1.359786536507     1.007825032230
         H           -4.432896895009    -0.370130972408    -0.770630536507     1.007825032230
         H           -3.203840895009    -1.650591972408    -0.765051536507     1.007825032230
         H           -3.780322895009    -0.967852972408     0.767509463493     1.007825032230
         H            3.397324104991     0.261708027592    -1.423327536507     1.007825032230
         H            3.519129104991     0.983033027592     0.203763463493     1.007825032230
         H            2.192704104991     1.470447027592    -0.851497536507     1.007825032230

  Basis Set: AUG-CC-PVTZ
    Blend: AUG-CC-PVTZ
  Basis Set: (AUG-CC-PVTZ AUX)
    Blend: AUG-CC-PVTZ-JKFIT
	 Reference Energy          =    -457.8038746014685785 [Eh]
	 Singles Energy            =      -0.0000000000000000 [Eh]
	 Same-Spin Energy          =      -0.4485034778554619 [Eh]
	 Opposite-Spin Energy      =      -1.4396951365270538 [Eh]
	 Correlation Energy        =      -1.8881986143825156 [Eh]
	 Total Energy              =    -459.6920732158511100 [Eh]

	 ================> DF-SCS-MP2 Energies <==================
	-----------------------------------------------------------
	 SCS Same-Spin Scale       =       0.3333333333333333 [-]
	 SCS Opposite-Spin Scale   =       1.2000000000000000 [-]
	 SCS Same-Spin Energy      =      -0.1495011592851540 [Eh]
	 SCS Opposite-Spin Energy  =      -1.7276341638324646 [Eh]
	 SCS Correlation Energy    =      -1.8771353231176184 [Eh]
	 SCS Total Energy          =    -459.6810099245861920 [Eh]
	-----------------------------------------------------------

  Dipole Moment: [D]
     X:    -1.4031      Y:     1.1500      Z:     1.0153     Total:     2.0789

*** Psi4 exiting successfully. Buy a developer a beer!
