                               Psi4 1.3.2 release

  ==> Input File <==

--------------------------------------------------------------------------
#psi4
#
memory 32 gb

molecule  {
0 1
  O       -1.2542770    -0.2468050     0.3469180
  O       -0.1468590     1.6858550    -0.1065980
  O        2.1477990    -1.6706520    -0.3530900
  C        1.0395281    -0.1677702     0.9252153
  C       -2.4120090     0.3089700    -0.3319760
  C       -0.1772750     0.5642190     0.3788660
  C        2.0280760    -0.5019680    -0.0034050
  C       -3.4935710    -0.7441700    -0.2685760
  C        2.8657550     0.6173710    -0.5671120
  H        0.6699150    -1.0123850     1.5771470
  H        1.4326490     0.6059550     1.7585010
  H       -2.7005340     1.2360120     0.1703920
  H       -2.1291700     0.5558430    -1.3586020
  H       -4.3948760    -0.3798980    -0.7694460
  H       -3.1658200    -1.6603590    -0.7638670
  H       -3.7423020    -0.9776200     0.7686940
  H        3.4353450     0.2519410    -1.4221430
  H        3.5571500     0.9732660     0.2049480
  H        2.2307250     1.4606800    -0.8503130
units angstrom
no_reorient  #important for SAPT in psi4, default
symmetry c1  #important for SAPT in psi4, default
}

set PROPERTIES_ORIGIN ["COM"]
properties('MP2/aug-cc-pvtz', properties = ['dipole'])
--------------------------------------------------------------------------

    Molecular point group: c1
  Charge       = 0
  Multiplicity = 1
  Basis Set: AUG-CC-PVTZ
    Blend: AUG-CC-PVTZ
  Basis Set: (AUG-CC-PVTZ AUX)
    Blend: AUG-CC-PVTZ-JKFIT

    Orbital Energies [Eh]
    ---------------------

    Doubly Occupied:

       1A    -20.618246     2A    -20.561175     3A    -20.553674
       4A    -11.405344     5A    -11.338709     6A    -11.298591
       7A    -11.269529     8A    -11.234711     9A    -11.230962
      10A     -1.469487    11A     -1.390023    12A     -1.368699
      13A     -1.093842    14A     -1.045594    15A     -0.988812
      16A     -0.882506    17A     -0.809117    18A     -0.761663
      19A     -0.710120    20A     -0.695267    21A     -0.679806
      22A     -0.655893    23A     -0.643257    24A     -0.602907
      25A     -0.586741    26A     -0.572442    27A     -0.563329
      28A     -0.552971    29A     -0.525918    30A     -0.523472
      31A     -0.513399    32A     -0.496351    33A     -0.471589
      34A     -0.454840    35A     -0.431740

  @DF-RHF Final Energy:  -457.78349233399439

   => Energetics <=

    Nuclear Repulsion Energy =            454.9163150002071347
    One-Electron Energy =               -1527.3981618844125023
    Two-Electron Energy =                 614.6983545502110928
    Total Energy =                       -457.7834923339943316
  Basis Set: (AUG-CC-PVTZ AUX)
    Blend: AUG-CC-PVTZ-RI
    Molecular point group: c1

    Geometry (in Angstrom), charge = 0, multiplicity = 1:

       Center              X                  Y                   Z               Mass
    ------------   -----------------  -----------------  -----------------  -----------------
         O           -1.295059759767    -0.233557923353     0.353819622101    15.994914619570
         O           -0.187641759767     1.699102076647    -0.099696377899    15.994914619570
         O            2.107016240233    -1.657404923353    -0.346188377899    15.994914619570
         C            0.998745340233    -0.154523123353     0.932116922101    12.000000000000
         C           -2.452791759767     0.322217076647    -0.325074377899    12.000000000000
         C           -0.218057759767     0.577466076647     0.385767622101    12.000000000000
         C            1.987293240233    -0.488720923353     0.003496622101    12.000000000000
         C           -3.534353759767    -0.730922923353    -0.261674377899    12.000000000000
         C            2.824972240233     0.630618076647    -0.560210377899    12.000000000000
         H            0.629132240233    -0.999137923353     1.584048622101     1.007825032230
         H            1.391866240233     0.619202076647     1.765402622101     1.007825032230
         H           -2.741316759767     1.249259076647     0.177293622101     1.007825032230
         H           -2.169952759767     0.569090076647    -1.351700377899     1.007825032230
         H           -4.435658759767    -0.366650923353    -0.762544377899     1.007825032230
         H           -3.206602759767    -1.647111923353    -0.756965377899     1.007825032230
         H           -3.783084759767    -0.964372923353     0.775595622101     1.007825032230
         H            3.394562240233     0.265188076647    -1.415241377899     1.007825032230
         H            3.516367240233     0.986513076647     0.211849622101     1.007825032230
         H            2.189942240233     1.473927076647    -0.843411377899     1.007825032230

  Basis Set: AUG-CC-PVTZ
    Blend: AUG-CC-PVTZ
  Basis Set: (AUG-CC-PVTZ AUX)
    Blend: AUG-CC-PVTZ-JKFIT
	 Reference Energy          =    -457.7834923339943884 [Eh]
	 Singles Energy            =      -0.0000000000000000 [Eh]
	 Same-Spin Energy          =      -0.4495734869985994 [Eh]
	 Opposite-Spin Energy      =      -1.4414128233342232 [Eh]
	 Correlation Energy        =      -1.8909863103328226 [Eh]
	 Total Energy              =    -459.6744786443272233 [Eh]

	 ================> DF-SCS-MP2 Energies <==================
	-----------------------------------------------------------
	 SCS Same-Spin Scale       =       0.3333333333333333 [-]
	 SCS Opposite-Spin Scale   =       1.2000000000000000 [-]
	 SCS Same-Spin Energy      =      -0.1498578289995331 [Eh]
	 SCS Opposite-Spin Energy  =      -1.7296953880010677 [Eh]
	 SCS Correlation Energy    =      -1.8795532170006009 [Eh]
	 SCS Total Energy          =    -459.6630455509949797 [Eh]
	-----------------------------------------------------------

  Dipole Moment: [D]
     X:    -1.5895      Y:     1.2129      Z:     1.0522     Total:     2.2594

*** Psi4 exiting successfully. Buy a developer a beer!
