                               Psi4 1.3.2 release

  ==> Input File <==

--------------------------------------------------------------------------
#psi4
#
memory 32 gb

molecule  {
0 1
  O       -1.2542770    -0.2468050     0.3469180
  O       -0.1468590     1.6858550    -0.1065980
  O        2.1477990    -1.6706520    -0.3530900
  C        1.0544955    -0.1866295     0.8813940
  C       -2.4120090     0.3089700    -0.3319760
  C       -0.1772750     0.5642190     0.3788660
  C        2.0280760    -0.5019680    -0.0034050
  C       -3.4935710    -0.7441700    -0.2685760
  C        2.8657550     0.6173710    -0.5671120
  H        0.6699150    -1.0123850     1.5771470
  H        1.4326490     0.6059550     1.7585010
  H       -2.7005340     1.2360120     0.1703920
  H       -2.1291700     0.5558430    -1.3586020
  H       -4.3948760    -0.3798980    -0.7694460
  H       -3.1658200    -1.6603590    -0.7638670
  H       -3.7423020    -0.9776200     0.7686940
  H        3.4353450     0.2519410    -1.4221430
  H        3.5571500     0.9732660     0.2049480
  H        2.2307250     1.4606800    -0.8503130
units angstrom
no_reorient  #important for SAPT in psi4, default
symmetry c1  #important for SAPT in psi4, default
}

set PROPERTIES_ORIGIN ["COM"]
properties('MP2/aug-cc-pvtz', properties = ['dipole'])
--------------------------------------------------------------------------

    Molecular point group: c1
  Charge       = 0
  Multiplicity = 1
  Basis Set: AUG-CC-PVTZ
    Blend: AUG-CC-PVTZ
  Basis Set: (AUG-CC-PVTZ AUX)
    Blend: AUG-CC-PVTZ-JKFIT

    Orbital Energies [Eh]
    ---------------------

    Doubly Occupied:

       1A    -20.619208     2A    -20.562095     3A    -20.552147
       4A    -11.407700     5A    -11.334486     6A    -11.299249
       7A    -11.272091     8A    -11.234217     9A    -11.231387
      10A     -1.470349    11A     -1.391069    12A     -1.369532
      13A     -1.098955    14A     -1.047265    15A     -0.988015
      16A     -0.885570    17A     -0.812854    18A     -0.763008
      19A     -0.710171    20A     -0.695950    21A     -0.680340
      22A     -0.656729    23A     -0.643928    24A     -0.603211
      25A     -0.587271    26A     -0.571462    27A     -0.562759
      28A     -0.552745    29A     -0.524440    30A     -0.522831
      31A     -0.512665    32A     -0.489676    33A     -0.472127
      34A     -0.452819    35A     -0.433156

  @DF-RHF Final Energy:  -457.76468086579609

   => Energetics <=

    Nuclear Repulsion Energy =            455.5005648811558672
    One-Electron Energy =               -1528.5075362265965850
    Two-Electron Energy =                 615.2422904796445664
    Total Energy =                       -457.7646808657960946
  Basis Set: (AUG-CC-PVTZ AUX)
    Blend: AUG-CC-PVTZ-RI
    Molecular point group: c1

    Geometry (in Angstrom), charge = 0, multiplicity = 1:

       Center              X                  Y                   Z               Mass
    ------------   -----------------  -----------------  -----------------  -----------------
         O           -1.296440696760    -0.231817908051     0.357862706018    15.994914619570
         O           -0.189022696760     1.700842091949    -0.095653293982    15.994914619570
         O            2.105635303240    -1.655664908051    -0.342145293982    15.994914619570
         C            1.012331803240    -0.171642408051     0.892338706018    12.000000000000
         C           -2.454172696760     0.323957091949    -0.321031293982    12.000000000000
         C           -0.219438696760     0.579206091949     0.389810706018    12.000000000000
         C            1.985912303240    -0.486980908051     0.007539706018    12.000000000000
         C           -3.535734696760    -0.729182908051    -0.257631293982    12.000000000000
         C            2.823591303240     0.632358091949    -0.556167293982    12.000000000000
         H            0.627751303240    -0.997397908051     1.588091706018     1.007825032230
         H            1.390485303240     0.620942091949     1.769445706018     1.007825032230
         H           -2.742697696760     1.250999091949     0.181336706018     1.007825032230
         H           -2.171333696760     0.570830091949    -1.347657293982     1.007825032230
         H           -4.437039696760    -0.364910908051    -0.758501293982     1.007825032230
         H           -3.207983696760    -1.645371908051    -0.752922293982     1.007825032230
         H           -3.784465696760    -0.962632908051     0.779638706018     1.007825032230
         H            3.393181303240     0.266928091949    -1.411198293982     1.007825032230
         H            3.514986303240     0.988253091949     0.215892706018     1.007825032230
         H            2.188561303240     1.475667091949    -0.839368293982     1.007825032230

  Basis Set: AUG-CC-PVTZ
    Blend: AUG-CC-PVTZ
  Basis Set: (AUG-CC-PVTZ AUX)
    Blend: AUG-CC-PVTZ-JKFIT
	 Reference Energy          =    -457.7646808657960946 [Eh]
	 Singles Energy            =      -0.0000000000000000 [Eh]
	 Same-Spin Energy          =      -0.4504436508719897 [Eh]
	 Opposite-Spin Energy      =      -1.4428780987403746 [Eh]
	 Correlation Energy        =      -1.8933217496123644 [Eh]
	 Total Energy              =    -459.6580026154084635 [Eh]

	 ================> DF-SCS-MP2 Energies <==================
	-----------------------------------------------------------
	 SCS Same-Spin Scale       =       0.3333333333333333 [-]
	 SCS Opposite-Spin Scale   =       1.2000000000000000 [-]
	 SCS Same-Spin Energy      =      -0.1501478836239966 [Eh]
	 SCS Opposite-Spin Energy  =      -1.7314537184884495 [Eh]
	 SCS Correlation Energy    =      -1.8816016021124460 [Eh]
	 SCS Total Energy          =    -459.6462824679085202 [Eh]
	-----------------------------------------------------------

  Dipole Moment: [D]
     X:    -1.6846      Y:     1.2428      Z:     1.0622     Total:     2.3475

*** Psi4 exiting successfully. Buy a developer a beer!
