                               Psi4 1.3.2 release

  ==> Input File <==

--------------------------------------------------------------------------
#psi4
#
memory 32 gb

molecule  {
0 1
  O       -1.2542770    -0.2468050     0.3469180
  O       -0.1468590     1.6858550    -0.1065980
  O        2.1477990    -1.6706520    -0.3530900
  C        0.9946260    -0.1111920     1.0566790
  C       -2.4120090     0.3089700    -0.3319760
  C       -0.1772750     0.5642190     0.3788660
  C        2.0280760    -0.5019680    -0.0034050
  C       -3.4935710    -0.7441700    -0.2685760
  C        2.7977300     0.6319981    -0.6389358
  H        0.6699150    -1.0123850     1.5771470
  H        1.4326490     0.6059550     1.7585010
  H       -2.7005340     1.2360120     0.1703920
  H       -2.1291700     0.5558430    -1.3586020
  H       -4.3948760    -0.3798980    -0.7694460
  H       -3.1658200    -1.6603590    -0.7638670
  H       -3.7423020    -0.9776200     0.7686940
  H        3.4353450     0.2519410    -1.4221430
  H        3.5571500     0.9732660     0.2049480
  H        2.2307250     1.4606800    -0.8503130
units angstrom
no_reorient  #important for SAPT in psi4, default
symmetry c1  #important for SAPT in psi4, default
}

set PROPERTIES_ORIGIN ["COM"]
properties('MP2/aug-cc-pvtz', properties = ['dipole'])
--------------------------------------------------------------------------

    Molecular point group: c1
  Charge       = 0
  Multiplicity = 1
  Basis Set: AUG-CC-PVTZ
    Blend: AUG-CC-PVTZ
  Basis Set: (AUG-CC-PVTZ AUX)
    Blend: AUG-CC-PVTZ-JKFIT

    Orbital Energies [Eh]
    ---------------------

    Doubly Occupied:

       1A    -20.616111     2A    -20.559118     3A    -20.558336
       4A    -11.400843     5A    -11.350632     6A    -11.297262
       7A    -11.263369     8A    -11.239102     9A    -11.230076
      10A     -1.467530    11A     -1.388954    12A     -1.366906
      13A     -1.082680    14A     -1.040985    15A     -0.991572
      16A     -0.876627    17A     -0.800024    18A     -0.757359
      19A     -0.709379    20A     -0.695023    21A     -0.679183
      22A     -0.658509    23A     -0.643423    24A     -0.596468
      25A     -0.593281    26A     -0.573710    27A     -0.568454
      28A     -0.558324    29A     -0.537250    30A     -0.521847
      31A     -0.514930    32A     -0.495669    33A     -0.470195
      34A     -0.459328    35A     -0.423426

  @DF-RHF Final Energy:  -457.79711299665644

   => Energetics <=

    Nuclear Repulsion Energy =            453.5227221769076209
    One-Electron Energy =               -1524.6679040650958541
    Two-Electron Energy =                 613.3480688915318524
    Total Energy =                       -457.7971129966564376
  Basis Set: (AUG-CC-PVTZ AUX)
    Blend: AUG-CC-PVTZ-RI
    Molecular point group: c1

    Geometry (in Angstrom), charge = 0, multiplicity = 1:

       Center              X                  Y                   Z               Mass
    ------------   -----------------  -----------------  -----------------  -----------------
         O           -1.284640768505    -0.240127536834     0.348317066939    15.994914619570
         O           -0.177222768505     1.692532463166    -0.105198933061    15.994914619570
         O            2.117435231495    -1.663974536834    -0.351690933061    15.994914619570
         C            0.964262231495    -0.104514536834     1.058078066939    12.000000000000
         C           -2.442372768505     0.315647463166    -0.330576933061    12.000000000000
         C           -0.207638768505     0.570896463166     0.380265066939    12.000000000000
         C            1.997712231495    -0.495290536834    -0.002005933061    12.000000000000
         C           -3.523934768505    -0.737492536834    -0.267176933061    12.000000000000
         C            2.767366231495     0.638675563166    -0.637536733061    12.000000000000
         H            0.639551231495    -1.005707536834     1.578546066939     1.007825032230
         H            1.402285231495     0.612632463166     1.759900066939     1.007825032230
         H           -2.730897768505     1.242689463166     0.171791066939     1.007825032230
         H           -2.159533768505     0.562520463166    -1.357202933061     1.007825032230
         H           -4.425239768505    -0.373220536834    -0.768046933061     1.007825032230
         H           -3.196183768505    -1.653681536834    -0.762467933061     1.007825032230
         H           -3.772665768505    -0.970942536834     0.770093066939     1.007825032230
         H            3.404981231495     0.258618463166    -1.420743933061     1.007825032230
         H            3.526786231495     0.979943463166     0.206347066939     1.007825032230
         H            2.200361231495     1.467357463166    -0.848913933061     1.007825032230

  Basis Set: AUG-CC-PVTZ
    Blend: AUG-CC-PVTZ
  Basis Set: (AUG-CC-PVTZ AUX)
    Blend: AUG-CC-PVTZ-JKFIT
	 Reference Energy          =    -457.7971129966564376 [Eh]
	 Singles Energy            =      -0.0000000000000000 [Eh]
	 Same-Spin Energy          =      -0.4483973479572462 [Eh]
	 Opposite-Spin Energy      =      -1.4397821678357960 [Eh]
	 Correlation Energy        =      -1.8881795157930421 [Eh]
	 Total Energy              =    -459.6852925124495073 [Eh]

	 ================> DF-SCS-MP2 Energies <==================
	-----------------------------------------------------------
	 SCS Same-Spin Scale       =       0.3333333333333333 [-]
	 SCS Opposite-Spin Scale   =       1.2000000000000000 [-]
	 SCS Same-Spin Energy      =      -0.1494657826524154 [Eh]
	 SCS Opposite-Spin Energy  =      -1.7277386014029552 [Eh]
	 SCS Correlation Energy    =      -1.8772043840553705 [Eh]
	 SCS Total Energy          =    -459.6743173807117842 [Eh]
	-----------------------------------------------------------

  Dipole Moment: [D]
     X:    -1.3225      Y:     1.1231      Z:     0.9566     Total:     1.9813

*** Psi4 exiting successfully. Buy a developer a beer!
