                               Psi4 1.3.2 release

  ==> Input File <==

--------------------------------------------------------------------------
#psi4
#
memory 32 gb

molecule  {
0 1
  O       -1.2542770    -0.2468050     0.3469180
  O       -0.1468590     1.6858550    -0.1065980
  O        2.1477990    -1.6706520    -0.3530900
  C        1.0844303    -0.2243483     0.7937516
  C       -2.4120090     0.3089700    -0.3319760
  C       -0.1772750     0.5642190     0.3788660
  C        2.0280760    -0.5019680    -0.0034050
  C       -3.4935710    -0.7441700    -0.2685760
  C        2.8657550     0.6173710    -0.5671120
  H        0.6699150    -1.0123850     1.5771470
  H        1.4326490     0.6059550     1.7585010
  H       -2.7005340     1.2360120     0.1703920
  H       -2.1291700     0.5558430    -1.3586020
  H       -4.3948760    -0.3798980    -0.7694460
  H       -3.1658200    -1.6603590    -0.7638670
  H       -3.7423020    -0.9776200     0.7686940
  H        3.4353450     0.2519410    -1.4221430
  H        3.5571500     0.9732660     0.2049480
  H        2.2307250     1.4606800    -0.8503130
units angstrom
no_reorient  #important for SAPT in psi4, default
symmetry c1  #important for SAPT in psi4, default
}

set PROPERTIES_ORIGIN ["COM"]
properties('MP2/aug-cc-pvtz', properties = ['dipole'])
--------------------------------------------------------------------------

    Molecular point group: c1
  Charge       = 0
  Multiplicity = 1
  Basis Set: AUG-CC-PVTZ
    Blend: AUG-CC-PVTZ
  Basis Set: (AUG-CC-PVTZ AUX)
    Blend: AUG-CC-PVTZ-JKFIT

    Orbital Energies [Eh]
    ---------------------

    Doubly Occupied:

       1A    -20.621387     2A    -20.564109     3A    -20.549349
       4A    -11.413456     5A    -11.325196     6A    -11.300788
       7A    -11.277515     8A    -11.233367     9A    -11.232359
      10A     -1.472235    11A     -1.394617    12A     -1.371370
      13A     -1.111537    14A     -1.050454    15A     -0.986572
      16A     -0.892748    17A     -0.819723    18A     -0.764848
      19A     -0.710230    20A     -0.697602    21A     -0.681441
      22A     -0.658076    23A     -0.646400    24A     -0.604172
      25A     -0.588836    26A     -0.569765    27A     -0.562445
      28A     -0.551239    29A     -0.525763    30A     -0.521357
      31A     -0.512493    32A     -0.475605    33A     -0.469282
      34A     -0.446416    35A     -0.433735

  @DF-RHF Final Energy:  -457.70679576750643

   => Energetics <=

    Nuclear Repulsion Energy =            456.7018786809441053
    One-Electron Energy =               -1530.7443728073517377
    Two-Electron Energy =                 616.3356983589012543
    Total Energy =                       -457.7067957675064918
  Basis Set: (AUG-CC-PVTZ AUX)
    Blend: AUG-CC-PVTZ-RI
    Molecular point group: c1

    Geometry (in Angstrom), charge = 0, multiplicity = 1:

       Center              X                  Y                   Z               Mass
    ------------   -----------------  -----------------  -----------------  -----------------
         O           -1.299202570744    -0.228337858996     0.365948855400    15.994914619570
         O           -0.191784570744     1.704322141004    -0.087567144600    15.994914619570
         O            2.102873429256    -1.652184858996    -0.334059144600    15.994914619570
         C            1.039504729256    -0.205881158996     0.812782455400    12.000000000000
         C           -2.456934570744     0.327437141004    -0.312945144600    12.000000000000
         C           -0.222200570744     0.582686141004     0.397896855400    12.000000000000
         C            1.983150429256    -0.483500858996     0.015625855400    12.000000000000
         C           -3.538496570744    -0.725702858996    -0.249545144600    12.000000000000
         C            2.820829429256     0.635838141004    -0.548081144600    12.000000000000
         H            0.624989429256    -0.993917858996     1.596177855400     1.007825032230
         H            1.387723429256     0.624422141004     1.777531855400     1.007825032230
         H           -2.745459570744     1.254479141004     0.189422855400     1.007825032230
         H           -2.174095570744     0.574310141004    -1.339571144600     1.007825032230
         H           -4.439801570744    -0.361430858996    -0.750415144600     1.007825032230
         H           -3.210745570744    -1.641891858996    -0.744836144600     1.007825032230
         H           -3.787227570744    -0.959152858996     0.787724855400     1.007825032230
         H            3.390419429256     0.270408141004    -1.403112144600     1.007825032230
         H            3.512224429256     0.991733141004     0.223978855400     1.007825032230
         H            2.185799429256     1.479147141004    -0.831282144600     1.007825032230

  Basis Set: AUG-CC-PVTZ
    Blend: AUG-CC-PVTZ
  Basis Set: (AUG-CC-PVTZ AUX)
    Blend: AUG-CC-PVTZ-JKFIT
	 Reference Energy          =    -457.7067957675064349 [Eh]
	 Singles Energy            =      -0.0000000000000000 [Eh]
	 Same-Spin Energy          =      -0.4529431234183602 [Eh]
	 Opposite-Spin Energy      =      -1.4471609681411624 [Eh]
	 Correlation Energy        =      -1.9001040915595224 [Eh]
	 Total Energy              =    -459.6068998590659476 [Eh]

	 ================> DF-SCS-MP2 Energies <==================
	-----------------------------------------------------------
	 SCS Same-Spin Scale       =       0.3333333333333333 [-]
	 SCS Opposite-Spin Scale   =       1.2000000000000000 [-]
	 SCS Same-Spin Energy      =      -0.1509810411394534 [Eh]
	 SCS Opposite-Spin Energy  =      -1.7365931617693948 [Eh]
	 SCS Correlation Energy    =      -1.8875742029088483 [Eh]
	 SCS Total Energy          =    -459.5943699704153005 [Eh]
	-----------------------------------------------------------

  Dipole Moment: [D]
     X:    -1.8792      Y:     1.2989      Z:     1.0632     Total:     2.5198

*** Psi4 exiting successfully. Buy a developer a beer!
