                               Psi4 1.3.2 release

  ==> Input File <==

--------------------------------------------------------------------------
#psi4
#
memory 32 gb

molecule  {
0 1
  O       -1.2542770    -0.2468050     0.3469180
  O       -0.1468590     1.6858550    -0.1065980
  O        2.1477990    -1.6706520    -0.3530900
  C        1.0694629    -0.2054889     0.8375728
  C       -2.4120090     0.3089700    -0.3319760
  C       -0.1772750     0.5642190     0.3788660
  C        2.0280760    -0.5019680    -0.0034050
  C       -3.4935710    -0.7441700    -0.2685760
  C        2.8657550     0.6173710    -0.5671120
  H        0.6699150    -1.0123850     1.5771470
  H        1.4326490     0.6059550     1.7585010
  H       -2.7005340     1.2360120     0.1703920
  H       -2.1291700     0.5558430    -1.3586020
  H       -4.3948760    -0.3798980    -0.7694460
  H       -3.1658200    -1.6603590    -0.7638670
  H       -3.7423020    -0.9776200     0.7686940
  H        3.4353450     0.2519410    -1.4221430
  H        3.5571500     0.9732660     0.2049480
  H        2.2307250     1.4606800    -0.8503130
units angstrom
no_reorient  #important for SAPT in psi4, default
symmetry c1  #important for SAPT in psi4, default
}

set PROPERTIES_ORIGIN ["COM"]
properties('MP2/aug-cc-pvtz', properties = ['dipole'])
--------------------------------------------------------------------------

    Molecular point group: c1
  Charge       = 0
  Multiplicity = 1
  Basis Set: AUG-CC-PVTZ
    Blend: AUG-CC-PVTZ
  Basis Set: (AUG-CC-PVTZ AUX)
    Blend: AUG-CC-PVTZ-JKFIT

    Orbital Energies [Eh]
    ---------------------

    Doubly Occupied:

       1A    -20.620253     2A    -20.563069     3A    -20.550697
       4A    -11.410407     5A    -11.329975     6A    -11.299981
       7A    -11.274776     8A    -11.233765     9A    -11.231853
      10A     -1.471263    11A     -1.392572    12A     -1.370420
      13A     -1.104855    14A     -1.048897    15A     -0.987256
      16A     -0.889041    17A     -0.816469    18A     -0.764067
      19A     -0.710191    20A     -0.696727    21A     -0.680905
      22A     -0.657418    23A     -0.644970    24A     -0.603636
      25A     -0.587992    26A     -0.570557    27A     -0.562518
      28A     -0.552148    29A     -0.525025    30A     -0.521729
      31A     -0.512338    32A     -0.481258    33A     -0.472382
      34A     -0.450080    35A     -0.433891

  @DF-RHF Final Energy:  -457.73934918277740

   => Energetics <=

    Nuclear Repulsion Energy =            456.0947324526265447
    One-Electron Energy =               -1529.6213989577343000
    Two-Electron Energy =                 615.7873173223301819
    Total Energy =                       -457.7393491827774596
  Basis Set: (AUG-CC-PVTZ AUX)
    Blend: AUG-CC-PVTZ-RI
    Molecular point group: c1

    Geometry (in Angstrom), charge = 0, multiplicity = 1:

       Center              X                  Y                   Z               Mass
    ------------   -----------------  -----------------  -----------------  -----------------
         O           -1.297821633752    -0.230077883524     0.361905780709    15.994914619570
         O           -0.190403633752     1.702582116476    -0.091610219291    15.994914619570
         O            2.104254366248    -1.653924883524    -0.338102219291    15.994914619570
         C            1.025918266248    -0.188761783524     0.852560580709    12.000000000000
         C           -2.455553633752     0.325697116476    -0.316988219291    12.000000000000
         C           -0.220819633752     0.580946116476     0.393853780709    12.000000000000
         C            1.984531366248    -0.485240883524     0.011582780709    12.000000000000
         C           -3.537115633752    -0.727442883524    -0.253588219291    12.000000000000
         C            2.822210366248     0.634098116476    -0.552124219291    12.000000000000
         H            0.626370366248    -0.995657883524     1.592134780709     1.007825032230
         H            1.389104366248     0.622682116476     1.773488780709     1.007825032230
         H           -2.744078633752     1.252739116476     0.185379780709     1.007825032230
         H           -2.172714633752     0.572570116476    -1.343614219291     1.007825032230
         H           -4.438420633752    -0.363170883524    -0.754458219291     1.007825032230
         H           -3.209364633752    -1.643631883524    -0.748879219291     1.007825032230
         H           -3.785846633752    -0.960892883524     0.783681780709     1.007825032230
         H            3.391800366248     0.268668116476    -1.407155219291     1.007825032230
         H            3.513605366248     0.989993116476     0.219935780709     1.007825032230
         H            2.187180366248     1.477407116476    -0.835325219291     1.007825032230

  Basis Set: AUG-CC-PVTZ
    Blend: AUG-CC-PVTZ
  Basis Set: (AUG-CC-PVTZ AUX)
    Blend: AUG-CC-PVTZ-JKFIT
	 Reference Energy          =    -457.7393491827774028 [Eh]
	 Singles Energy            =      -0.0000000000000000 [Eh]
	 Same-Spin Energy          =      -0.4515606286908522 [Eh]
	 Opposite-Spin Energy      =      -1.4447821530819733 [Eh]
	 Correlation Energy        =      -1.8963427817728256 [Eh]
	 Total Energy              =    -459.6356919645502330 [Eh]

	 ================> DF-SCS-MP2 Energies <==================
	-----------------------------------------------------------
	 SCS Same-Spin Scale       =       0.3333333333333333 [-]
	 SCS Opposite-Spin Scale   =       1.2000000000000000 [-]
	 SCS Same-Spin Energy      =      -0.1505202095636174 [Eh]
	 SCS Opposite-Spin Energy  =      -1.7337385836983679 [Eh]
	 SCS Correlation Energy    =      -1.8842587932619852 [Eh]
	 SCS Total Energy          =    -459.6236079760394091 [Eh]
	-----------------------------------------------------------

  Dipole Moment: [D]
     X:    -1.7813      Y:     1.2716      Z:     1.0662     Total:     2.4345

*** Psi4 exiting successfully. Buy a developer a beer!
