                               Psi4 1.3.2 release

  ==> Input File <==

--------------------------------------------------------------------------
#psi4
#
memory 32 gb

molecule  {
0 1
  C       -2.8859240     0.0139080     0.0157160
  C        1.4367670    -0.0149690     0.0041590
  C        0.6477573     1.3724977    -0.0038803
  C        0.7284570    -1.2193500    -0.0024690
  C       -0.6498160     1.2004800    -0.0088600
  C       -0.6636910    -1.1986650    -0.0089510
  C       -1.3793250     0.0073430    -0.0161260
  O        2.8101880    -0.0968780     0.0088050
  H        1.2936820     2.1410080    -0.0035900
  H        3.1696110     0.8075920     0.0126850
  H        1.2824350    -2.1540410    -0.0024010
  H       -1.1767190     2.1533030    -0.0171340
  H       -1.2060620    -2.1429340    -0.0174000
  H       -3.2954860    -0.8156320    -0.5681670
  H       -3.2834940     0.9453750    -0.3973120
  H       -3.2640020    -0.0839940     1.0392920
units angstrom
no_reorient  #important for SAPT in psi4, default
symmetry c1  #important for SAPT in psi4, default
}

set PROPERTIES_ORIGIN ["COM"]
properties('MP2/aug-cc-pvtz', properties = ['dipole'])
--------------------------------------------------------------------------

    Molecular point group: c1
  Charge       = 0
  Multiplicity = 1
  Basis Set: AUG-CC-PVTZ
    Blend: AUG-CC-PVTZ
  Basis Set: (AUG-CC-PVTZ AUX)
    Blend: AUG-CC-PVTZ-JKFIT

    Orbital Energies [Eh]
    ---------------------

    Doubly Occupied:

       1A    -20.596273     2A    -11.315911     3A    -11.241400
       4A    -11.237902     5A    -11.232574     6A    -11.231400
       7A    -11.222850     8A    -11.221858     9A     -1.400307
      10A     -1.145094    11A     -1.032181    12A     -1.024268
      13A     -0.918072    14A     -0.841739    15A     -0.799422
      16A     -0.726002    17A     -0.684467    18A     -0.648751
      19A     -0.609810    20A     -0.595181    21A     -0.585049
      22A     -0.569853    23A     -0.565952    24A     -0.527036
      25A     -0.514488    26A     -0.470572    27A     -0.455906
      28A     -0.356838    29A     -0.288331

  @DF-RHF Final Energy:  -344.67649202600296

   => Energetics <=

    Nuclear Repulsion Energy =            339.7465026291018830
    One-Electron Energy =               -1140.7270139757547440
    Two-Electron Energy =                 456.3040193206498998
    Total Energy =                       -344.6764920260029612
  Basis Set: (AUG-CC-PVTZ AUX)
    Blend: AUG-CC-PVTZ-RI
    Molecular point group: c1

    Geometry (in Angstrom), charge = 0, multiplicity = 1:

       Center              X                  Y                   Z               Mass
    ------------   -----------------  -----------------  -----------------  -----------------
         C           -2.934311927930     0.002407507528     0.016250600825    12.000000000000
         C            1.388379072070    -0.026469492472     0.004693600825    12.000000000000
         C            0.599369372070     1.360997207528    -0.003345699175    12.000000000000
         C            0.680069072070    -1.230850492472    -0.001934399175    12.000000000000
         C           -0.698203927930     1.188979507528    -0.008325399175    12.000000000000
         C           -0.712078927930    -1.210165492472    -0.008416399175    12.000000000000
         C           -1.427712927930    -0.004157492472    -0.015591399175    12.000000000000
         O            2.761800072070    -0.108378492472     0.009339600825    15.994914619570
         H            1.245294072070     2.129507507528    -0.003055399175     1.007825032230
         H            3.121223072070     0.796091507528     0.013219600825     1.007825032230
         H            1.234047072070    -2.165541492472    -0.001866399175     1.007825032230
         H           -1.225106927930     2.141802507528    -0.016599399175     1.007825032230
         H           -1.254449927930    -2.154434492472    -0.016865399175     1.007825032230
         H           -3.343873927930    -0.827132492472    -0.567632399175     1.007825032230
         H           -3.331881927930     0.933874507528    -0.396777399175     1.007825032230
         H           -3.312389927930    -0.095494492472     1.039826600825     1.007825032230

  Basis Set: AUG-CC-PVTZ
    Blend: AUG-CC-PVTZ
  Basis Set: (AUG-CC-PVTZ AUX)
    Blend: AUG-CC-PVTZ-JKFIT
	 Reference Energy          =    -344.6764920260029612 [Eh]
	 Singles Energy            =      -0.0000000000000000 [Eh]
	 Same-Spin Energy          =      -0.3694115233571366 [Eh]
	 Opposite-Spin Energy      =      -1.1664923804199101 [Eh]
	 Correlation Energy        =      -1.5359039037770468 [Eh]
	 Total Energy              =    -346.2123959297800297 [Eh]

	 ================> DF-SCS-MP2 Energies <==================
	-----------------------------------------------------------
	 SCS Same-Spin Scale       =       0.3333333333333333 [-]
	 SCS Opposite-Spin Scale   =       1.2000000000000000 [-]
	 SCS Same-Spin Energy      =      -0.1231371744523788 [Eh]
	 SCS Opposite-Spin Energy  =      -1.3997908565038921 [Eh]
	 SCS Correlation Energy    =      -1.5229280309562709 [Eh]
	 SCS Total Energy          =    -346.1994200569592408 [Eh]
	-----------------------------------------------------------

  Dipole Moment: [D]
     X:    -0.2395      Y:     1.3294      Z:     0.0343     Total:     1.3512

*** Psi4 exiting successfully. Buy a developer a beer!
