                               Psi4 1.3.2 release

  ==> Input File <==

--------------------------------------------------------------------------
#psi4
#
memory 32 gb

molecule  {
0 1
  C       -2.8859240     0.0139080     0.0157160
  C        1.4367670    -0.0149690     0.0041590
  C        0.7466220     1.1986450    -0.0028730
  C        0.7284570    -1.2193500    -0.0024690
  C       -0.6498160     1.2004800    -0.0088600
  C       -0.6636910    -1.1986650    -0.0089510
  C       -1.4793017     0.0077786    -0.0140130
  O        2.8101880    -0.0968780     0.0088050
  H        1.2936820     2.1410080    -0.0035900
  H        3.1696110     0.8075920     0.0126850
  H        1.2824350    -2.1540410    -0.0024010
  H       -1.1767190     2.1533030    -0.0171340
  H       -1.2060620    -2.1429340    -0.0174000
  H       -3.2954860    -0.8156320    -0.5681670
  H       -3.2834940     0.9453750    -0.3973120
  H       -3.2640020    -0.0839940     1.0392920
units angstrom
no_reorient  #important for SAPT in psi4, default
symmetry c1  #important for SAPT in psi4, default
}

set PROPERTIES_ORIGIN ["COM"]
properties('MP2/aug-cc-pvtz', properties = ['dipole'])
--------------------------------------------------------------------------

    Molecular point group: c1
  Charge       = 0
  Multiplicity = 1
  Basis Set: AUG-CC-PVTZ
    Blend: AUG-CC-PVTZ
  Basis Set: (AUG-CC-PVTZ AUX)
    Blend: AUG-CC-PVTZ-JKFIT

    Orbital Energies [Eh]
    ---------------------

    Doubly Occupied:

       1A    -20.590369     2A    -11.300920     3A    -11.244224
       4A    -11.242640     5A    -11.241740     6A    -11.235238
       7A    -11.229131     8A    -11.220720     9A     -1.398486
      10A     -1.141947    11A     -1.052471    12A     -1.012685
      13A     -0.928992    14A     -0.838147    15A     -0.797278
      16A     -0.725171    17A     -0.670284    18A     -0.649739
      19A     -0.602671    20A     -0.590700    21A     -0.581520
      22A     -0.578997    23A     -0.577111    24A     -0.535257
      25A     -0.526210    26A     -0.468441    27A     -0.462271
      28A     -0.339688    29A     -0.296972

  @DF-RHF Final Energy:  -344.70272159168422

   => Energetics <=

    Nuclear Repulsion Energy =            340.8414585117613456
    One-Electron Energy =               -1142.9283236262435821
    Two-Electron Energy =                 457.3841435227979559
    Total Energy =                       -344.7027215916842238
  Basis Set: (AUG-CC-PVTZ AUX)
    Blend: AUG-CC-PVTZ-RI
    Molecular point group: c1

    Geometry (in Angstrom), charge = 0, multiplicity = 1:

       Center              X                  Y                   Z               Mass
    ------------   -----------------  -----------------  -----------------  -----------------
         C           -2.934188438139     0.021665818274     0.015904085360    12.000000000000
         C            1.388502561861    -0.007211181726     0.004347085360    12.000000000000
         C            0.698357561861     1.206402818274    -0.002684914640    12.000000000000
         C            0.680192561861    -1.211592181726    -0.002280914640    12.000000000000
         C           -0.698080438139     1.208237818274    -0.008671914640    12.000000000000
         C           -0.711955438139    -1.190907181726    -0.008762914640    12.000000000000
         C           -1.527566138139     0.015536418274    -0.013824914640    12.000000000000
         O            2.761923561861    -0.089120181726     0.008993085360    15.994914619570
         H            1.245417561861     2.148765818274    -0.003401914640     1.007825032230
         H            3.121346561861     0.815349818274     0.012873085360     1.007825032230
         H            1.234170561861    -2.146283181726    -0.002212914640     1.007825032230
         H           -1.224983438139     2.161060818274    -0.016945914640     1.007825032230
         H           -1.254326438139    -2.135176181726    -0.017211914640     1.007825032230
         H           -3.343750438139    -0.807874181726    -0.567978914640     1.007825032230
         H           -3.331758438139     0.953132818274    -0.397123914640     1.007825032230
         H           -3.312266438139    -0.076236181726     1.039480085360     1.007825032230

  Basis Set: AUG-CC-PVTZ
    Blend: AUG-CC-PVTZ
  Basis Set: (AUG-CC-PVTZ AUX)
    Blend: AUG-CC-PVTZ-JKFIT
	 Reference Energy          =    -344.7027215916842238 [Eh]
	 Singles Energy            =      -0.0000000000000000 [Eh]
	 Same-Spin Energy          =      -0.3708986571622894 [Eh]
	 Opposite-Spin Energy      =      -1.1659532337889504 [Eh]
	 Correlation Energy        =      -1.5368518909512399 [Eh]
	 Total Energy              =    -346.2395734826354783 [Eh]

	 ================> DF-SCS-MP2 Energies <==================
	-----------------------------------------------------------
	 SCS Same-Spin Scale       =       0.3333333333333333 [-]
	 SCS Opposite-Spin Scale   =       1.2000000000000000 [-]
	 SCS Same-Spin Energy      =      -0.1236328857207631 [Eh]
	 SCS Opposite-Spin Energy  =      -1.3991438805467404 [Eh]
	 SCS Correlation Energy    =      -1.5227767662675036 [Eh]
	 SCS Total Energy          =    -346.2254983579517216 [Eh]
	-----------------------------------------------------------

  Dipole Moment: [D]
     X:    -0.5978      Y:     1.2657      Z:     0.0466     Total:     1.4005

*** Psi4 exiting successfully. Buy a developer a beer!
