                               Psi4 1.4a3.dev225

  ==> Input File <==

--------------------------------------------------------------------------
#psi4
#
memory 32 gb

molecule  {
0 1
  C       -2.8858990     0.0139170     0.0160750
  C        1.4367690    -0.0149750     0.0043080
  C        0.7466060     1.1986420    -0.0030770
  C        0.7284530    -1.2193540    -0.0027000
  C       -0.6498220     1.2004800    -0.0089530
  C       -0.6636960    -1.1986710    -0.0090440
  C       -1.3993181     0.0074214    -0.0161190
  O        2.8101740    -0.0968660     0.0091650
  H        1.2936780     2.1410060    -0.0034030
  H        3.1695990     0.8076070     0.0120990
  H        1.2824160    -2.1540570    -0.0024590
  H       -1.1767200     2.1533030    -0.0175850
  H       -1.2060630    -2.1429390    -0.0178450
  H       -3.2957090    -0.8164640    -0.5664260
  H       -3.2836900     0.9448070    -0.3980300
  H       -3.2634270    -0.0825680     1.0399950
units angstrom
no_reorient  #important for SAPT in psi4, default
symmetry c1  #important for SAPT in psi4, default
}

set PROPERTIES_ORIGIN ["COM"]
properties('MP2/aug-cc-pvtz', properties = ['dipole'])
--------------------------------------------------------------------------

    Molecular point group: c1
  Charge       = 0
  Multiplicity = 1
  Basis Set: AUG-CC-PVTZ
    Blend: AUG-CC-PVTZ
  Basis Set: (AUG-CC-PVTZ AUX)
    Blend: AUG-CC-PVTZ-JKFIT

    Orbital Energies [Eh]
    ---------------------

    Doubly Occupied:

       1A    -20.589721     2A    -11.300106     3A    -11.239823
       4A    -11.238132     5A    -11.236329     6A    -11.235126
       7A    -11.229126     8A    -11.222921     9A     -1.397991
      10A     -1.147410    11A     -1.039271    12A     -1.015959
      13A     -0.927052    14A     -0.842662    15A     -0.800092
      16A     -0.726940    17A     -0.669836    18A     -0.643774
      19A     -0.604303    20A     -0.588631    21A     -0.585528
      22A     -0.575319    23A     -0.571939    24A     -0.531566
      25A     -0.509403    26A     -0.483995    27A     -0.468415
      28A     -0.340747    29A     -0.303953

  @DF-RHF Final Energy:  -344.71787301379544

   => Energetics <=

    Nuclear Repulsion Energy =            341.5575500805411480
    One-Electron Energy =               -1144.4187039830073900
    Two-Electron Energy =                 458.1432808886707448
    Total Energy =                       -344.7178730137954403
  Basis Set: (AUG-CC-PVTZ AUX)
    Blend: AUG-CC-PVTZ-RI
    Molecular point group: c1

    Geometry (in Angstrom), charge = 0, multiplicity = 1:

       Center              X                  Y                   Z               Mass
    ------------   -----------------  -----------------  -----------------  -----------------
         C           -2.943044367924     0.021713652410     0.016452742803    12.000000000000
         C            1.379623632076    -0.007178347590     0.004685742803    12.000000000000
         C            0.689460632076     1.206438652410    -0.002699257197    12.000000000000
         C            0.671307632076    -1.211557347590    -0.002322257197    12.000000000000
         C           -0.706967367924     1.208276652410    -0.008575257197    12.000000000000
         C           -0.720841367924    -1.190874347590    -0.008666257197    12.000000000000
         C           -1.456463467924     0.015218052410    -0.015741257197    12.000000000000
         O            2.753028632076    -0.089069347590     0.009542742803    15.994914619570
         H            1.236532632076     2.148802652410    -0.003025257197     1.007825032230
         H            3.112453632076     0.815403652410     0.012476742803     1.007825032230
         H            1.225270632076    -2.146260347590    -0.002081257197     1.007825032230
         H           -1.233865367924     2.161099652410    -0.017207257197     1.007825032230
         H           -1.263208367924    -2.135142347590    -0.017467257197     1.007825032230
         H           -3.352854367924    -0.808667347590    -0.566048257197     1.007825032230
         H           -3.340835367924     0.952603652410    -0.397652257197     1.007825032230
         H           -3.320572367924    -0.074771347590     1.040372742803     1.007825032230

  Basis Set: AUG-CC-PVTZ
    Blend: AUG-CC-PVTZ
  Basis Set: (AUG-CC-PVTZ AUX)
    Blend: AUG-CC-PVTZ-JKFIT
	 Reference Energy          =    -344.7178730137954403 [Eh]
	 Singles Energy            =      -0.0000000000000000 [Eh]
	 Same-Spin Energy          =      -0.3697254051883846 [Eh]
	 Opposite-Spin Energy      =      -1.1640229610465929 [Eh]
	 Correlation Energy        =      -1.5337483662349776 [Eh]
	 Total Energy              =    -346.2516213800304286 [Eh]

	 ================> DF-SCS-MP2 Energies <==================
	-----------------------------------------------------------
	 SCS Same-Spin Scale       =       0.3333333333333333 [-]
	 SCS Opposite-Spin Scale   =       1.2000000000000000 [-]
	 SCS Same-Spin Energy      =      -0.1232418017294615 [Eh]
	 SCS Opposite-Spin Energy  =      -1.3968275532559113 [Eh]
	 SCS Correlation Energy    =      -1.5200693549853728 [Eh]
	 SCS Total Energy          =    -346.2379423687808071 [Eh]
	-----------------------------------------------------------

  Dipole Moment: [D]
     X:    -0.4958      Y:     1.2668      Z:     0.0376     Total:     1.3609

*** Psi4 exiting successfully. Buy a developer a beer!
