                               Psi4 1.3.2 release

  ==> Input File <==

--------------------------------------------------------------------------
#psi4
#
memory 32 gb

molecule  {
0 1
  C       -2.8859240     0.0139080     0.0157160
  C        1.4528511     0.1281441     0.0046280
  C        0.7466220     1.1986450    -0.0028730
  C        0.7284570    -1.2193500    -0.0024690
  C       -0.6498160     1.2004800    -0.0088600
  C       -0.6636910    -1.1986650    -0.0089510
  C       -1.3793250     0.0073430    -0.0161260
  O        2.8101880    -0.0968780     0.0088050
  H        1.2936820     2.1410080    -0.0035900
  H        3.1696110     0.8075920     0.0126850
  H        1.2824350    -2.1540410    -0.0024010
  H       -1.1767190     2.1533030    -0.0171340
  H       -1.2060620    -2.1429340    -0.0174000
  H       -3.2954860    -0.8156320    -0.5681670
  H       -3.2834940     0.9453750    -0.3973120
  H       -3.2640020    -0.0839940     1.0392920
units angstrom
no_reorient  #important for SAPT in psi4, default
symmetry c1  #important for SAPT in psi4, default
}

set PROPERTIES_ORIGIN ["COM"]
properties('MP2/aug-cc-pvtz', properties = ['dipole'])
--------------------------------------------------------------------------

    Molecular point group: c1
  Charge       = 0
  Multiplicity = 1
  Basis Set: AUG-CC-PVTZ
    Blend: AUG-CC-PVTZ
  Basis Set: (AUG-CC-PVTZ AUX)
    Blend: AUG-CC-PVTZ-JKFIT

    Orbital Energies [Eh]
    ---------------------

    Doubly Occupied:

       1A    -20.595485     2A    -11.297355     3A    -11.241595
       4A    -11.237479     5A    -11.236228     6A    -11.234384
       7A    -11.223638     8A    -11.220917     9A     -1.403978
      10A     -1.150280    11A     -1.048184    12A     -1.007579
      13A     -0.927607    14A     -0.842344    15A     -0.799865
      16A     -0.721827    17A     -0.677650    18A     -0.638195
      19A     -0.601059    20A     -0.592234    21A     -0.590123
      22A     -0.572933    23A     -0.570763    24A     -0.531742
      25A     -0.506324    26A     -0.474409    27A     -0.471083
      28A     -0.349462    29A     -0.301849

  @DF-RHF Final Energy:  -344.69174104026285

   => Energetics <=

    Nuclear Repulsion Energy =            341.6855257037209981
    One-Electron Energy =               -1144.6213946797970493
    Two-Electron Energy =                 458.2441279358132533
    Total Energy =                       -344.6917410402628548
  Basis Set: (AUG-CC-PVTZ AUX)
    Blend: AUG-CC-PVTZ-RI
    Molecular point group: c1

    Geometry (in Angstrom), charge = 0, multiplicity = 1:

       Center              X                  Y                   Z               Mass
    ------------   -----------------  -----------------  -----------------  -----------------
         C           -2.947077218725     0.005821200693     0.016086654800    12.000000000000
         C            1.391697881275     0.120057300693     0.004998654800    12.000000000000
         C            0.685468781275     1.190558200693    -0.002502345200    12.000000000000
         C            0.667303781275    -1.227436799307    -0.002098345200    12.000000000000
         C           -0.710969218725     1.192393200693    -0.008489345200    12.000000000000
         C           -0.724844218725    -1.206751799307    -0.008580345200    12.000000000000
         C           -1.440478218725    -0.000743799307    -0.015755345200    12.000000000000
         O            2.749034781275    -0.104964799307     0.009175654800    15.994914619570
         H            1.232528781275     2.132921200693    -0.003219345200     1.007825032230
         H            3.108457781275     0.799505200693     0.013055654800     1.007825032230
         H            1.221281781275    -2.162127799307    -0.002030345200     1.007825032230
         H           -1.237872218725     2.145216200693    -0.016763345200     1.007825032230
         H           -1.267215218725    -2.151020799307    -0.017029345200     1.007825032230
         H           -3.356639218725    -0.823718799307    -0.567796345200     1.007825032230
         H           -3.344647218725     0.937288200693    -0.396941345200     1.007825032230
         H           -3.325155218725    -0.092080799307     1.039662654800     1.007825032230

  Basis Set: AUG-CC-PVTZ
    Blend: AUG-CC-PVTZ
  Basis Set: (AUG-CC-PVTZ AUX)
    Blend: AUG-CC-PVTZ-JKFIT
	 Reference Energy          =    -344.6917410402628548 [Eh]
	 Singles Energy            =      -0.0000000000000000 [Eh]
	 Same-Spin Energy          =      -0.3689652568016239 [Eh]
	 Opposite-Spin Energy      =      -1.1653786786253486 [Eh]
	 Correlation Energy        =      -1.5343439354269726 [Eh]
	 Total Energy              =    -346.2260849756898438 [Eh]

	 ================> DF-SCS-MP2 Energies <==================
	-----------------------------------------------------------
	 SCS Same-Spin Scale       =       0.3333333333333333 [-]
	 SCS Opposite-Spin Scale   =       1.2000000000000000 [-]
	 SCS Same-Spin Energy      =      -0.1229884189338746 [Eh]
	 SCS Opposite-Spin Energy  =      -1.3984544143504183 [Eh]
	 SCS Correlation Energy    =      -1.5214428332842929 [Eh]
	 SCS Total Energy          =    -346.2131838735471661 [Eh]
	-----------------------------------------------------------

  Dipole Moment: [D]
     X:    -0.4015      Y:     1.2906      Z:     0.0375     Total:     1.3521

*** Psi4 exiting successfully. Buy a developer a beer!
