                               Psi4 1.3.2 release

  ==> Input File <==

--------------------------------------------------------------------------
#psi4
#
memory 32 gb

molecule  {
0 1
  C       -2.8859240     0.0139080     0.0157160
  C        1.4367670    -0.0149690     0.0041590
  C        0.8454867     1.0247923    -0.0018657
  C        0.7284570    -1.2193500    -0.0024690
  C       -0.6498160     1.2004800    -0.0088600
  C       -0.6636910    -1.1986650    -0.0089510
  C       -1.3793250     0.0073430    -0.0161260
  O        2.8101880    -0.0968780     0.0088050
  H        1.2936820     2.1410080    -0.0035900
  H        3.1696110     0.8075920     0.0126850
  H        1.2824350    -2.1540410    -0.0024010
  H       -1.1767190     2.1533030    -0.0171340
  H       -1.2060620    -2.1429340    -0.0174000
  H       -3.2954860    -0.8156320    -0.5681670
  H       -3.2834940     0.9453750    -0.3973120
  H       -3.2640020    -0.0839940     1.0392920
units angstrom
no_reorient  #important for SAPT in psi4, default
symmetry c1  #important for SAPT in psi4, default
}

set PROPERTIES_ORIGIN ["COM"]
properties('MP2/aug-cc-pvtz', properties = ['dipole'])
--------------------------------------------------------------------------

    Molecular point group: c1
  Charge       = 0
  Multiplicity = 1
  Basis Set: AUG-CC-PVTZ
    Blend: AUG-CC-PVTZ
  Basis Set: (AUG-CC-PVTZ AUX)
    Blend: AUG-CC-PVTZ-JKFIT

    Orbital Energies [Eh]
    ---------------------

    Doubly Occupied:

       1A    -20.579285     2A    -11.269272     3A    -11.246592
       4A    -11.240179     5A    -11.237580     6A    -11.235517
       7A    -11.226198     8A    -11.225403     9A     -1.394173
      10A     -1.161320    11A     -1.060122    12A     -1.007539
      13A     -0.934238    14A     -0.856646    15A     -0.790568
      16A     -0.723902    17A     -0.673626    18A     -0.635401
      19A     -0.608516    20A     -0.595967    21A     -0.583455
      22A     -0.572557    23A     -0.559652    24A     -0.537228
      25A     -0.505218    26A     -0.472464    27A     -0.466025
      28A     -0.345664    29A     -0.318344

  @DF-RHF Final Energy:  -344.65779063430710

   => Energetics <=

    Nuclear Repulsion Energy =            344.3312180547278558
    One-Electron Energy =               -1149.8527153196846484
    Two-Electron Energy =                 460.8637066306496877
    Total Energy =                       -344.6577906343071049
  Basis Set: (AUG-CC-PVTZ AUX)
    Blend: AUG-CC-PVTZ-RI
    Molecular point group: c1

    Geometry (in Angstrom), charge = 0, multiplicity = 1:

       Center              X                  Y                   Z               Mass
    ------------   -----------------  -----------------  -----------------  -----------------
         C           -2.956270167509     0.041020877498     0.016026875524    12.000000000000
         C            1.366420832491     0.012143877498     0.004469875524    12.000000000000
         C            0.775140532491     1.051905177498    -0.001554824476    12.000000000000
         C            0.658110832491    -1.192237122502    -0.002158124476    12.000000000000
         C           -0.720162167509     1.227592877498    -0.008549124476    12.000000000000
         C           -0.734037167509    -1.171552122502    -0.008640124476    12.000000000000
         C           -1.449671167509     0.034455877498    -0.015815124476    12.000000000000
         O            2.739841832491    -0.069765122502     0.009115875524    15.994914619570
         H            1.223335832491     2.168120877498    -0.003279124476     1.007825032230
         H            3.099264832491     0.834704877498     0.012995875524     1.007825032230
         H            1.212088832491    -2.126928122502    -0.002090124476     1.007825032230
         H           -1.247065167509     2.180415877498    -0.016823124476     1.007825032230
         H           -1.276408167509    -2.115821122502    -0.017089124476     1.007825032230
         H           -3.365832167509    -0.788519122502    -0.567856124476     1.007825032230
         H           -3.353840167509     0.972487877498    -0.397001124476     1.007825032230
         H           -3.334348167509    -0.056881122502     1.039602875524     1.007825032230

  Basis Set: AUG-CC-PVTZ
    Blend: AUG-CC-PVTZ
  Basis Set: (AUG-CC-PVTZ AUX)
    Blend: AUG-CC-PVTZ-JKFIT
	 Reference Energy          =    -344.6577906343071049 [Eh]
	 Singles Energy            =      -0.0000000000000000 [Eh]
	 Same-Spin Energy          =      -0.3687025149703704 [Eh]
	 Opposite-Spin Energy      =      -1.1645568868120830 [Eh]
	 Correlation Energy        =      -1.5332594017824535 [Eh]
	 Total Energy              =    -346.1910500360895639 [Eh]

	 ================> DF-SCS-MP2 Energies <==================
	-----------------------------------------------------------
	 SCS Same-Spin Scale       =       0.3333333333333333 [-]
	 SCS Opposite-Spin Scale   =       1.2000000000000000 [-]
	 SCS Same-Spin Energy      =      -0.1229008383234568 [Eh]
	 SCS Opposite-Spin Energy  =      -1.3974682641744995 [Eh]
	 SCS Correlation Energy    =      -1.5203691024979564 [Eh]
	 SCS Total Energy          =    -346.1781597368050711 [Eh]
	-----------------------------------------------------------

  Dipole Moment: [D]
     X:    -0.8906      Y:     1.2257      Z:     0.0384     Total:     1.5156

*** Psi4 exiting successfully. Buy a developer a beer!
