                               Psi4 1.3.2 release

  ==> Input File <==

--------------------------------------------------------------------------
#psi4
#
memory 32 gb

molecule  {
0 1
  C       -2.8859240     0.0139080     0.0157160
  C        1.4367670    -0.0149690     0.0041590
  C        0.7893974     1.2219919    -0.0028321
  C        0.7284570    -1.2193500    -0.0024690
  C       -0.6498160     1.2004800    -0.0088600
  C       -0.6636910    -1.1986650    -0.0089510
  C       -1.3793250     0.0073430    -0.0161260
  O        2.8101880    -0.0968780     0.0088050
  H        1.2936820     2.1410080    -0.0035900
  H        3.1696110     0.8075920     0.0126850
  H        1.2824350    -2.1540410    -0.0024010
  H       -1.1767190     2.1533030    -0.0171340
  H       -1.2060620    -2.1429340    -0.0174000
  H       -3.2954860    -0.8156320    -0.5681670
  H       -3.2834940     0.9453750    -0.3973120
  H       -3.2640020    -0.0839940     1.0392920
units angstrom
no_reorient  #important for SAPT in psi4, default
symmetry c1  #important for SAPT in psi4, default
}

set PROPERTIES_ORIGIN ["COM"]
properties('MP2/aug-cc-pvtz', properties = ['dipole'])
--------------------------------------------------------------------------

    Molecular point group: c1
  Charge       = 0
  Multiplicity = 1
  Basis Set: AUG-CC-PVTZ
    Blend: AUG-CC-PVTZ
  Basis Set: (AUG-CC-PVTZ AUX)
    Blend: AUG-CC-PVTZ-JKFIT

    Orbital Energies [Eh]
    ---------------------

    Doubly Occupied:

       1A    -20.587202     2A    -11.300847     3A    -11.243195
       4A    -11.238842     5A    -11.235593     6A    -11.234907
       7A    -11.230023     8A    -11.223730     9A     -1.396930
      10A     -1.145399    11A     -1.036688    12A     -1.013781
      13A     -0.925559    14A     -0.847568    15A     -0.799427
      16A     -0.726615    17A     -0.665800    18A     -0.650295
      19A     -0.607570    20A     -0.588051    21A     -0.587276
      22A     -0.572392    23A     -0.570127    24A     -0.530177
      25A     -0.502707    26A     -0.490513    27A     -0.466944
      28A     -0.337130    29A     -0.307053

  @DF-RHF Final Energy:  -344.71556754802475

   => Energetics <=

    Nuclear Repulsion Energy =            341.1319296075885745
    One-Electron Energy =               -1143.5703151790112315
    Two-Electron Energy =                 457.7228180233979629
    Total Energy =                       -344.7155675480247510
  Basis Set: (AUG-CC-PVTZ AUX)
    Blend: AUG-CC-PVTZ-RI
    Molecular point group: c1

    Geometry (in Angstrom), charge = 0, multiplicity = 1:

       Center              X                  Y                   Z               Mass
    ------------   -----------------  -----------------  -----------------  -----------------
         C           -2.950041340197     0.019121473253     0.016134196149    12.000000000000
         C            1.372649659803    -0.009755526747     0.004577196149    12.000000000000
         C            0.725280059803     1.227205373253    -0.002413903851    12.000000000000
         C            0.664339659803    -1.214136526747    -0.002050803851    12.000000000000
         C           -0.713933340197     1.205693473253    -0.008441803851    12.000000000000
         C           -0.727808340197    -1.193451526747    -0.008532803851    12.000000000000
         C           -1.443442340197     0.012556473253    -0.015707803851    12.000000000000
         O            2.746070659803    -0.091664526747     0.009223196149    15.994914619570
         H            1.229564659803     2.146221473253    -0.003171803851     1.007825032230
         H            3.105493659803     0.812805473253     0.013103196149     1.007825032230
         H            1.218317659803    -2.148827526747    -0.001982803851     1.007825032230
         H           -1.240836340197     2.158516473253    -0.016715803851     1.007825032230
         H           -1.270179340197    -2.137720526747    -0.016981803851     1.007825032230
         H           -3.359603340197    -0.810418526747    -0.567748803851     1.007825032230
         H           -3.347611340197     0.950588473253    -0.396893803851     1.007825032230
         H           -3.328119340197    -0.078780526747     1.039710196149     1.007825032230

  Basis Set: AUG-CC-PVTZ
    Blend: AUG-CC-PVTZ
  Basis Set: (AUG-CC-PVTZ AUX)
    Blend: AUG-CC-PVTZ-JKFIT
	 Reference Energy          =    -344.7155675480247510 [Eh]
	 Singles Energy            =      -0.0000000000000000 [Eh]
	 Same-Spin Energy          =      -0.3694022137851204 [Eh]
	 Opposite-Spin Energy      =      -1.1639852910310908 [Eh]
	 Correlation Energy        =      -1.5333875048162113 [Eh]
	 Total Energy              =    -346.2489550528409836 [Eh]

	 ================> DF-SCS-MP2 Energies <==================
	-----------------------------------------------------------
	 SCS Same-Spin Scale       =       0.3333333333333333 [-]
	 SCS Opposite-Spin Scale   =       1.2000000000000000 [-]
	 SCS Same-Spin Energy      =      -0.1231340712617068 [Eh]
	 SCS Opposite-Spin Energy  =      -1.3967823492373090 [Eh]
	 SCS Correlation Energy    =      -1.5199164204990159 [Eh]
	 SCS Total Energy          =    -346.2354839685237948 [Eh]
	-----------------------------------------------------------

  Dipole Moment: [D]
     X:    -0.4987      Y:     1.2507      Z:     0.0364     Total:     1.3469

*** Psi4 exiting successfully. Buy a developer a beer!
