                               Psi4 1.3.2 release

  ==> Input File <==

--------------------------------------------------------------------------
#psi4
#
memory 32 gb

molecule  {
0 1
  C       -2.8859240     0.0139080     0.0157160
  C        1.4367670    -0.0149690     0.0041590
  C        0.7960543     1.1117187    -0.0023693
  C        0.7284570    -1.2193500    -0.0024690
  C       -0.6498160     1.2004800    -0.0088600
  C       -0.6636910    -1.1986650    -0.0089510
  C       -1.3793250     0.0073430    -0.0161260
  O        2.8101880    -0.0968780     0.0088050
  H        1.2936820     2.1410080    -0.0035900
  H        3.1696110     0.8075920     0.0126850
  H        1.2824350    -2.1540410    -0.0024010
  H       -1.1767190     2.1533030    -0.0171340
  H       -1.2060620    -2.1429340    -0.0174000
  H       -3.2954860    -0.8156320    -0.5681670
  H       -3.2834940     0.9453750    -0.3973120
  H       -3.2640020    -0.0839940     1.0392920
units angstrom
no_reorient  #important for SAPT in psi4, default
symmetry c1  #important for SAPT in psi4, default
}

set PROPERTIES_ORIGIN ["COM"]
properties('MP2/aug-cc-pvtz', properties = ['dipole'])
--------------------------------------------------------------------------

    Molecular point group: c1
  Charge       = 0
  Multiplicity = 1
  Basis Set: AUG-CC-PVTZ
    Blend: AUG-CC-PVTZ
  Basis Set: (AUG-CC-PVTZ AUX)
    Blend: AUG-CC-PVTZ-JKFIT

    Orbital Energies [Eh]
    ---------------------

    Doubly Occupied:

       1A    -20.584628     2A    -11.286063     3A    -11.242670
       4A    -11.237899     5A    -11.236694     6A    -11.232352
       7A    -11.231353     8A    -11.224305     9A     -1.395877
      10A     -1.153768    11A     -1.046818    12A     -1.011199
      13A     -0.930869    14A     -0.849875    15A     -0.796864
      16A     -0.726160    17A     -0.671327    18A     -0.638114
      19A     -0.605882    20A     -0.591133    21A     -0.583198
      22A     -0.571421    23A     -0.569481    24A     -0.534520
      25A     -0.500894    26A     -0.484951    27A     -0.470859
      28A     -0.337878    29A     -0.315204

  @DF-RHF Final Energy:  -344.70611255440019

   => Energetics <=

    Nuclear Repulsion Energy =            342.9436806771240640
    One-Electron Energy =               -1147.1750738677374102
    Two-Electron Energy =                 459.5252806362130968
    Total Energy =                       -344.7061125544001925
  Basis Set: (AUG-CC-PVTZ AUX)
    Blend: AUG-CC-PVTZ-RI
    Molecular point group: c1

    Geometry (in Angstrom), charge = 0, multiplicity = 1:

       Center              X                  Y                   Z               Mass
    ------------   -----------------  -----------------  -----------------  -----------------
         C           -2.950780602062     0.031367529453     0.016082801297    12.000000000000
         C            1.371910397938     0.002490529453     0.004525801297    12.000000000000
         C            0.731197697938     1.129178229453    -0.002002498703    12.000000000000
         C            0.663600397938    -1.201890470547    -0.002102198703    12.000000000000
         C           -0.714672602062     1.217939529453    -0.008493198703    12.000000000000
         C           -0.728547602062    -1.181205470547    -0.008584198703    12.000000000000
         C           -1.444181602062     0.024802529453    -0.015759198703    12.000000000000
         O            2.745331397938    -0.079418470547     0.009171801297    15.994914619570
         H            1.228825397938     2.158467529453    -0.003223198703     1.007825032230
         H            3.104754397938     0.825051529453     0.013051801297     1.007825032230
         H            1.217578397938    -2.136581470547    -0.002034198703     1.007825032230
         H           -1.241575602062     2.170762529453    -0.016767198703     1.007825032230
         H           -1.270918602062    -2.125474470547    -0.017033198703     1.007825032230
         H           -3.360342602062    -0.798172470547    -0.567800198703     1.007825032230
         H           -3.348350602062     0.962834529453    -0.396945198703     1.007825032230
         H           -3.328858602062    -0.066534470547     1.039658801297     1.007825032230

  Basis Set: AUG-CC-PVTZ
    Blend: AUG-CC-PVTZ
  Basis Set: (AUG-CC-PVTZ AUX)
    Blend: AUG-CC-PVTZ-JKFIT
	 Reference Energy          =    -344.7061125544001925 [Eh]
	 Singles Energy            =      -0.0000000000000000 [Eh]
	 Same-Spin Energy          =      -0.3692261008173359 [Eh]
	 Opposite-Spin Energy      =      -1.1636963696681799 [Eh]
	 Correlation Energy        =      -1.5329224704855158 [Eh]
	 Total Energy              =    -346.2390350248857089 [Eh]

	 ================> DF-SCS-MP2 Energies <==================
	-----------------------------------------------------------
	 SCS Same-Spin Scale       =       0.3333333333333333 [-]
	 SCS Opposite-Spin Scale   =       1.2000000000000000 [-]
	 SCS Same-Spin Energy      =      -0.1230753669391119 [Eh]
	 SCS Opposite-Spin Energy  =      -1.3964356436018159 [Eh]
	 SCS Correlation Energy    =      -1.5195110105409280 [Eh]
	 SCS Total Energy          =    -346.2256235649411451 [Eh]
	-----------------------------------------------------------

  Dipole Moment: [D]
     X:    -0.6597      Y:     1.2458      Z:     0.0377     Total:     1.4102

*** Psi4 exiting successfully. Buy a developer a beer!
