                               Psi4 1.4a3.dev225

  ==> Input File <==

--------------------------------------------------------------------------
#psi4
#
memory 32 gb

molecule  {
0 1
  C       -2.8858990     0.0139170     0.0160750
  C        1.4367690    -0.0149750     0.0043080
  C        0.7466060     1.1986420    -0.0030770
  C        0.7284530    -1.2193540    -0.0027000
  C       -0.6498220     1.2004800    -0.0089530
  C       -0.6636960    -1.1986710    -0.0090440
  C       -1.3793230     0.0073340    -0.0165520
  O        2.8101740    -0.0968660     0.0091650
  H        1.2936780     2.1410060    -0.0034030
  H        3.1511343     0.7611416     0.0119483
  H        1.2824160    -2.1540570    -0.0024590
  H       -1.1767200     2.1533030    -0.0175850
  H       -1.2060630    -2.1429390    -0.0178450
  H       -3.2957090    -0.8164640    -0.5664260
  H       -3.2836900     0.9448070    -0.3980300
  H       -3.2634270    -0.0825680     1.0399950
units angstrom
no_reorient  #important for SAPT in psi4, default
symmetry c1  #important for SAPT in psi4, default
}

set PROPERTIES_ORIGIN ["COM"]
properties('MP2/aug-cc-pvtz', properties = ['dipole'])
--------------------------------------------------------------------------

    Molecular point group: c1
  Charge       = 0
  Multiplicity = 1
  Basis Set: AUG-CC-PVTZ
    Blend: AUG-CC-PVTZ
  Basis Set: (AUG-CC-PVTZ AUX)
    Blend: AUG-CC-PVTZ-JKFIT

    Orbital Energies [Eh]
    ---------------------

    Doubly Occupied:

       1A    -20.585158     2A    -11.300272     3A    -11.239040
       4A    -11.237297     5A    -11.235597     6A    -11.235332
       7A    -11.229438     8A    -11.223560     9A     -1.409378
      10A     -1.150003    11A     -1.038119    12A     -1.017239
      13A     -0.928102    14A     -0.845426    15A     -0.803492
      16A     -0.734593    17A     -0.671014    18A     -0.642929
      19A     -0.607065    20A     -0.589786    21A     -0.587173
      22A     -0.576572    23A     -0.570872    24A     -0.532308
      25A     -0.504125    26A     -0.487757    27A     -0.470714
      28A     -0.341284    29A     -0.306111

  @DF-RHF Final Energy:  -344.71963895241038

   => Energetics <=

    Nuclear Repulsion Energy =            342.0579720650826516
    One-Electron Energy =               -1145.3557106443574867
    Two-Electron Energy =                 458.5780996268645140
    Total Energy =                       -344.7196389524103779
  Basis Set: (AUG-CC-PVTZ AUX)
    Blend: AUG-CC-PVTZ-RI
    Molecular point group: c1

    Geometry (in Angstrom), charge = 0, multiplicity = 1:

       Center              X                  Y                   Z               Mass
    ------------   -----------------  -----------------  -----------------  -----------------
         C           -2.945092647614     0.022156729352     0.016502233847    12.000000000000
         C            1.377575352386    -0.006735270648     0.004735233847    12.000000000000
         C            0.687412352386     1.206881729352    -0.002649766153    12.000000000000
         C            0.669259352386    -1.211114270648    -0.002272766153    12.000000000000
         C           -0.709015647614     1.208719729352    -0.008525766153    12.000000000000
         C           -0.722889647614    -1.190431270648    -0.008616766153    12.000000000000
         C           -1.438516647614     0.015573729352    -0.016124766153    12.000000000000
         O            2.750980352386    -0.088626270648     0.009592233847    15.994914619570
         H            1.234484352386     2.149245729352    -0.002975766153     1.007825032230
         H            3.091940652386     0.769381329352     0.012375533847     1.007825032230
         H            1.223222352386    -2.145817270648    -0.002031766153     1.007825032230
         H           -1.235913647614     2.161542729352    -0.017157766153     1.007825032230
         H           -1.265256647614    -2.134699270648    -0.017417766153     1.007825032230
         H           -3.354902647614    -0.808224270648    -0.565998766153     1.007825032230
         H           -3.342883647614     0.953046729352    -0.397602766153     1.007825032230
         H           -3.322620647614    -0.074328270648     1.040422233847     1.007825032230

  Basis Set: AUG-CC-PVTZ
    Blend: AUG-CC-PVTZ
  Basis Set: (AUG-CC-PVTZ AUX)
    Blend: AUG-CC-PVTZ-JKFIT
	 Reference Energy          =    -344.7196389524103779 [Eh]
	 Singles Energy            =      -0.0000000000000000 [Eh]
	 Same-Spin Energy          =      -0.3689098467003581 [Eh]
	 Opposite-Spin Energy      =      -1.1621876407828879 [Eh]
	 Correlation Energy        =      -1.5310974874832461 [Eh]
	 Total Energy              =    -346.2507364398936147 [Eh]

	 ================> DF-SCS-MP2 Energies <==================
	-----------------------------------------------------------
	 SCS Same-Spin Scale       =       0.3333333333333333 [-]
	 SCS Opposite-Spin Scale   =       1.2000000000000000 [-]
	 SCS Same-Spin Energy      =      -0.1229699489001194 [Eh]
	 SCS Opposite-Spin Energy  =      -1.3946251689394655 [Eh]
	 SCS Correlation Energy    =      -1.5175951178395848 [Eh]
	 SCS Total Energy          =    -346.2372340702499400 [Eh]
	-----------------------------------------------------------

  Dipole Moment: [D]
     X:    -0.5150      Y:     1.2294      Z:     0.0357     Total:     1.3333

*** Psi4 exiting successfully. Buy a developer a beer!
