                               Psi4 1.3.2 release

  ==> Input File <==

--------------------------------------------------------------------------
#psi4
#
memory 32 gb

molecule  {
0 1
  C       -2.8859240     0.0139080     0.0157160
  C        1.4367670    -0.0149690     0.0041590
  C        0.7466220     1.1986450    -0.0028730
  C        0.7284570    -1.2193500    -0.0024690
  C       -0.6498160     1.2004800    -0.0088600
  C       -0.6636910    -1.1986650    -0.0089510
  C       -1.2749979     0.1779735    -0.0150869
  O        2.8101880    -0.0968780     0.0088050
  H        1.2936820     2.1410080    -0.0035900
  H        3.1696110     0.8075920     0.0126850
  H        1.2824350    -2.1540410    -0.0024010
  H       -1.1767190     2.1533030    -0.0171340
  H       -1.2060620    -2.1429340    -0.0174000
  H       -3.2954860    -0.8156320    -0.5681670
  H       -3.2834940     0.9453750    -0.3973120
  H       -3.2640020    -0.0839940     1.0392920
units angstrom
no_reorient  #important for SAPT in psi4, default
symmetry c1  #important for SAPT in psi4, default
}

set PROPERTIES_ORIGIN ["COM"]
properties('MP2/aug-cc-pvtz', properties = ['dipole'])
--------------------------------------------------------------------------

    Molecular point group: c1
  Charge       = 0
  Multiplicity = 1
  Basis Set: AUG-CC-PVTZ
    Blend: AUG-CC-PVTZ
  Basis Set: (AUG-CC-PVTZ AUX)
    Blend: AUG-CC-PVTZ-JKFIT

    Orbital Energies [Eh]
    ---------------------

    Doubly Occupied:

       1A    -20.589611     2A    -11.300544     3A    -11.248777
       4A    -11.233291     5A    -11.229632     6A    -11.226009
       7A    -11.225421     8A    -11.208639     9A     -1.397931
      10A     -1.165504    11A     -1.044553    12A     -1.007153
      13A     -0.923043    14A     -0.858302    15A     -0.789698
      16A     -0.728663    17A     -0.678345    18A     -0.632202
      19A     -0.611710    20A     -0.590956    21A     -0.588984
      22A     -0.572760    23A     -0.563672    24A     -0.533638
      25A     -0.511495    26A     -0.483919    27A     -0.442606
      28A     -0.355393    29A     -0.308832

  @DF-RHF Final Energy:  -344.66019963630561

   => Energetics <=

    Nuclear Repulsion Energy =            343.0820874084437264
    One-Electron Energy =               -1147.3820114045547598
    Two-Electron Energy =                 459.6397243598054274
    Total Energy =                       -344.6601996363056060
  Basis Set: (AUG-CC-PVTZ AUX)
    Blend: AUG-CC-PVTZ-RI
    Molecular point group: c1

    Geometry (in Angstrom), charge = 0, multiplicity = 1:

       Center              X                  Y                   Z               Mass
    ------------   -----------------  -----------------  -----------------  -----------------
         C           -2.956876777795     0.002765339188     0.016023344071    12.000000000000
         C            1.365814222205    -0.026111660812     0.004466344071    12.000000000000
         C            0.675669222205     1.187502339188    -0.002565655929    12.000000000000
         C            0.657504222205    -1.230492660812    -0.002161655929    12.000000000000
         C           -0.720768777795     1.189337339188    -0.008552655929    12.000000000000
         C           -0.734643777795    -1.209807660812    -0.008643655929    12.000000000000
         C           -1.345950677795     0.166830839188    -0.014779555929    12.000000000000
         O            2.739235222205    -0.108020660812     0.009112344071    15.994914619570
         H            1.222729222205     2.129865339188    -0.003282655929     1.007825032230
         H            3.098658222205     0.796449339188     0.012992344071     1.007825032230
         H            1.211482222205    -2.165183660812    -0.002093655929     1.007825032230
         H           -1.247671777795     2.142160339188    -0.016826655929     1.007825032230
         H           -1.277014777795    -2.154076660812    -0.017092655929     1.007825032230
         H           -3.366438777795    -0.826774660812    -0.567859655929     1.007825032230
         H           -3.354446777795     0.934232339188    -0.397004655929     1.007825032230
         H           -3.334954777795    -0.095136660812     1.039599344071     1.007825032230

  Basis Set: AUG-CC-PVTZ
    Blend: AUG-CC-PVTZ
  Basis Set: (AUG-CC-PVTZ AUX)
    Blend: AUG-CC-PVTZ-JKFIT
	 Reference Energy          =    -344.6601996363056060 [Eh]
	 Singles Energy            =      -0.0000000000000000 [Eh]
	 Same-Spin Energy          =      -0.3679016042873783 [Eh]
	 Opposite-Spin Energy      =      -1.1641148811772202 [Eh]
	 Correlation Energy        =      -1.5320164854645983 [Eh]
	 Total Energy              =    -346.1922161217702296 [Eh]

	 ================> DF-SCS-MP2 Energies <==================
	-----------------------------------------------------------
	 SCS Same-Spin Scale       =       0.3333333333333333 [-]
	 SCS Opposite-Spin Scale   =       1.2000000000000000 [-]
	 SCS Same-Spin Energy      =      -0.1226338680957928 [Eh]
	 SCS Opposite-Spin Energy  =      -1.3969378574126641 [Eh]
	 SCS Correlation Energy    =      -1.5195717255084569 [Eh]
	 SCS Total Energy          =    -346.1797713618140619 [Eh]
	-----------------------------------------------------------

  Dipole Moment: [D]
     X:    -0.3507      Y:     1.1150      Z:     0.0271     Total:     1.1692

*** Psi4 exiting successfully. Buy a developer a beer!
