                               Psi4 1.3.2 release

  ==> Input File <==

--------------------------------------------------------------------------
#psi4
#
memory 32 gb

molecule  {
0 1
  C       -2.8859240     0.0139080     0.0157160
  C        1.4367670    -0.0149690     0.0041590
  C        0.7893950     1.2219927    -0.0024609
  C        0.7284570    -1.2193500    -0.0024690
  C       -0.6498160     1.2004800    -0.0088600
  C       -0.6636910    -1.1986650    -0.0089510
  C       -1.3793250     0.0073430    -0.0161260
  O        2.8101880    -0.0968780     0.0088050
  H        1.2936820     2.1410080    -0.0035900
  H        3.1696110     0.8075920     0.0126850
  H        1.2824350    -2.1540410    -0.0024010
  H       -1.1767190     2.1533030    -0.0171340
  H       -1.2060620    -2.1429340    -0.0174000
  H       -3.2954860    -0.8156320    -0.5681670
  H       -3.2834940     0.9453750    -0.3973120
  H       -3.2640020    -0.0839940     1.0392920
units angstrom
no_reorient  #important for SAPT in psi4, default
symmetry c1  #important for SAPT in psi4, default
}

set PROPERTIES_ORIGIN ["COM"]
properties('MP2/aug-cc-pvtz', properties = ['dipole'])
--------------------------------------------------------------------------

    Molecular point group: c1
  Charge       = 0
  Multiplicity = 1
  Basis Set: AUG-CC-PVTZ
    Blend: AUG-CC-PVTZ
  Basis Set: (AUG-CC-PVTZ AUX)
    Blend: AUG-CC-PVTZ-JKFIT

    Orbital Energies [Eh]
    ---------------------

    Doubly Occupied:

       1A    -20.587202     2A    -11.300847     3A    -11.243195
       4A    -11.238842     5A    -11.235593     6A    -11.234907
       7A    -11.230023     8A    -11.223730     9A     -1.396930
      10A     -1.145399    11A     -1.036688    12A     -1.013781
      13A     -0.925559    14A     -0.847568    15A     -0.799427
      16A     -0.726615    17A     -0.665800    18A     -0.650295
      19A     -0.607570    20A     -0.588055    21A     -0.587272
      22A     -0.572395    23A     -0.570125    24A     -0.530177
      25A     -0.502707    26A     -0.490513    27A     -0.466944
      28A     -0.337130    29A     -0.307053

  @DF-RHF Final Energy:  -344.71556801350880

   => Energetics <=

    Nuclear Repulsion Energy =            341.1319338495242732
    One-Electron Energy =               -1143.5703190393624027
    Two-Electron Energy =                 457.7228171763292721
    Total Energy =                       -344.7155680135088005
  Basis Set: (AUG-CC-PVTZ AUX)
    Blend: AUG-CC-PVTZ-RI
    Molecular point group: c1

    Geometry (in Angstrom), charge = 0, multiplicity = 1:

       Center              X                  Y                   Z               Mass
    ------------   -----------------  -----------------  -----------------  -----------------
         C           -2.950041073672     0.019121384411     0.016092973657    12.000000000000
         C            1.372649926328    -0.009755615589     0.004535973657    12.000000000000
         C            0.725277926328     1.227206084411    -0.002083926343    12.000000000000
         C            0.664339926328    -1.214136615589    -0.002092026343    12.000000000000
         C           -0.713933073672     1.205693384411    -0.008483026343    12.000000000000
         C           -0.727808073672    -1.193451615589    -0.008574026343    12.000000000000
         C           -1.443442073672     0.012556384411    -0.015749026343    12.000000000000
         O            2.746070926328    -0.091664615589     0.009181973657    15.994914619570
         H            1.229564926328     2.146221384411    -0.003213026343     1.007825032230
         H            3.105493926328     0.812805384411     0.013061973657     1.007825032230
         H            1.218317926328    -2.148827615589    -0.002024026343     1.007825032230
         H           -1.240836073672     2.158516384411    -0.016757026343     1.007825032230
         H           -1.270179073672    -2.137720615589    -0.017023026343     1.007825032230
         H           -3.359603073672    -0.810418615589    -0.567790026343     1.007825032230
         H           -3.347611073672     0.950588384411    -0.396935026343     1.007825032230
         H           -3.328119073672    -0.078780615589     1.039668973657     1.007825032230

  Basis Set: AUG-CC-PVTZ
    Blend: AUG-CC-PVTZ
  Basis Set: (AUG-CC-PVTZ AUX)
    Blend: AUG-CC-PVTZ-JKFIT
	 Reference Energy          =    -344.7155680135088005 [Eh]
	 Singles Energy            =      -0.0000000000000000 [Eh]
	 Same-Spin Energy          =      -0.3694022006252962 [Eh]
	 Opposite-Spin Energy      =      -1.1639852420972960 [Eh]
	 Correlation Energy        =      -1.5333874427225922 [Eh]
	 Total Energy              =    -346.2489554562313856 [Eh]

	 ================> DF-SCS-MP2 Energies <==================
	-----------------------------------------------------------
	 SCS Same-Spin Scale       =       0.3333333333333333 [-]
	 SCS Opposite-Spin Scale   =       1.2000000000000000 [-]
	 SCS Same-Spin Energy      =      -0.1231340668750987 [Eh]
	 SCS Opposite-Spin Energy  =      -1.3967822905167553 [Eh]
	 SCS Correlation Energy    =      -1.5199163573918539 [Eh]
	 SCS Total Energy          =    -346.2354843709006786 [Eh]
	-----------------------------------------------------------

  Dipole Moment: [D]
     X:    -0.4987      Y:     1.2507      Z:     0.0362     Total:     1.3469

*** Psi4 exiting successfully. Buy a developer a beer!
