                               Psi4 1.3.2 release

  ==> Input File <==

--------------------------------------------------------------------------
#psi4
#
memory 32 gb

molecule  {
0 1
  C       -2.8859240     0.0139080     0.0157160
  C        1.4343999    -0.1109737     0.0038743
  C        0.7466220     1.1986450    -0.0028730
  C        0.7284570    -1.2193500    -0.0024690
  C       -0.6498160     1.2004800    -0.0088600
  C       -0.6636910    -1.1986650    -0.0089510
  C       -1.3793250     0.0073430    -0.0161260
  O        2.8101880    -0.0968780     0.0088050
  H        1.2936820     2.1410080    -0.0035900
  H        3.1696110     0.8075920     0.0126850
  H        1.2824350    -2.1540410    -0.0024010
  H       -1.1767190     2.1533030    -0.0171340
  H       -1.2060620    -2.1429340    -0.0174000
  H       -3.2954860    -0.8156320    -0.5681670
  H       -3.2834940     0.9453750    -0.3973120
  H       -3.2640020    -0.0839940     1.0392920
units angstrom
no_reorient  #important for SAPT in psi4, default
symmetry c1  #important for SAPT in psi4, default
}

set PROPERTIES_ORIGIN ["COM"]
properties('MP2/aug-cc-pvtz', properties = ['dipole'])
--------------------------------------------------------------------------

    Molecular point group: c1
  Charge       = 0
  Multiplicity = 1
  Basis Set: AUG-CC-PVTZ
    Blend: AUG-CC-PVTZ
  Basis Set: (AUG-CC-PVTZ AUX)
    Blend: AUG-CC-PVTZ-JKFIT

    Orbital Energies [Eh]
    ---------------------

    Doubly Occupied:

       1A    -20.585789     2A    -11.298767     3A    -11.243576
       4A    -11.239142     5A    -11.237693     6A    -11.235411
       7A    -11.223582     8A    -11.218368     9A     -1.393645
      10A     -1.150611    11A     -1.044143    12A     -1.012637
      13A     -0.928156    14A     -0.842101    15A     -0.798474
      16A     -0.732314    17A     -0.664290    18A     -0.648029
      19A     -0.613452    20A     -0.587585    21A     -0.586952
      22A     -0.570535    23A     -0.566151    24A     -0.529880
      25A     -0.505890    26A     -0.478862    27A     -0.470036
      28A     -0.344811    29A     -0.304325

  @DF-RHF Final Energy:  -344.70765319978693

   => Energetics <=

    Nuclear Repulsion Energy =            341.8257896575505015
    One-Electron Energy =               -1144.9564733708293716
    Two-Electron Energy =                 458.4230305134918808
    Total Energy =                       -344.7076531997869324
  Basis Set: (AUG-CC-PVTZ AUX)
    Blend: AUG-CC-PVTZ-RI
    Molecular point group: c1

    Geometry (in Angstrom), charge = 0, multiplicity = 1:

       Center              X                  Y                   Z               Mass
    ------------   -----------------  -----------------  -----------------  -----------------
         C           -2.945028176599     0.032375703665     0.016170354671    12.000000000000
         C            1.375295723401    -0.092505996335     0.004328654671    12.000000000000
         C            0.687517823401     1.217112703665    -0.002418645329    12.000000000000
         C            0.669352823401    -1.200882296335    -0.002014645329    12.000000000000
         C           -0.708920176599     1.218947703665    -0.008405645329    12.000000000000
         C           -0.722795176599    -1.180197296335    -0.008496645329    12.000000000000
         C           -1.438429176599     0.025810703665    -0.015671645329    12.000000000000
         O            2.751083823401    -0.078410296335     0.009259354671    15.994914619570
         H            1.234577823401     2.159475703665    -0.003135645329     1.007825032230
         H            3.110506823401     0.826059703665     0.013139354671     1.007825032230
         H            1.223330823401    -2.135573296335    -0.001946645329     1.007825032230
         H           -1.235823176599     2.171770703665    -0.016679645329     1.007825032230
         H           -1.265166176599    -2.124466296335    -0.016945645329     1.007825032230
         H           -3.354590176599    -0.797164296335    -0.567712645329     1.007825032230
         H           -3.342598176599     0.963842703665    -0.396857645329     1.007825032230
         H           -3.323106176599    -0.065526296335     1.039746354671     1.007825032230

  Basis Set: AUG-CC-PVTZ
    Blend: AUG-CC-PVTZ
  Basis Set: (AUG-CC-PVTZ AUX)
    Blend: AUG-CC-PVTZ-JKFIT
	 Reference Energy          =    -344.7076531997869324 [Eh]
	 Singles Energy            =      -0.0000000000000000 [Eh]
	 Same-Spin Energy          =      -0.3691519711097755 [Eh]
	 Opposite-Spin Energy      =      -1.1637091912640636 [Eh]
	 Correlation Energy        =      -1.5328611623738391 [Eh]
	 Total Energy              =    -346.2405143621607522 [Eh]

	 ================> DF-SCS-MP2 Energies <==================
	-----------------------------------------------------------
	 SCS Same-Spin Scale       =       0.3333333333333333 [-]
	 SCS Opposite-Spin Scale   =       1.2000000000000000 [-]
	 SCS Same-Spin Energy      =      -0.1230506570365918 [Eh]
	 SCS Opposite-Spin Energy  =      -1.3964510295168762 [Eh]
	 SCS Correlation Energy    =      -1.5195016865534681 [Eh]
	 SCS Total Energy          =    -346.2271548863403723 [Eh]
	-----------------------------------------------------------

  Dipole Moment: [D]
     X:    -0.5226      Y:     1.2516      Z:     0.0367     Total:     1.3568

*** Psi4 exiting successfully. Buy a developer a beer!
