                               Psi4 1.4a3.dev225

  ==> Input File <==

--------------------------------------------------------------------------
#psi4
#
memory 32 gb

molecule  {
0 1
  C       -2.8858990     0.0139170     0.0160750
  C        1.4367690    -0.0149750     0.0043080
  C        0.7466060     1.1986420    -0.0030770
  C        0.7284530    -1.2193540    -0.0027000
  C       -0.6498220     1.2004800    -0.0089530
  C       -0.6636960    -1.1986710    -0.0090440
  C       -1.3793230     0.0073340    -0.0165520
  O        2.8101740    -0.0968660     0.0091650
  H        1.2936780     2.1410060    -0.0034030
  H        3.1880637     0.8540724     0.0122497
  H        1.2824160    -2.1540570    -0.0024590
  H       -1.1767200     2.1533030    -0.0175850
  H       -1.2060630    -2.1429390    -0.0178450
  H       -3.2957090    -0.8164640    -0.5664260
  H       -3.2836900     0.9448070    -0.3980300
  H       -3.2634270    -0.0825680     1.0399950
units angstrom
no_reorient  #important for SAPT in psi4, default
symmetry c1  #important for SAPT in psi4, default
}

set PROPERTIES_ORIGIN ["COM"]
properties('MP2/aug-cc-pvtz', properties = ['dipole'])
--------------------------------------------------------------------------

    Molecular point group: c1
  Charge       = 0
  Multiplicity = 1
  Basis Set: AUG-CC-PVTZ
    Blend: AUG-CC-PVTZ
  Basis Set: (AUG-CC-PVTZ AUX)
    Blend: AUG-CC-PVTZ-JKFIT

    Orbital Energies [Eh]
    ---------------------

    Doubly Occupied:

       1A    -20.593428     2A    -11.299486     3A    -11.238528
       4A    -11.236920     5A    -11.234804     6A    -11.234608
       7A    -11.228912     8A    -11.223143     9A     -1.388075
      10A     -1.148309    11A     -1.035321    12A     -1.016608
      13A     -0.924712    14A     -0.842493    15A     -0.798292
      16A     -0.720186    17A     -0.668746    18A     -0.642066
      19A     -0.602513    20A     -0.587219    21A     -0.586714
      22A     -0.572617    23A     -0.569781    24A     -0.530160
      25A     -0.503454    26A     -0.486763    27A     -0.469459
      28A     -0.340846    29A     -0.304953

  @DF-RHF Final Energy:  -344.71366620886181

   => Energetics <=

    Nuclear Repulsion Energy =            341.4716041279174306
    One-Electron Energy =               -1144.3123103860707488
    Two-Electron Energy =                 458.1270400492915087
    Total Energy =                       -344.7136662088618095
  Basis Set: (AUG-CC-PVTZ AUX)
    Blend: AUG-CC-PVTZ-RI
    Molecular point group: c1

    Geometry (in Angstrom), charge = 0, multiplicity = 1:

       Center              X                  Y                   Z               Mass
    ------------   -----------------  -----------------  -----------------  -----------------
         C           -2.945437078761     0.021289987352     0.016499422766    12.000000000000
         C            1.377230921239    -0.007602012648     0.004732422766    12.000000000000
         C            0.687067921239     1.206014987352    -0.002652577234    12.000000000000
         C            0.668914921239    -1.211981012648    -0.002275577234    12.000000000000
         C           -0.709360078761     1.207852987352    -0.008528577234    12.000000000000
         C           -0.723234078761    -1.191298012648    -0.008619577234    12.000000000000
         C           -1.438861078761     0.014706987352    -0.016127577234    12.000000000000
         O            2.750635921239    -0.089493012648     0.009589422766    15.994914619570
         H            1.234139921239     2.148378987352    -0.002978577234     1.007825032230
         H            3.128525621239     0.861445387352     0.012674122766     1.007825032230
         H            1.222877921239    -2.146684012648    -0.002034577234     1.007825032230
         H           -1.236258078761     2.160675987352    -0.017160577234     1.007825032230
         H           -1.265601078761    -2.135566012648    -0.017420577234     1.007825032230
         H           -3.355247078761    -0.809091012648    -0.566001577234     1.007825032230
         H           -3.343228078761     0.952179987352    -0.397605577234     1.007825032230
         H           -3.322965078761    -0.075195012648     1.040419422766     1.007825032230

  Basis Set: AUG-CC-PVTZ
    Blend: AUG-CC-PVTZ
  Basis Set: (AUG-CC-PVTZ AUX)
    Blend: AUG-CC-PVTZ-JKFIT
	 Reference Energy          =    -344.7136662088618095 [Eh]
	 Singles Energy            =      -0.0000000000000000 [Eh]
	 Same-Spin Energy          =      -0.3701705667063330 [Eh]
	 Opposite-Spin Energy      =      -1.1653451301636726 [Eh]
	 Correlation Energy        =      -1.5355156968700054 [Eh]
	 Total Energy              =    -346.2491819057318025 [Eh]

	 ================> DF-SCS-MP2 Energies <==================
	-----------------------------------------------------------
	 SCS Same-Spin Scale       =       0.3333333333333333 [-]
	 SCS Opposite-Spin Scale   =       1.2000000000000000 [-]
	 SCS Same-Spin Energy      =      -0.1233901889021110 [Eh]
	 SCS Opposite-Spin Energy  =      -1.3984141561964070 [Eh]
	 SCS Correlation Energy    =      -1.5218043450985179 [Eh]
	 SCS Total Energy          =    -346.2354705539603401 [Eh]
	-----------------------------------------------------------

  Dipole Moment: [D]
     X:    -0.4338      Y:     1.3036      Z:     0.0360     Total:     1.3744

*** Psi4 exiting successfully. Buy a developer a beer!
