                               Psi4 1.4a3.dev225

  ==> Input File <==

--------------------------------------------------------------------------
#psi4
#
memory 32 gb

molecule  {
0 1
  C       -2.8858990     0.0139170     0.0160750
  C        1.4367690    -0.0149750     0.0043080
  C        0.7466060     1.1986420    -0.0030770
  C        0.7284530    -1.2193540    -0.0027000
  C       -0.6498220     1.2004800    -0.0089530
  C       -0.6636960    -1.1986710    -0.0090440
  C       -1.3793230     0.0073340    -0.0165520
  O        2.7902096    -0.0956756     0.0090944
  H        1.2936780     2.1410060    -0.0034030
  H        3.1695990     0.8076070     0.0120990
  H        1.2824160    -2.1540570    -0.0024590
  H       -1.1767200     2.1533030    -0.0175850
  H       -1.2060630    -2.1429390    -0.0178450
  H       -3.2957090    -0.8164640    -0.5664260
  H       -3.2836900     0.9448070    -0.3980300
  H       -3.2634270    -0.0825680     1.0399950
units angstrom
no_reorient  #important for SAPT in psi4, default
symmetry c1  #important for SAPT in psi4, default
}

set PROPERTIES_ORIGIN ["COM"]
properties('MP2/aug-cc-pvtz', properties = ['dipole'])
--------------------------------------------------------------------------

    Molecular point group: c1
  Charge       = 0
  Multiplicity = 1
  Basis Set: AUG-CC-PVTZ
    Blend: AUG-CC-PVTZ
  Basis Set: (AUG-CC-PVTZ AUX)
    Blend: AUG-CC-PVTZ-JKFIT

    Orbital Energies [Eh]
    ---------------------

    Doubly Occupied:

       1A    -20.590999     2A    -11.298736     3A    -11.237961
       4A    -11.236321     5A    -11.233552     6A    -11.233310
       7A    -11.227522     8A    -11.222477     9A     -1.405256
      10A     -1.147862    11A     -1.035419    12A     -1.016076
      13A     -0.925618    14A     -0.844352    15A     -0.801424
      16A     -0.730414    17A     -0.670538    18A     -0.642545
      19A     -0.604044    20A     -0.592611    21A     -0.585964
      22A     -0.575073    23A     -0.570345    24A     -0.529879
      25A     -0.503215    26A     -0.485973    27A     -0.468953
      28A     -0.340307    29A     -0.303253

  @DF-RHF Final Energy:  -344.71897903671373

   => Energetics <=

    Nuclear Repulsion Energy =            342.2942209609240649
    One-Electron Energy =               -1145.9064003470468833
    Two-Electron Energy =                 458.8932003494090281
    Total Energy =                       -344.7189790367137334
  Basis Set: (AUG-CC-PVTZ AUX)
    Blend: AUG-CC-PVTZ-RI
    Molecular point group: c1

    Geometry (in Angstrom), charge = 0, multiplicity = 1:

       Center              X                  Y                   Z               Mass
    ------------   -----------------  -----------------  -----------------  -----------------
         C           -2.942309688124     0.021547152686     0.016511278676    12.000000000000
         C            1.380358311876    -0.007344847314     0.004744278676    12.000000000000
         C            0.690195311876     1.206272152686    -0.002640721324    12.000000000000
         C            0.672042311876    -1.211723847314    -0.002263721324    12.000000000000
         C           -0.706232688124     1.208110152686    -0.008516721324    12.000000000000
         C           -0.720106688124    -1.191040847314    -0.008607721324    12.000000000000
         C           -1.435733688124     0.014964152686    -0.016115721324    12.000000000000
         O            2.733798911876    -0.088045447314     0.009530678676    15.994914619570
         H            1.237267311876     2.148636152686    -0.002966721324     1.007825032230
         H            3.113188311876     0.815237152686     0.012535278676     1.007825032230
         H            1.226005311876    -2.146426847314    -0.002022721324     1.007825032230
         H           -1.233130688124     2.160933152686    -0.017148721324     1.007825032230
         H           -1.262473688124    -2.135308847314    -0.017408721324     1.007825032230
         H           -3.352119688124    -0.808833847314    -0.565989721324     1.007825032230
         H           -3.340100688124     0.952437152686    -0.397593721324     1.007825032230
         H           -3.319837688124    -0.074937847314     1.040431278676     1.007825032230

  Basis Set: AUG-CC-PVTZ
    Blend: AUG-CC-PVTZ
  Basis Set: (AUG-CC-PVTZ AUX)
    Blend: AUG-CC-PVTZ-JKFIT
	 Reference Energy          =    -344.7189790367137334 [Eh]
	 Singles Energy            =      -0.0000000000000000 [Eh]
	 Same-Spin Energy          =      -0.3695835760652953 [Eh]
	 Opposite-Spin Energy      =      -1.1634505852322983 [Eh]
	 Correlation Energy        =      -1.5330341612975937 [Eh]
	 Total Energy              =    -346.2520131980113547 [Eh]

	 ================> DF-SCS-MP2 Energies <==================
	-----------------------------------------------------------
	 SCS Same-Spin Scale       =       0.3333333333333333 [-]
	 SCS Opposite-Spin Scale   =       1.2000000000000000 [-]
	 SCS Same-Spin Energy      =      -0.1231945253550984 [Eh]
	 SCS Opposite-Spin Energy  =      -1.3961407022787580 [Eh]
	 SCS Correlation Energy    =      -1.5193352276338563 [Eh]
	 SCS Total Energy          =    -346.2383142643475935 [Eh]
	-----------------------------------------------------------

  Dipole Moment: [D]
     X:    -0.3172      Y:     1.2695      Z:     0.0363     Total:     1.3090

*** Psi4 exiting successfully. Buy a developer a beer!
