                               Psi4 1.4a3.dev225

  ==> Input File <==

--------------------------------------------------------------------------
#psi4
#
memory 32 gb

molecule  {
0 1
  C       -2.8858990     0.0139170     0.0160750
  C        1.4367690    -0.0149750     0.0043080
  C        0.7466060     1.1986420    -0.0030770
  C        0.7284530    -1.2193540    -0.0027000
  C       -0.6498220     1.2004800    -0.0089530
  C       -0.6636960    -1.1986710    -0.0090440
  C       -1.4293108     0.0075524    -0.0154694
  O        2.8101740    -0.0968660     0.0091650
  H        1.2936780     2.1410060    -0.0034030
  H        3.1695990     0.8076070     0.0120990
  H        1.2824160    -2.1540570    -0.0024590
  H       -1.1767200     2.1533030    -0.0175850
  H       -1.2060630    -2.1429390    -0.0178450
  H       -3.2957090    -0.8164640    -0.5664260
  H       -3.2836900     0.9448070    -0.3980300
  H       -3.2634270    -0.0825680     1.0399950
units angstrom
no_reorient  #important for SAPT in psi4, default
symmetry c1  #important for SAPT in psi4, default
}

set PROPERTIES_ORIGIN ["COM"]
properties('MP2/aug-cc-pvtz', properties = ['dipole'])
--------------------------------------------------------------------------

    Molecular point group: c1
  Charge       = 0
  Multiplicity = 1
  Basis Set: AUG-CC-PVTZ
    Blend: AUG-CC-PVTZ
  Basis Set: (AUG-CC-PVTZ AUX)
    Blend: AUG-CC-PVTZ-JKFIT

    Orbital Energies [Eh]
    ---------------------

    Doubly Occupied:

       1A    -20.589983     2A    -11.300447     3A    -11.241448
       4A    -11.239744     5A    -11.238345     6A    -11.235162
       7A    -11.229109     8A    -11.222180     9A     -1.398196
      10A     -1.145093    11A     -1.043725    12A     -1.014638
      13A     -0.928018    14A     -0.840940    15A     -0.799138
      16A     -0.726262    17A     -0.669847    18A     -0.645865
      19A     -0.603587    20A     -0.589109    21A     -0.583665
      22A     -0.576468    23A     -0.574257    24A     -0.532163
      25A     -0.517114    26A     -0.478592    27A     -0.466028
      28A     -0.340321    29A     -0.301480

  @DF-RHF Final Energy:  -344.71433136191541

   => Energetics <=

    Nuclear Repulsion Energy =            341.2762247407951577
    One-Electron Energy =               -1143.8392566823526977
    Two-Electron Energy =                 457.8487005796420704
    Total Energy =                       -344.7143313619154128
  Basis Set: (AUG-CC-PVTZ AUX)
    Blend: AUG-CC-PVTZ-RI
    Molecular point group: c1

    Geometry (in Angstrom), charge = 0, multiplicity = 1:

       Center              X                  Y                   Z               Mass
    ------------   -----------------  -----------------  -----------------  -----------------
         C           -2.939713619475     0.021699104601     0.016380603443    12.000000000000
         C            1.382954380525    -0.007192895399     0.004613603443    12.000000000000
         C            0.692791380525     1.206424104601    -0.002771396557    12.000000000000
         C            0.674638380525    -1.211571895399    -0.002394396557    12.000000000000
         C           -0.703636619475     1.208262104601    -0.008647396557    12.000000000000
         C           -0.717510619475    -1.190888895399    -0.008738396557    12.000000000000
         C           -1.483125419475     0.015334504601    -0.015163796557    12.000000000000
         O            2.756359380525    -0.089083895399     0.009470603443    15.994914619570
         H            1.239863380525     2.148788104601    -0.003097396557     1.007825032230
         H            3.115784380525     0.815389104601     0.012404603443     1.007825032230
         H            1.228601380525    -2.146274895399    -0.002153396557     1.007825032230
         H           -1.230534619475     2.161085104601    -0.017279396557     1.007825032230
         H           -1.259877619475    -2.135156895399    -0.017539396557     1.007825032230
         H           -3.349523619475    -0.808681895399    -0.566120396557     1.007825032230
         H           -3.337504619475     0.952589104601    -0.397724396557     1.007825032230
         H           -3.317241619475    -0.074785895399     1.040300603443     1.007825032230

  Basis Set: AUG-CC-PVTZ
    Blend: AUG-CC-PVTZ
  Basis Set: (AUG-CC-PVTZ AUX)
    Blend: AUG-CC-PVTZ-JKFIT
	 Reference Energy          =    -344.7143313619154128 [Eh]
	 Singles Energy            =      -0.0000000000000000 [Eh]
	 Same-Spin Energy          =      -0.3700808468280125 [Eh]
	 Opposite-Spin Energy      =      -1.1646035745772370 [Eh]
	 Correlation Energy        =      -1.5346844214052493 [Eh]
	 Total Energy              =    -346.2490157833206581 [Eh]

	 ================> DF-SCS-MP2 Energies <==================
	-----------------------------------------------------------
	 SCS Same-Spin Scale       =       0.3333333333333333 [-]
	 SCS Opposite-Spin Scale   =       1.2000000000000000 [-]
	 SCS Same-Spin Energy      =      -0.1233602822760042 [Eh]
	 SCS Opposite-Spin Energy  =      -1.3975242894926843 [Eh]
	 SCS Correlation Energy    =      -1.5208845717686883 [Eh]
	 SCS Total Energy          =    -346.2352159336841169 [Eh]
	-----------------------------------------------------------

  Dipole Moment: [D]
     X:    -0.5319      Y:     1.2666      Z:     0.0404     Total:     1.3743

*** Psi4 exiting successfully. Buy a developer a beer!
