                               Psi4 1.4a3.dev225

  ==> Input File <==

--------------------------------------------------------------------------
#psi4
#
memory 32 gb

molecule  {
0 1
  C       -2.8858990     0.0139170     0.0160750
  C        1.4367690    -0.0149750     0.0043080
  C        0.7466060     1.1986420    -0.0030770
  C        0.7284530    -1.2193540    -0.0027000
  C       -0.6498220     1.2004800    -0.0089530
  C       -0.6636960    -1.1986710    -0.0090440
  C       -1.3793230     0.0073340    -0.0165520
  O        2.8101740    -0.0968660     0.0091650
  H        1.2936780     2.1410060    -0.0034030
  H        3.1622131     0.7890208     0.0120387
  H        1.2824160    -2.1540570    -0.0024590
  H       -1.1767200     2.1533030    -0.0175850
  H       -1.2060630    -2.1429390    -0.0178450
  H       -3.2957090    -0.8164640    -0.5664260
  H       -3.2836900     0.9448070    -0.3980300
  H       -3.2634270    -0.0825680     1.0399950
units angstrom
no_reorient  #important for SAPT in psi4, default
symmetry c1  #important for SAPT in psi4, default
}

set PROPERTIES_ORIGIN ["COM"]
properties('MP2/aug-cc-pvtz', properties = ['dipole'])
--------------------------------------------------------------------------

    Molecular point group: c1
  Charge       = 0
  Multiplicity = 1
  Basis Set: AUG-CC-PVTZ
    Blend: AUG-CC-PVTZ
  Basis Set: (AUG-CC-PVTZ AUX)
    Blend: AUG-CC-PVTZ-JKFIT

    Orbital Energies [Eh]
    ---------------------

    Doubly Occupied:

       1A    -20.587848     2A    -11.300023     3A    -11.238879
       4A    -11.237174     5A    -11.235342     6A    -11.235108
       7A    -11.229262     8A    -11.223428     9A     -1.402234
      10A     -1.149455    11A     -1.037194    12A     -1.017042
      13A     -0.926966    14A     -0.844433    15A     -0.801742
      16A     -0.730303    17A     -0.670364    18A     -0.642663
      19A     -0.605756    20A     -0.588950    21A     -0.587027
      22A     -0.575436    23A     -0.570553    24A     -0.531721
      25A     -0.503914    26A     -0.487466    27A     -0.470315
      28A     -0.341145    29A     -0.305745

  @DF-RHF Final Energy:  -344.71981711358785

   => Energetics <=

    Nuclear Repulsion Energy =            341.8720058339426373
    One-Electron Energy =               -1145.0286683821775569
    Two-Electron Energy =                 458.4368454346470116
    Total Energy =                       -344.7198171135878511
  Basis Set: (AUG-CC-PVTZ AUX)
    Blend: AUG-CC-PVTZ-RI
    Molecular point group: c1

    Geometry (in Angstrom), charge = 0, multiplicity = 1:

       Center              X                  Y                   Z               Mass
    ------------   -----------------  -----------------  -----------------  -----------------
         C           -2.945195976772     0.021896707125     0.016501390709    12.000000000000
         C            1.377472023228    -0.006995292875     0.004734390709    12.000000000000
         C            0.687309023228     1.206621707125    -0.002650609291    12.000000000000
         C            0.669156023228    -1.211374292875    -0.002273609291    12.000000000000
         C           -0.709118976772     1.208459707125    -0.008526609291    12.000000000000
         C           -0.722992976772    -1.190691292875    -0.008617609291    12.000000000000
         C           -1.438619976772     0.015313707125    -0.016125609291    12.000000000000
         O            2.750877023228    -0.088886292875     0.009591390709    15.994914619570
         H            1.234381023228     2.148985707125    -0.002976609291     1.007825032230
         H            3.102916123228     0.797000507125     0.012465090709     1.007825032230
         H            1.223119023228    -2.146077292875    -0.002032609291     1.007825032230
         H           -1.236016976772     2.161282707125    -0.017158609291     1.007825032230
         H           -1.265359976772    -2.134959292875    -0.017418609291     1.007825032230
         H           -3.355005976772    -0.808484292875    -0.565999609291     1.007825032230
         H           -3.342986976772     0.952786707125    -0.397603609291     1.007825032230
         H           -3.322723976772    -0.074588292875     1.040421390709     1.007825032230

  Basis Set: AUG-CC-PVTZ
    Blend: AUG-CC-PVTZ
  Basis Set: (AUG-CC-PVTZ AUX)
    Blend: AUG-CC-PVTZ-JKFIT
	 Reference Energy          =    -344.7198171135878511 [Eh]
	 Singles Energy            =      -0.0000000000000000 [Eh]
	 Same-Spin Energy          =      -0.3692899672882403 [Eh]
	 Opposite-Spin Energy      =      -1.1631036347604333 [Eh]
	 Correlation Energy        =      -1.5323936020486735 [Eh]
	 Total Energy              =    -346.2522107156365223 [Eh]

	 ================> DF-SCS-MP2 Energies <==================
	-----------------------------------------------------------
	 SCS Same-Spin Scale       =       0.3333333333333333 [-]
	 SCS Opposite-Spin Scale   =       1.2000000000000000 [-]
	 SCS Same-Spin Energy      =      -0.1230966557627468 [Eh]
	 SCS Opposite-Spin Energy  =      -1.3957243617125199 [Eh]
	 SCS Correlation Energy    =      -1.5188210174752665 [Eh]
	 SCS Total Energy          =    -346.2386381310631123 [Eh]
	-----------------------------------------------------------

  Dipole Moment: [D]
     X:    -0.4892      Y:     1.2519      Z:     0.0358     Total:     1.3445

*** Psi4 exiting successfully. Buy a developer a beer!
