                               Psi4 1.4a3.dev225

  ==> Input File <==

--------------------------------------------------------------------------
#psi4
#
memory 32 gb

molecule  {
0 1
  C       -2.8858990     0.0139170     0.0160750
  C        1.4367690    -0.0149750     0.0043080
  C        0.7466060     1.1986420    -0.0030770
  C        0.7284530    -1.2193540    -0.0027000
  C       -0.6498220     1.2004800    -0.0089530
  C       -0.6636960    -1.1986710    -0.0090440
  C       -1.3593279     0.0072466    -0.0169850
  O        2.8101740    -0.0968660     0.0091650
  H        1.2936780     2.1410060    -0.0034030
  H        3.1695990     0.8076070     0.0120990
  H        1.2824160    -2.1540570    -0.0024590
  H       -1.1767200     2.1533030    -0.0175850
  H       -1.2060630    -2.1429390    -0.0178450
  H       -3.2957090    -0.8164640    -0.5664260
  H       -3.2836900     0.9448070    -0.3980300
  H       -3.2634270    -0.0825680     1.0399950
units angstrom
no_reorient  #important for SAPT in psi4, default
symmetry c1  #important for SAPT in psi4, default
}

set PROPERTIES_ORIGIN ["COM"]
properties('MP2/aug-cc-pvtz', properties = ['dipole'])
--------------------------------------------------------------------------

    Molecular point group: c1
  Charge       = 0
  Multiplicity = 1
  Basis Set: AUG-CC-PVTZ
    Blend: AUG-CC-PVTZ
  Basis Set: (AUG-CC-PVTZ AUX)
    Blend: AUG-CC-PVTZ-JKFIT

    Orbital Energies [Eh]
    ---------------------

    Doubly Occupied:

       1A    -20.589357     2A    -11.299613     3A    -11.237773
       4A    -11.236098     5A    -11.235107     6A    -11.233771
       7A    -11.229194     8A    -11.223703     9A     -1.397704
      10A     -1.150920    11A     -1.034207    12A     -1.017933
      13A     -0.925382    14A     -0.845010    15A     -0.801196
      16A     -0.727882    17A     -0.670064    18A     -0.641293
      19A     -0.605476    20A     -0.588448    21A     -0.588283
      22A     -0.574042    23A     -0.568746    24A     -0.531082
      25A     -0.497997    26A     -0.490144    27A     -0.471745
      28A     -0.341387    29A     -0.306997

  @DF-RHF Final Energy:  -344.71887760192516

   => Energetics <=

    Nuclear Repulsion Energy =            341.9545092910544213
    One-Electron Energy =               -1145.2256669239852727
    Two-Electron Energy =                 458.5522800310057505
    Total Energy =                       -344.7188776019251577
  Basis Set: (AUG-CC-PVTZ AUX)
    Blend: AUG-CC-PVTZ-RI
    Molecular point group: c1

    Geometry (in Angstrom), charge = 0, multiplicity = 1:

       Center              X                  Y                   Z               Mass
    ------------   -----------------  -----------------  -----------------  -----------------
         C           -2.947485358451     0.021733064294     0.016548913810    12.000000000000
         C            1.375182641549    -0.007158935706     0.004781913810    12.000000000000
         C            0.685019641549     1.206458064294    -0.002603086190    12.000000000000
         C            0.666866641549    -1.211537935706    -0.002226086190    12.000000000000
         C           -0.711408358451     1.208296064294    -0.008479086190    12.000000000000
         C           -0.725282358451    -1.190854935706    -0.008570086190    12.000000000000
         C           -1.420914258451     0.015062664294    -0.016511086190    12.000000000000
         O            2.748587641549    -0.089049935706     0.009638913810    15.994914619570
         H            1.232091641549     2.148822064294    -0.002929086190     1.007825032230
         H            3.108012641549     0.815423064294     0.012572913810     1.007825032230
         H            1.220829641549    -2.146240935706    -0.001985086190     1.007825032230
         H           -1.238306358451     2.161119064294    -0.017111086190     1.007825032230
         H           -1.267649358451    -2.135122935706    -0.017371086190     1.007825032230
         H           -3.357295358451    -0.808647935706    -0.565952086190     1.007825032230
         H           -3.345276358451     0.952623064294    -0.397556086190     1.007825032230
         H           -3.325013358451    -0.074751935706     1.040468913810     1.007825032230

  Basis Set: AUG-CC-PVTZ
    Blend: AUG-CC-PVTZ
  Basis Set: (AUG-CC-PVTZ AUX)
    Blend: AUG-CC-PVTZ-JKFIT
	 Reference Energy          =    -344.7188776019251577 [Eh]
	 Singles Energy            =      -0.0000000000000000 [Eh]
	 Same-Spin Energy          =      -0.3694034045737677 [Eh]
	 Opposite-Spin Energy      =      -1.1635096890054313 [Eh]
	 Correlation Energy        =      -1.5329130935791990 [Eh]
	 Total Energy              =    -346.2517906955043827 [Eh]

	 ================> DF-SCS-MP2 Energies <==================
	-----------------------------------------------------------
	 SCS Same-Spin Scale       =       0.3333333333333333 [-]
	 SCS Opposite-Spin Scale   =       1.2000000000000000 [-]
	 SCS Same-Spin Energy      =      -0.1231344681912559 [Eh]
	 SCS Opposite-Spin Energy  =      -1.3962116268065174 [Eh]
	 SCS Correlation Energy    =      -1.5193460949977733 [Eh]
	 SCS Total Energy          =    -346.2382236969229439 [Eh]
	-----------------------------------------------------------

  Dipole Moment: [D]
     X:    -0.4497      Y:     1.2667      Z:     0.0342     Total:     1.3446

*** Psi4 exiting successfully. Buy a developer a beer!
