                               Psi4 1.4a3.dev225

  ==> Input File <==

--------------------------------------------------------------------------
#psi4
#
memory 32 gb

molecule  {
0 1
  C       -2.8858990     0.0139170     0.0160750
  C        1.4367690    -0.0149750     0.0043080
  C        0.7466060     1.1986420    -0.0030770
  C        0.7284530    -1.2193540    -0.0027000
  C       -0.6498220     1.2004800    -0.0089530
  C       -0.6636960    -1.1986710    -0.0090440
  C       -1.3293352     0.0071156    -0.0176346
  O        2.8101740    -0.0968660     0.0091650
  H        1.2936780     2.1410060    -0.0034030
  H        3.1695990     0.8076070     0.0120990
  H        1.2824160    -2.1540570    -0.0024590
  H       -1.1767200     2.1533030    -0.0175850
  H       -1.2060630    -2.1429390    -0.0178450
  H       -3.2957090    -0.8164640    -0.5664260
  H       -3.2836900     0.9448070    -0.3980300
  H       -3.2634270    -0.0825680     1.0399950
units angstrom
no_reorient  #important for SAPT in psi4, default
symmetry c1  #important for SAPT in psi4, default
}

set PROPERTIES_ORIGIN ["COM"]
properties('MP2/aug-cc-pvtz', properties = ['dipole'])
--------------------------------------------------------------------------

    Molecular point group: c1
  Charge       = 0
  Multiplicity = 1
  Basis Set: AUG-CC-PVTZ
    Blend: AUG-CC-PVTZ
  Basis Set: (AUG-CC-PVTZ AUX)
    Blend: AUG-CC-PVTZ-JKFIT

    Orbital Energies [Eh]
    ---------------------

    Doubly Occupied:

       1A    -20.589085     2A    -11.299229     3A    -11.236446
       4A    -11.235024     5A    -11.234652     6A    -11.232033
       7A    -11.229284     8A    -11.224109     9A     -1.397491
      10A     -1.153835    11A     -1.031003    12A     -1.019595
      13A     -0.923888    14A     -0.846808    15A     -0.801913
      16A     -0.728624    17A     -0.670399    18A     -0.639669
      19A     -0.606587    20A     -0.590849    21A     -0.588171
      22A     -0.573201    23A     -0.566412    24A     -0.530763
      25A     -0.495305    26A     -0.487551    27A     -0.474333
      28A     -0.341930    29A     -0.309107

  @DF-RHF Final Energy:  -344.71699788613148

   => Energetics <=

    Nuclear Repulsion Energy =            342.2670650329710611
    One-Electron Energy =               -1145.8535308563984927
    Two-Electron Energy =                 458.8694679372960081
    Total Energy =                       -344.7169978861314803
  Basis Set: (AUG-CC-PVTZ AUX)
    Blend: AUG-CC-PVTZ-RI
    Molecular point group: c1

    Geometry (in Angstrom), charge = 0, multiplicity = 1:

       Center              X                  Y                   Z               Mass
    ------------   -----------------  -----------------  -----------------  -----------------
         C           -2.950816106899     0.021747612102     0.016621053170    12.000000000000
         C            1.371851893101    -0.007144387898     0.004854053170    12.000000000000
         C            0.681688893101     1.206472612102    -0.002530946830    12.000000000000
         C            0.663535893101    -1.211523387898    -0.002153946830    12.000000000000
         C           -0.714739106899     1.208310612102    -0.008406946830    12.000000000000
         C           -0.728613106899    -1.190840387898    -0.008497946830    12.000000000000
         C           -1.394252306899     0.014946212102    -0.017088546830    12.000000000000
         O            2.745256893101    -0.089035387898     0.009711053170    15.994914619570
         H            1.228760893101     2.148836612102    -0.002856946830     1.007825032230
         H            3.104681893101     0.815437612102     0.012645053170     1.007825032230
         H            1.217498893101    -2.146226387898    -0.001912946830     1.007825032230
         H           -1.241637106899     2.161133612102    -0.017038946830     1.007825032230
         H           -1.270980106899    -2.135108387898    -0.017298946830     1.007825032230
         H           -3.360626106899    -0.808633387898    -0.565879946830     1.007825032230
         H           -3.348607106899     0.952637612102    -0.397483946830     1.007825032230
         H           -3.328344106899    -0.074737387898     1.040541053170     1.007825032230

  Basis Set: AUG-CC-PVTZ
    Blend: AUG-CC-PVTZ
  Basis Set: (AUG-CC-PVTZ AUX)
    Blend: AUG-CC-PVTZ-JKFIT
	 Reference Energy          =    -344.7169978861314803 [Eh]
	 Singles Energy            =      -0.0000000000000000 [Eh]
	 Same-Spin Energy          =      -0.3692723266852470 [Eh]
	 Opposite-Spin Energy      =      -1.1633163526820223 [Eh]
	 Correlation Energy        =      -1.5325886793672692 [Eh]
	 Total Energy              =    -346.2495865654987597 [Eh]

	 ================> DF-SCS-MP2 Energies <==================
	-----------------------------------------------------------
	 SCS Same-Spin Scale       =       0.3333333333333333 [-]
	 SCS Opposite-Spin Scale   =       1.2000000000000000 [-]
	 SCS Same-Spin Energy      =      -0.1230907755617490 [Eh]
	 SCS Opposite-Spin Energy  =      -1.3959796232184267 [Eh]
	 SCS Correlation Energy    =      -1.5190703987801757 [Eh]
	 SCS Total Energy          =    -346.2360682849116529 [Eh]
	-----------------------------------------------------------

  Dipole Moment: [D]
     X:    -0.4153      Y:     1.2664      Z:     0.0319     Total:     1.3332

*** Psi4 exiting successfully. Buy a developer a beer!
