                               Psi4 1.3.2 release

  ==> Input File <==

--------------------------------------------------------------------------
#psi4
#
memory 32 gb

molecule  {
0 1
  C       -2.8859240     0.0139080     0.0157160
  C        1.4355469    -0.0389510     0.0040857
  C        0.7466220     1.1986450    -0.0028730
  C        0.7284570    -1.2193500    -0.0024690
  C       -0.6498160     1.2004800    -0.0088600
  C       -0.6636910    -1.1986650    -0.0089510
  C       -1.3793250     0.0073430    -0.0161260
  O        2.8101880    -0.0968780     0.0088050
  H        1.2936820     2.1410080    -0.0035900
  H        3.1696110     0.8075920     0.0126850
  H        1.2824350    -2.1540410    -0.0024010
  H       -1.1767190     2.1533030    -0.0171340
  H       -1.2060620    -2.1429340    -0.0174000
  H       -3.2954860    -0.8156320    -0.5681670
  H       -3.2834940     0.9453750    -0.3973120
  H       -3.2640020    -0.0839940     1.0392920
units angstrom
no_reorient  #important for SAPT in psi4, default
symmetry c1  #important for SAPT in psi4, default
}

set PROPERTIES_ORIGIN ["COM"]
properties('MP2/aug-cc-pvtz', properties = ['dipole'])
--------------------------------------------------------------------------

    Molecular point group: c1
  Charge       = 0
  Multiplicity = 1
  Basis Set: AUG-CC-PVTZ
    Blend: AUG-CC-PVTZ
  Basis Set: (AUG-CC-PVTZ AUX)
    Blend: AUG-CC-PVTZ-JKFIT

    Orbital Energies [Eh]
    ---------------------

    Doubly Occupied:

       1A    -20.588589     2A    -11.299814     3A    -11.239095
       4A    -11.237343     5A    -11.237201     6A    -11.235022
       7A    -11.226583     8A    -11.223371     9A     -1.396806
      10A     -1.149310    11A     -1.037350    12A     -1.016642
      13A     -0.926552    14A     -0.843563    15A     -0.800302
      16A     -0.728536    17A     -0.668537    18A     -0.643652
      19A     -0.607118    20A     -0.588089    21A     -0.587130
      22A     -0.572704    23A     -0.570113    24A     -0.531005
      25A     -0.504080    26A     -0.486362    27A     -0.470012
      28A     -0.341237    29A     -0.305520

  @DF-RHF Final Energy:  -344.71832551366202

   => Energetics <=

    Nuclear Repulsion Energy =            341.7681708640056968
    One-Electron Energy =               -1144.8497139900721322
    Two-Electron Energy =                 458.3632176124044122
    Total Energy =                       -344.7183255136620232
  Basis Set: (AUG-CC-PVTZ AUX)
    Blend: AUG-CC-PVTZ-RI
    Molecular point group: c1

    Geometry (in Angstrom), charge = 0, multiplicity = 1:

       Center              X                  Y                   Z               Mass
    ------------   -----------------  -----------------  -----------------  -----------------
         C           -2.945155553210     0.024377440879     0.016146878284    12.000000000000
         C            1.376315346790    -0.028481559121     0.004516578284    12.000000000000
         C            0.687390446790     1.209114440879    -0.002442121716    12.000000000000
         C            0.669225446790    -1.208880559121    -0.002038121716    12.000000000000
         C           -0.709047553210     1.210949440879    -0.008429121716    12.000000000000
         C           -0.722922553210    -1.188195559121    -0.008520121716    12.000000000000
         C           -1.438556553210     0.017812440879    -0.015695121716    12.000000000000
         O            2.750956446790    -0.086408559121     0.009235878284    15.994914619570
         H            1.234450446790     2.151477440879    -0.003159121716     1.007825032230
         H            3.110379446790     0.818061440879     0.013115878284     1.007825032230
         H            1.223203446790    -2.143571559121    -0.001970121716     1.007825032230
         H           -1.235950553210     2.163772440879    -0.016703121716     1.007825032230
         H           -1.265293553210    -2.132464559121    -0.016969121716     1.007825032230
         H           -3.354717553210    -0.805162559121    -0.567736121716     1.007825032230
         H           -3.342725553210     0.955844440879    -0.396881121716     1.007825032230
         H           -3.323233553210    -0.073524559121     1.039722878284     1.007825032230

  Basis Set: AUG-CC-PVTZ
    Blend: AUG-CC-PVTZ
  Basis Set: (AUG-CC-PVTZ AUX)
    Blend: AUG-CC-PVTZ-JKFIT
	 Reference Energy          =    -344.7183255136620232 [Eh]
	 Singles Energy            =      -0.0000000000000000 [Eh]
	 Same-Spin Energy          =      -0.3695122825265516 [Eh]
	 Opposite-Spin Energy      =      -1.1636428888843175 [Eh]
	 Correlation Energy        =      -1.5331551714108691 [Eh]
	 Total Energy              =    -346.2514806850729201 [Eh]

	 ================> DF-SCS-MP2 Energies <==================
	-----------------------------------------------------------
	 SCS Same-Spin Scale       =       0.3333333333333333 [-]
	 SCS Opposite-Spin Scale   =       1.2000000000000000 [-]
	 SCS Same-Spin Energy      =      -0.1231707608421839 [Eh]
	 SCS Opposite-Spin Energy  =      -1.3963714666611811 [Eh]
	 SCS Correlation Energy    =      -1.5195422275033650 [Eh]
	 SCS Total Energy          =    -346.2378677411653598 [Eh]
	-----------------------------------------------------------

  Dipole Moment: [D]
     X:    -0.4851      Y:     1.2637      Z:     0.0368     Total:     1.3541

*** Psi4 exiting successfully. Buy a developer a beer!
