                               Psi4 1.4a3.dev225

  ==> Input File <==

--------------------------------------------------------------------------
#psi4
#
memory 32 gb

molecule  {
0 1
  C       -2.8858990     0.0139170     0.0160750
  C        1.4367690    -0.0149750     0.0043080
  C        0.7466060     1.1986420    -0.0030770
  C        0.7284530    -1.2193540    -0.0027000
  C       -0.6498220     1.2004800    -0.0089530
  C       -0.6636960    -1.1986710    -0.0090440
  C       -1.3793230     0.0073340    -0.0165520
  O        2.7602630    -0.0938900     0.0089885
  H        1.2936780     2.1410060    -0.0034030
  H        3.1695990     0.8076070     0.0120990
  H        1.2824160    -2.1540570    -0.0024590
  H       -1.1767200     2.1533030    -0.0175850
  H       -1.2060630    -2.1429390    -0.0178450
  H       -3.2957090    -0.8164640    -0.5664260
  H       -3.2836900     0.9448070    -0.3980300
  H       -3.2634270    -0.0825680     1.0399950
units angstrom
no_reorient  #important for SAPT in psi4, default
symmetry c1  #important for SAPT in psi4, default
}

set PROPERTIES_ORIGIN ["COM"]
properties('MP2/aug-cc-pvtz', properties = ['dipole'])
--------------------------------------------------------------------------

    Molecular point group: c1
  Charge       = 0
  Multiplicity = 1
  Basis Set: AUG-CC-PVTZ
    Blend: AUG-CC-PVTZ
  Basis Set: (AUG-CC-PVTZ AUX)
    Blend: AUG-CC-PVTZ-JKFIT

    Orbital Energies [Eh]
    ---------------------

    Doubly Occupied:

       1A    -20.593350     2A    -11.297076     3A    -11.236745
       4A    -11.235174     5A    -11.231106     6A    -11.230560
       7A    -11.224975     8A    -11.221122     9A     -1.417311
      10A     -1.145936    11A     -1.033547    12A     -1.014813
      13A     -0.924648    14A     -0.845404    15A     -0.802873
      16A     -0.734540    17A     -0.671888    18A     -0.642471
      19A     -0.602904    20A     -0.599966    21A     -0.584486
      22A     -0.575281    23A     -0.569777    24A     -0.527637
      25A     -0.502214    26A     -0.483897    27A     -0.467222
      28A     -0.339171    29A     -0.299738

  @DF-RHF Final Energy:  -344.71767021479144

   => Energetics <=

    Nuclear Repulsion Energy =            343.1248028937839649
    One-Electron Energy =               -1147.5732850638214586
    Two-Electron Energy =                 459.7308119552461108
    Total Energy =                       -344.7176702147914398
  Basis Set: (AUG-CC-PVTZ AUX)
    Blend: AUG-CC-PVTZ-RI
    Molecular point group: c1

    Geometry (in Angstrom), charge = 0, multiplicity = 1:

       Center              X                  Y                   Z               Mass
    ------------   -----------------  -----------------  -----------------  -----------------
         C           -2.937876925528     0.021282844187     0.016526954231    12.000000000000
         C            1.384791074472    -0.007609155813     0.004759954231    12.000000000000
         C            0.694628074472     1.206007844187    -0.002625045769    12.000000000000
         C            0.676475074472    -1.211988155813    -0.002248045769    12.000000000000
         C           -0.701799925528     1.207845844187    -0.008501045769    12.000000000000
         C           -0.715673925528    -1.191305155813    -0.008592045769    12.000000000000
         C           -1.431300925528     0.014699844187    -0.016100045769    12.000000000000
         O            2.708285074472    -0.086524155813     0.009440454231    15.994914619570
         H            1.241700074472     2.148371844187    -0.002951045769     1.007825032230
         H            3.117621074472     0.814972844187     0.012550954231     1.007825032230
         H            1.230438074472    -2.146691155813    -0.002007045769     1.007825032230
         H           -1.228697925528     2.160668844187    -0.017133045769     1.007825032230
         H           -1.258040925528    -2.135573155813    -0.017393045769     1.007825032230
         H           -3.347686925528    -0.809098155813    -0.565974045769     1.007825032230
         H           -3.335667925528     0.952172844187    -0.397578045769     1.007825032230
         H           -3.315404925528    -0.075202155813     1.040446954231     1.007825032230

  Basis Set: AUG-CC-PVTZ
    Blend: AUG-CC-PVTZ
  Basis Set: (AUG-CC-PVTZ AUX)
    Blend: AUG-CC-PVTZ-JKFIT
	 Reference Energy          =    -344.7176702147914398 [Eh]
	 Singles Energy            =      -0.0000000000000000 [Eh]
	 Same-Spin Energy          =      -0.3696720580663437 [Eh]
	 Opposite-Spin Energy      =      -1.1630976527567258 [Eh]
	 Correlation Energy        =      -1.5327697108230696 [Eh]
	 Total Energy              =    -346.2504399256145007 [Eh]

	 ================> DF-SCS-MP2 Energies <==================
	-----------------------------------------------------------
	 SCS Same-Spin Scale       =       0.3333333333333333 [-]
	 SCS Opposite-Spin Scale   =       1.2000000000000000 [-]
	 SCS Same-Spin Energy      =      -0.1232240193554479 [Eh]
	 SCS Opposite-Spin Energy  =      -1.3957171833080710 [Eh]
	 SCS Correlation Energy    =      -1.5189412026635190 [Eh]
	 SCS Total Energy          =    -346.2366114174549807 [Eh]
	-----------------------------------------------------------

  Dipole Moment: [D]
     X:    -0.0764      Y:     1.2730      Z:     0.0371     Total:     1.2759

*** Psi4 exiting successfully. Buy a developer a beer!
