                               Psi4 1.3.2 release

  ==> Input File <==

--------------------------------------------------------------------------
#psi4
#
memory 32 gb

molecule  {
0 1
  C       -2.8859240     0.0139080     0.0157160
  C        1.4367670    -0.0149690     0.0041590
  C        0.7679066     1.2105055    -0.0026680
  C        0.7284570    -1.2193500    -0.0024690
  C       -0.6498160     1.2004800    -0.0088600
  C       -0.6636910    -1.1986650    -0.0089510
  C       -1.3793250     0.0073430    -0.0161260
  O        2.8101880    -0.0968780     0.0088050
  H        1.2936820     2.1410080    -0.0035900
  H        3.1696110     0.8075920     0.0126850
  H        1.2824350    -2.1540410    -0.0024010
  H       -1.1767190     2.1533030    -0.0171340
  H       -1.2060620    -2.1429340    -0.0174000
  H       -3.2954860    -0.8156320    -0.5681670
  H       -3.2834940     0.9453750    -0.3973120
  H       -3.2640020    -0.0839940     1.0392920
units angstrom
no_reorient  #important for SAPT in psi4, default
symmetry c1  #important for SAPT in psi4, default
}

set PROPERTIES_ORIGIN ["COM"]
properties('MP2/aug-cc-pvtz', properties = ['dipole'])
--------------------------------------------------------------------------

    Molecular point group: c1
  Charge       = 0
  Multiplicity = 1
  Basis Set: AUG-CC-PVTZ
    Blend: AUG-CC-PVTZ
  Basis Set: (AUG-CC-PVTZ AUX)
    Blend: AUG-CC-PVTZ-JKFIT

    Orbital Energies [Eh]
    ---------------------

    Doubly Occupied:

       1A    -20.588373     2A    -11.300307     3A    -11.240986
       4A    -11.237949     5A    -11.235320     6A    -11.235001
       7A    -11.229571     8A    -11.223528     9A     -1.397377
      10A     -1.147160    11A     -1.036647    12A     -1.015277
      13A     -0.925900    14A     -0.845662    15A     -0.799997
      16A     -0.726935    17A     -0.667842    18A     -0.646191
      19A     -0.606167    20A     -0.587881    21A     -0.587633
      22A     -0.573439    23A     -0.570269    24A     -0.530712
      25A     -0.503093    26A     -0.489399    27A     -0.468439
      28A     -0.339062    29A     -0.306264

  @DF-RHF Final Energy:  -344.71802929319290

   => Energetics <=

    Nuclear Repulsion Energy =            341.4371535141087293
    One-Electron Energy =               -1144.1856048968695632
    Two-Electron Energy =                 458.0304220895678782
    Total Energy =                       -344.7180292931928989
  Basis Set: (AUG-CC-PVTZ AUX)
    Blend: AUG-CC-PVTZ-RI
    Molecular point group: c1

    Geometry (in Angstrom), charge = 0, multiplicity = 1:

       Center              X                  Y                   Z               Mass
    ------------   -----------------  -----------------  -----------------  -----------------
         C           -2.947654744500     0.020397060612     0.016115972520    12.000000000000
         C            1.375036255500    -0.008479939388     0.004558972520    12.000000000000
         C            0.706175855500     1.216994560612    -0.002268027480    12.000000000000
         C            0.666726255500    -1.212860939388    -0.002069027480    12.000000000000
         C           -0.711546744500     1.206969060612    -0.008460027480    12.000000000000
         C           -0.725421744500    -1.192175939388    -0.008551027480    12.000000000000
         C           -1.441055744500     0.013832060612    -0.015726027480    12.000000000000
         O            2.748457255500    -0.090388939388     0.009204972520    15.994914619570
         H            1.231951255500     2.147497060612    -0.003190027480     1.007825032230
         H            3.107880255500     0.814081060612     0.013084972520     1.007825032230
         H            1.220704255500    -2.147551939388    -0.002001027480     1.007825032230
         H           -1.238449744500     2.159792060612    -0.016734027480     1.007825032230
         H           -1.267792744500    -2.136444939388    -0.017000027480     1.007825032230
         H           -3.357216744500    -0.809142939388    -0.567767027480     1.007825032230
         H           -3.345224744500     0.951864060612    -0.396912027480     1.007825032230
         H           -3.325732744500    -0.077504939388     1.039691972520     1.007825032230

  Basis Set: AUG-CC-PVTZ
    Blend: AUG-CC-PVTZ
  Basis Set: (AUG-CC-PVTZ AUX)
    Blend: AUG-CC-PVTZ-JKFIT
	 Reference Energy          =    -344.7180292931928989 [Eh]
	 Singles Energy            =      -0.0000000000000000 [Eh]
	 Same-Spin Energy          =      -0.3694623496001026 [Eh]
	 Opposite-Spin Energy      =      -1.1638112113270873 [Eh]
	 Correlation Energy        =      -1.5332735609271899 [Eh]
	 Total Energy              =    -346.2513028541200697 [Eh]

	 ================> DF-SCS-MP2 Energies <==================
	-----------------------------------------------------------
	 SCS Same-Spin Scale       =       0.3333333333333333 [-]
	 SCS Opposite-Spin Scale   =       1.2000000000000000 [-]
	 SCS Same-Spin Energy      =      -0.1231541165333675 [Eh]
	 SCS Opposite-Spin Energy  =      -1.3965734535925047 [Eh]
	 SCS Correlation Energy    =      -1.5197275701258723 [Eh]
	 SCS Total Energy          =    -346.2377568633187934 [Eh]
	-----------------------------------------------------------

  Dipole Moment: [D]
     X:    -0.4846      Y:     1.2600      Z:     0.0365     Total:     1.3505

*** Psi4 exiting successfully. Buy a developer a beer!
