                               Psi4 1.3.2 release

  ==> Input File <==

--------------------------------------------------------------------------
#psi4
#
memory 32 gb

molecule  {
0 1
  C       -2.8859240     0.0139080     0.0157160
  C        1.4367670    -0.0149690     0.0041590
  C        0.6636496     1.1475441    -0.0036710
  C        0.7284570    -1.2193500    -0.0024690
  C       -0.6498160     1.2004800    -0.0088600
  C       -0.6636910    -1.1986650    -0.0089510
  C       -1.3793250     0.0073430    -0.0161260
  O        2.8101880    -0.0968780     0.0088050
  H        1.2936820     2.1410080    -0.0035900
  H        3.1696110     0.8075920     0.0126850
  H        1.2824350    -2.1540410    -0.0024010
  H       -1.1767190     2.1533030    -0.0171340
  H       -1.2060620    -2.1429340    -0.0174000
  H       -3.2954860    -0.8156320    -0.5681670
  H       -3.2834940     0.9453750    -0.3973120
  H       -3.2640020    -0.0839940     1.0392920
units angstrom
no_reorient  #important for SAPT in psi4, default
symmetry c1  #important for SAPT in psi4, default
}

set PROPERTIES_ORIGIN ["COM"]
properties('MP2/aug-cc-pvtz', properties = ['dipole'])
--------------------------------------------------------------------------

    Molecular point group: c1
  Charge       = 0
  Multiplicity = 1
  Basis Set: AUG-CC-PVTZ
    Blend: AUG-CC-PVTZ
  Basis Set: (AUG-CC-PVTZ AUX)
    Blend: AUG-CC-PVTZ-JKFIT

    Orbital Energies [Eh]
    ---------------------

    Doubly Occupied:

       1A    -20.594081     2A    -11.299042     3A    -11.236308
       4A    -11.235278     5A    -11.233534     6A    -11.228941
       7A    -11.227935     8A    -11.222878     9A     -1.399782
      10A     -1.158969    11A     -1.036720    12A     -1.024777
      13A     -0.928033    14A     -0.837336    15A     -0.804003
      16A     -0.730460    17A     -0.678307    18A     -0.632313
      19A     -0.602807    20A     -0.591161    21A     -0.581317
      22A     -0.577748    23A     -0.570577    24A     -0.533705
      25A     -0.506352    26A     -0.477974    27A     -0.472278
      28A     -0.349506    29A     -0.302984

  @DF-RHF Final Energy:  -344.70614745154387

   => Energetics <=

    Nuclear Repulsion Energy =            343.1104836323258951
    One-Electron Energy =               -1147.4830459054346647
    Two-Electron Energy =                 459.6664148215648993
    Total Energy =                       -344.7061474515438704
  Basis Set: (AUG-CC-PVTZ AUX)
    Blend: AUG-CC-PVTZ-RI
    Molecular point group: c1

    Geometry (in Angstrom), charge = 0, multiplicity = 1:

       Center              X                  Y                   Z               Mass
    ------------   -----------------  -----------------  -----------------  -----------------
         C           -2.936076799168     0.027389048174     0.016227357647    12.000000000000
         C            1.386614200832    -0.001487951826     0.004670357647    12.000000000000
         C            0.613496800832     1.161025148174    -0.003159642353    12.000000000000
         C            0.678304200832    -1.205868951826    -0.001957642353    12.000000000000
         C           -0.699968799168     1.213961048174    -0.008348642353    12.000000000000
         C           -0.713843799168    -1.185183951826    -0.008439642353    12.000000000000
         C           -1.429477799168     0.020824048174    -0.015614642353    12.000000000000
         O            2.760035200832    -0.083396951826     0.009316357647    15.994914619570
         H            1.243529200832     2.154489048174    -0.003078642353     1.007825032230
         H            3.119458200832     0.821073048174     0.013196357647     1.007825032230
         H            1.232282200832    -2.140559951826    -0.001889642353     1.007825032230
         H           -1.226871799168     2.166784048174    -0.016622642353     1.007825032230
         H           -1.256214799168    -2.129452951826    -0.016888642353     1.007825032230
         H           -3.345638799168    -0.802150951826    -0.567655642353     1.007825032230
         H           -3.333646799168     0.958856048174    -0.396800642353     1.007825032230
         H           -3.314154799168    -0.070512951826     1.039803357647     1.007825032230

  Basis Set: AUG-CC-PVTZ
    Blend: AUG-CC-PVTZ
  Basis Set: (AUG-CC-PVTZ AUX)
    Blend: AUG-CC-PVTZ-JKFIT
	 Reference Energy          =    -344.7061474515438704 [Eh]
	 Singles Energy            =      -0.0000000000000000 [Eh]
	 Same-Spin Energy          =      -0.3700579862502180 [Eh]
	 Opposite-Spin Energy      =      -1.1642721032137495 [Eh]
	 Correlation Energy        =      -1.5343300894639675 [Eh]
	 Total Energy              =    -346.2404775410078628 [Eh]

	 ================> DF-SCS-MP2 Energies <==================
	-----------------------------------------------------------
	 SCS Same-Spin Scale       =       0.3333333333333333 [-]
	 SCS Opposite-Spin Scale   =       1.2000000000000000 [-]
	 SCS Same-Spin Energy      =      -0.1233526620834060 [Eh]
	 SCS Opposite-Spin Energy  =      -1.3971265238564994 [Eh]
	 SCS Correlation Energy    =      -1.5204791859399054 [Eh]
	 SCS Total Energy          =    -346.2266266374837755 [Eh]
	-----------------------------------------------------------

  Dipole Moment: [D]
     X:    -0.4540      Y:     1.2614      Z:     0.0381     Total:     1.3412

*** Psi4 exiting successfully. Buy a developer a beer!
