                               Psi4 1.3.2 release

  ==> Input File <==

--------------------------------------------------------------------------
#psi4
#
memory 32 gb

molecule  {
0 1
  C       -2.8859240     0.0139080     0.0157160
  C        1.4367670    -0.0149690     0.0041590
  C        0.7466220     1.1986450    -0.0028730
  C        0.7284570    -1.2193500    -0.0024690
  C       -0.6498160     1.2004800    -0.0088600
  C       -0.6636910    -1.1986650    -0.0089510
  C       -1.3793250     0.0073430    -0.0161260
  O        2.8101880    -0.0968780     0.0088050
  H        1.2936820     2.1410080    -0.0035900
  H        3.2065402     0.9005225     0.0130837
  H        1.2824350    -2.1540410    -0.0024010
  H       -1.1767190     2.1533030    -0.0171340
  H       -1.2060620    -2.1429340    -0.0174000
  H       -3.2954860    -0.8156320    -0.5681670
  H       -3.2834940     0.9453750    -0.3973120
  H       -3.2640020    -0.0839940     1.0392920
units angstrom
no_reorient  #important for SAPT in psi4, default
symmetry c1  #important for SAPT in psi4, default
}

set PROPERTIES_ORIGIN ["COM"]
properties('MP2/aug-cc-pvtz', properties = ['dipole'])
--------------------------------------------------------------------------

    Molecular point group: c1
  Charge       = 0
  Multiplicity = 1
  Basis Set: AUG-CC-PVTZ
    Blend: AUG-CC-PVTZ
  Basis Set: (AUG-CC-PVTZ AUX)
    Blend: AUG-CC-PVTZ-JKFIT

    Orbital Energies [Eh]
    ---------------------

    Doubly Occupied:

       1A    -20.596856     2A    -11.299139     3A    -11.238298
       4A    -11.236769     5A    -11.234470     6A    -11.234276
       7A    -11.228719     8A    -11.222962     9A     -1.379802
      10A     -1.147601    11A     -1.034202    12A     -1.016324
      13A     -0.923399    14A     -0.841368    15A     -0.796329
      16A     -0.713267    17A     -0.667481    18A     -0.641666
      19A     -0.600089    20A     -0.586521    21A     -0.586159
      22A     -0.570561    23A     -0.569070    24A     -0.528826
      25A     -0.503154    26A     -0.486226    27A     -0.468918
      28A     -0.340654    29A     -0.304448

  @DF-RHF Final Energy:  -344.70530250381779

   => Energetics <=

    Nuclear Repulsion Energy =            341.2097631583271777
    One-Electron Energy =               -1143.8350209447307861
    Two-Electron Energy =                 457.9199552825858177
    Total Energy =                       -344.7053025038177907
  Basis Set: (AUG-CC-PVTZ AUX)
    Blend: AUG-CC-PVTZ-RI
    Molecular point group: c1

    Geometry (in Angstrom), charge = 0, multiplicity = 1:

       Center              X                  Y                   Z               Mass
    ------------   -----------------  -----------------  -----------------  -----------------
         C           -2.945635477001     0.020847453311     0.016135019601    12.000000000000
         C            1.377055522999    -0.008029546689     0.004578019601    12.000000000000
         C            0.686910522999     1.205584453311    -0.002453980399    12.000000000000
         C            0.668745522999    -1.212410546689    -0.002049980399    12.000000000000
         C           -0.709527477001     1.207419453311    -0.008440980399    12.000000000000
         C           -0.723402477001    -1.191725546689    -0.008531980399    12.000000000000
         C           -1.439036477001     0.014282453311    -0.015706980399    12.000000000000
         O            2.750476522999    -0.089938546689     0.009224019601    15.994914619570
         H            1.233970522999     2.147947453311    -0.003170980399     1.007825032230
         H            3.146828722999     0.907461953311     0.013502719601     1.007825032230
         H            1.222723522999    -2.147101546689    -0.001981980399     1.007825032230
         H           -1.236430477001     2.160242453311    -0.016714980399     1.007825032230
         H           -1.265773477001    -2.135994546689    -0.016980980399     1.007825032230
         H           -3.355197477001    -0.808692546689    -0.567747980399     1.007825032230
         H           -3.343205477001     0.952314453311    -0.396892980399     1.007825032230
         H           -3.323713477001    -0.077054546689     1.039711019601     1.007825032230

  Basis Set: AUG-CC-PVTZ
    Blend: AUG-CC-PVTZ
  Basis Set: (AUG-CC-PVTZ AUX)
    Blend: AUG-CC-PVTZ-JKFIT
	 Reference Energy          =    -344.7053025038177907 [Eh]
	 Singles Energy            =      -0.0000000000000000 [Eh]
	 Same-Spin Energy          =      -0.3707862390430940 [Eh]
	 Opposite-Spin Energy      =      -1.1670321801422721 [Eh]
	 Correlation Energy        =      -1.5378184191853661 [Eh]
	 Total Energy              =    -346.2431209230031754 [Eh]

	 ================> DF-SCS-MP2 Energies <==================
	-----------------------------------------------------------
	 SCS Same-Spin Scale       =       0.3333333333333333 [-]
	 SCS Opposite-Spin Scale   =       1.2000000000000000 [-]
	 SCS Same-Spin Energy      =      -0.1235954130143647 [Eh]
	 SCS Opposite-Spin Energy  =      -1.4004386161707265 [Eh]
	 SCS Correlation Energy    =      -1.5240340291850911 [Eh]
	 SCS Total Energy          =    -346.2293365330028792 [Eh]
	-----------------------------------------------------------

  Dipole Moment: [D]
     X:    -0.3991      Y:     1.3393      Z:     0.0372     Total:     1.3980

*** Psi4 exiting successfully. Buy a developer a beer!
