                               Psi4 1.3.2 release

  ==> Input File <==

--------------------------------------------------------------------------
#psi4
#
memory 32 gb

molecule  {
0 1
  C       -2.8859240     0.0139080     0.0157160
  C        1.4367670    -0.0149690     0.0041590
  C        0.7466220     1.1986450    -0.0028730
  C        0.7284570    -1.2193500    -0.0024690
  C       -0.6498160     1.2004800    -0.0088600
  C       -0.6636910    -1.1986650    -0.0089510
  C       -1.5792784     0.0082143    -0.0119000
  O        2.8101880    -0.0968780     0.0088050
  H        1.2936820     2.1410080    -0.0035900
  H        3.1696110     0.8075920     0.0126850
  H        1.2824350    -2.1540410    -0.0024010
  H       -1.1767190     2.1533030    -0.0171340
  H       -1.2060620    -2.1429340    -0.0174000
  H       -3.2954860    -0.8156320    -0.5681670
  H       -3.2834940     0.9453750    -0.3973120
  H       -3.2640020    -0.0839940     1.0392920
units angstrom
no_reorient  #important for SAPT in psi4, default
symmetry c1  #important for SAPT in psi4, default
}

set PROPERTIES_ORIGIN ["COM"]
properties('MP2/aug-cc-pvtz', properties = ['dipole'])
--------------------------------------------------------------------------

    Molecular point group: c1
  Charge       = 0
  Multiplicity = 1
  Basis Set: AUG-CC-PVTZ
    Blend: AUG-CC-PVTZ
  Basis Set: (AUG-CC-PVTZ AUX)
    Blend: AUG-CC-PVTZ-JKFIT

    Orbital Energies [Eh]
    ---------------------

    Doubly Occupied:

       1A    -20.590791     2A    -11.301289     3A    -11.250142
       4A    -11.249219     5A    -11.247314     6A    -11.235411
       7A    -11.229238     8A    -11.217362     9A     -1.398746
      10A     -1.139766    11A     -1.074091    12A     -1.009420
      13A     -0.928291    14A     -0.832819    15A     -0.792433
      16A     -0.723099    17A     -0.673574    18A     -0.658053
      19A     -0.603211    20A     -0.599429    21A     -0.583679
      22A     -0.582060    23A     -0.576683    24A     -0.549604
      25A     -0.529342    26A     -0.455556    27A     -0.444459
      28A     -0.338583    29A     -0.286346

  @DF-RHF Final Energy:  -344.65528124273141

   => Energetics <=

    Nuclear Repulsion Energy =            340.1248933197357474
    One-Electron Energy =               -1141.3603281160944789
    Two-Electron Energy =                 456.5801535536273263
    Total Energy =                       -344.6552812427314052
  Basis Set: (AUG-CC-PVTZ AUX)
    Blend: AUG-CC-PVTZ-RI
    Molecular point group: c1

    Geometry (in Angstrom), charge = 0, multiplicity = 1:

       Center              X                  Y                   Z               Mass
    ------------   -----------------  -----------------  -----------------  -----------------
         C           -2.923085828557     0.021617432930     0.015669432545    12.000000000000
         C            1.399605171443    -0.007259567070     0.004112432545    12.000000000000
         C            0.709460171443     1.206354432930    -0.002919567455    12.000000000000
         C            0.691295171443    -1.211640567070    -0.002515567455    12.000000000000
         C           -0.686977828557     1.208189432930    -0.008906567455    12.000000000000
         C           -0.700852828557    -1.190955567070    -0.008997567455    12.000000000000
         C           -1.616440228557     0.015923732930    -0.011946567455    12.000000000000
         O            2.773026171443    -0.089168567070     0.008758432545    15.994914619570
         H            1.256520171443     2.148717432930    -0.003636567455     1.007825032230
         H            3.132449171443     0.815301432930     0.012638432545     1.007825032230
         H            1.245273171443    -2.146331567070    -0.002447567455     1.007825032230
         H           -1.213880828557     2.161012432930    -0.017180567455     1.007825032230
         H           -1.243223828557    -2.135224567070    -0.017446567455     1.007825032230
         H           -3.332647828557    -0.807922567070    -0.568213567455     1.007825032230
         H           -3.320655828557     0.953084432930    -0.397358567455     1.007825032230
         H           -3.301163828557    -0.076284567070     1.039245432545     1.007825032230

  Basis Set: AUG-CC-PVTZ
    Blend: AUG-CC-PVTZ
  Basis Set: (AUG-CC-PVTZ AUX)
    Blend: AUG-CC-PVTZ-JKFIT
	 Reference Energy          =    -344.6552812427314052 [Eh]
	 Singles Energy            =      -0.0000000000000000 [Eh]
	 Same-Spin Energy          =      -0.3734406513420713 [Eh]
	 Opposite-Spin Energy      =      -1.1701392781540998 [Eh]
	 Correlation Energy        =      -1.5435799294961710 [Eh]
	 Total Energy              =    -346.1988611722275664 [Eh]

	 ================> DF-SCS-MP2 Energies <==================
	-----------------------------------------------------------
	 SCS Same-Spin Scale       =       0.3333333333333333 [-]
	 SCS Opposite-Spin Scale   =       1.2000000000000000 [-]
	 SCS Same-Spin Energy      =      -0.1244802171140238 [Eh]
	 SCS Opposite-Spin Energy  =      -1.4041671337849198 [Eh]
	 SCS Correlation Energy    =      -1.5286473508989435 [Eh]
	 SCS Total Energy          =    -346.1839285936303554 [Eh]
	-----------------------------------------------------------

  Dipole Moment: [D]
     X:    -0.7651      Y:     1.2625      Z:     0.0595     Total:     1.4775

*** Psi4 exiting successfully. Buy a developer a beer!
