                               Psi4 1.4a3.dev225

  ==> Input File <==

--------------------------------------------------------------------------
#psi4
#
memory 32 gb

molecule  {
0 1
  C       -2.8858990     0.0139170     0.0160750
  C        1.4367690    -0.0149750     0.0043080
  C        0.7367194     1.2160271    -0.0031828
  C        0.7284530    -1.2193540    -0.0027000
  C       -0.6498220     1.2004800    -0.0089530
  C       -0.6636960    -1.1986710    -0.0090440
  C       -1.3793230     0.0073340    -0.0165520
  O        2.8101740    -0.0968660     0.0091650
  H        1.2936780     2.1410060    -0.0034030
  H        3.1695990     0.8076070     0.0120990
  H        1.2824160    -2.1540570    -0.0024590
  H       -1.1767200     2.1533030    -0.0175850
  H       -1.2060630    -2.1429390    -0.0178450
  H       -3.2957090    -0.8164640    -0.5664260
  H       -3.2836900     0.9448070    -0.3980300
  H       -3.2634270    -0.0825680     1.0399950
units angstrom
no_reorient  #important for SAPT in psi4, default
symmetry c1  #important for SAPT in psi4, default
}

set PROPERTIES_ORIGIN ["COM"]
properties('MP2/aug-cc-pvtz', properties = ['dipole'])
--------------------------------------------------------------------------

    Molecular point group: c1
  Charge       = 0
  Multiplicity = 1
  Basis Set: AUG-CC-PVTZ
    Blend: AUG-CC-PVTZ
  Basis Set: (AUG-CC-PVTZ AUX)
    Blend: AUG-CC-PVTZ-JKFIT

    Orbital Energies [Eh]
    ---------------------

    Doubly Occupied:

       1A    -20.590423     2A    -11.302183     3A    -11.238082
       4A    -11.237072     5A    -11.235690     6A    -11.234625
       7A    -11.228519     8A    -11.223170     9A     -1.398215
      10A     -1.148436    11A     -1.034976    12A     -1.018247
      13A     -0.925329    14A     -0.842945    15A     -0.801009
      16A     -0.727479    17A     -0.670040    18A     -0.643541
      19A     -0.604932    20A     -0.588484    21A     -0.588004
      22A     -0.574352    23A     -0.570163    24A     -0.530655
      25A     -0.505387    26A     -0.485481    27A     -0.469980
      28A     -0.342324    29A     -0.303466

  @DF-RHF Final Energy:  -344.71818491252981

   => Energetics <=

    Nuclear Repulsion Energy =            341.5334653771346893
    One-Electron Energy =               -1144.3768825843001196
    Two-Electron Energy =                 458.1252322946356230
    Total Energy =                       -344.7181849125298072
  Basis Set: (AUG-CC-PVTZ AUX)
    Blend: AUG-CC-PVTZ-RI
    Molecular point group: c1

    Geometry (in Angstrom), charge = 0, multiplicity = 1:

       Center              X                  Y                   Z               Mass
    ------------   -----------------  -----------------  -----------------  -----------------
         C           -2.944166936772     0.019792708732     0.016512577605    12.000000000000
         C            1.378501063228    -0.009099291268     0.004745577605    12.000000000000
         C            0.678451463228     1.221902808732    -0.002745222395    12.000000000000
         C            0.670185063228    -1.213478291268    -0.002262422395    12.000000000000
         C           -0.708089936772     1.206355708732    -0.008515422395    12.000000000000
         C           -0.721963936772    -1.192795291268    -0.008606422395    12.000000000000
         C           -1.437590936772     0.013209708732    -0.016114422395    12.000000000000
         O            2.751906063228    -0.090990291268     0.009602577605    15.994914619570
         H            1.235410063228     2.146881708732    -0.002965422395     1.007825032230
         H            3.111331063228     0.813482708732     0.012536577605     1.007825032230
         H            1.224148063228    -2.148181291268    -0.002021422395     1.007825032230
         H           -1.234987936772     2.159178708732    -0.017147422395     1.007825032230
         H           -1.264330936772    -2.137063291268    -0.017407422395     1.007825032230
         H           -3.353976936772    -0.810588291268    -0.565988422395     1.007825032230
         H           -3.341957936772     0.950682708732    -0.397592422395     1.007825032230
         H           -3.321694936772    -0.076692291268     1.040432577605     1.007825032230

  Basis Set: AUG-CC-PVTZ
    Blend: AUG-CC-PVTZ
  Basis Set: (AUG-CC-PVTZ AUX)
    Blend: AUG-CC-PVTZ-JKFIT
	 Reference Energy          =    -344.7181849125298072 [Eh]
	 Singles Energy            =      -0.0000000000000000 [Eh]
	 Same-Spin Energy          =      -0.3695632699952142 [Eh]
	 Opposite-Spin Energy      =      -1.1638526359974621 [Eh]
	 Correlation Energy        =      -1.5334159059926762 [Eh]
	 Total Energy              =    -346.2516008185224905 [Eh]

	 ================> DF-SCS-MP2 Energies <==================
	-----------------------------------------------------------
	 SCS Same-Spin Scale       =       0.3333333333333333 [-]
	 SCS Opposite-Spin Scale   =       1.2000000000000000 [-]
	 SCS Same-Spin Energy      =      -0.1231877566650714 [Eh]
	 SCS Opposite-Spin Energy  =      -1.3966231631969546 [Eh]
	 SCS Correlation Energy    =      -1.5198109198620260 [Eh]
	 SCS Total Energy          =    -346.2379958323918459 [Eh]
	-----------------------------------------------------------

  Dipole Moment: [D]
     X:    -0.4410      Y:     1.2715      Z:     0.0357     Total:     1.3463

*** Psi4 exiting successfully. Buy a developer a beer!
