                               Psi4 1.3.2 release

  ==> Input File <==

--------------------------------------------------------------------------
#psi4
#
memory 32 gb

molecule  {
0 1
  C       -2.8859240     0.0139080     0.0157160
  C        1.4367670    -0.0149690     0.0041590
  C        0.6971897     1.2855713    -0.0033767
  C        0.7284570    -1.2193500    -0.0024690
  C       -0.6498160     1.2004800    -0.0088600
  C       -0.6636910    -1.1986650    -0.0089510
  C       -1.3793250     0.0073430    -0.0161260
  O        2.8101880    -0.0968780     0.0088050
  H        1.2936820     2.1410080    -0.0035900
  H        3.1696110     0.8075920     0.0126850
  H        1.2824350    -2.1540410    -0.0024010
  H       -1.1767190     2.1533030    -0.0171340
  H       -1.2060620    -2.1429340    -0.0174000
  H       -3.2954860    -0.8156320    -0.5681670
  H       -3.2834940     0.9453750    -0.3973120
  H       -3.2640020    -0.0839940     1.0392920
units angstrom
no_reorient  #important for SAPT in psi4, default
symmetry c1  #important for SAPT in psi4, default
}

set PROPERTIES_ORIGIN ["COM"]
properties('MP2/aug-cc-pvtz', properties = ['dipole'])
--------------------------------------------------------------------------

    Molecular point group: c1
  Charge       = 0
  Multiplicity = 1
  Basis Set: AUG-CC-PVTZ
    Blend: AUG-CC-PVTZ
  Basis Set: (AUG-CC-PVTZ AUX)
    Blend: AUG-CC-PVTZ-JKFIT

    Orbital Energies [Eh]
    ---------------------

    Doubly Occupied:

       1A    -20.593517     2A    -11.309884     3A    -11.238339
       4A    -11.237232     5A    -11.234907     6A    -11.233149
       7A    -11.226007     8A    -11.222534     9A     -1.399453
      10A     -1.146409    11A     -1.029598    12A     -1.023930
      13A     -0.921787    14A     -0.840986    15A     -0.801026
      16A     -0.727205    17A     -0.673304    18A     -0.647304
      19A     -0.606482    20A     -0.593347    21A     -0.586635
      22A     -0.571776    23A     -0.569226    24A     -0.528345
      25A     -0.510918    26A     -0.475038    27A     -0.469937
      28A     -0.348320    29A     -0.295936

  @DF-RHF Final Energy:  -344.70665088608860

   => Energetics <=

    Nuclear Repulsion Energy =            340.7030190856409604
    One-Electron Energy =               -1142.6942772613997477
    Two-Electron Energy =                 457.2846072896701344
    Total Energy =                       -344.7066508860885961
  Basis Set: (AUG-CC-PVTZ AUX)
    Blend: AUG-CC-PVTZ-RI
    Molecular point group: c1

    Geometry (in Angstrom), charge = 0, multiplicity = 1:

       Center              X                  Y                   Z               Mass
    ------------   -----------------  -----------------  -----------------  -----------------
         C           -2.939801493378     0.012060855573     0.016194675052    12.000000000000
         C            1.382889506622    -0.016816144427     0.004637675052    12.000000000000
         C            0.643312206622     1.283724155573    -0.002898024948    12.000000000000
         C            0.674579506622    -1.221197144427    -0.001990324948    12.000000000000
         C           -0.703693493378     1.198632855573    -0.008381324948    12.000000000000
         C           -0.717568493378    -1.200512144427    -0.008472324948    12.000000000000
         C           -1.433202493378     0.005495855573    -0.015647324948    12.000000000000
         O            2.756310506622    -0.098725144427     0.009283675052    15.994914619570
         H            1.239804506622     2.139160855573    -0.003111324948     1.007825032230
         H            3.115733506622     0.805744855573     0.013163675052     1.007825032230
         H            1.228557506622    -2.155888144427    -0.001922324948     1.007825032230
         H           -1.230596493378     2.151455855573    -0.016655324948     1.007825032230
         H           -1.259939493378    -2.144781144427    -0.016921324948     1.007825032230
         H           -3.349363493378    -0.817479144427    -0.567688324948     1.007825032230
         H           -3.337371493378     0.943527855573    -0.396833324948     1.007825032230
         H           -3.317879493378    -0.085841144427     1.039770675052     1.007825032230

  Basis Set: AUG-CC-PVTZ
    Blend: AUG-CC-PVTZ
  Basis Set: (AUG-CC-PVTZ AUX)
    Blend: AUG-CC-PVTZ-JKFIT
	 Reference Energy          =    -344.7066508860885961 [Eh]
	 Singles Energy            =      -0.0000000000000000 [Eh]
	 Same-Spin Energy          =      -0.3695304112500970 [Eh]
	 Opposite-Spin Energy      =      -1.1647166494030725 [Eh]
	 Correlation Energy        =      -1.5342470606531695 [Eh]
	 Total Energy              =    -346.2408979467417680 [Eh]

	 ================> DF-SCS-MP2 Energies <==================
	-----------------------------------------------------------
	 SCS Same-Spin Scale       =       0.3333333333333333 [-]
	 SCS Opposite-Spin Scale   =       1.2000000000000000 [-]
	 SCS Same-Spin Energy      =      -0.1231768037500323 [Eh]
	 SCS Opposite-Spin Energy  =      -1.3976599792836870 [Eh]
	 SCS Correlation Energy    =      -1.5208367830337193 [Eh]
	 SCS Total Energy          =    -346.2274876691222971 [Eh]
	-----------------------------------------------------------

  Dipole Moment: [D]
     X:    -0.3338      Y:     1.2931      Z:     0.0357     Total:     1.3360

*** Psi4 exiting successfully. Buy a developer a beer!
