                               Psi4 1.3.2 release

  ==> Input File <==

--------------------------------------------------------------------------
#psi4
#
memory 32 gb

molecule  {
0 1
  C       -2.8859240     0.0139080     0.0157160
  C        1.4367670    -0.0149690     0.0041590
  C        0.7255464     1.1864152    -0.0028903
  C        0.7284570    -1.2193500    -0.0024690
  C       -0.6498160     1.2004800    -0.0088600
  C       -0.6636910    -1.1986650    -0.0089510
  C       -1.3793250     0.0073430    -0.0161260
  O        2.8101880    -0.0968780     0.0088050
  H        1.2936820     2.1410080    -0.0035900
  H        3.1696110     0.8075920     0.0126850
  H        1.2824350    -2.1540410    -0.0024010
  H       -1.1767190     2.1533030    -0.0171340
  H       -1.2060620    -2.1429340    -0.0174000
  H       -3.2954860    -0.8156320    -0.5681670
  H       -3.2834940     0.9453750    -0.3973120
  H       -3.2640020    -0.0839940     1.0392920
units angstrom
no_reorient  #important for SAPT in psi4, default
symmetry c1  #important for SAPT in psi4, default
}

set PROPERTIES_ORIGIN ["COM"]
properties('MP2/aug-cc-pvtz', properties = ['dipole'])
--------------------------------------------------------------------------

    Molecular point group: c1
  Charge       = 0
  Multiplicity = 1
  Basis Set: AUG-CC-PVTZ
    Blend: AUG-CC-PVTZ
  Basis Set: (AUG-CC-PVTZ AUX)
    Blend: AUG-CC-PVTZ-JKFIT

    Orbital Energies [Eh]
    ---------------------

    Doubly Occupied:

       1A    -20.590692     2A    -11.299511     3A    -11.236821
       4A    -11.236266     5A    -11.235174     6A    -11.234585
       7A    -11.228779     8A    -11.223186     9A     -1.398314
      10A     -1.151255    11A     -1.036610    12A     -1.018688
      13A     -0.926668    14A     -0.842076    15A     -0.801417
      16A     -0.727997    17A     -0.672010    18A     -0.639256
      19A     -0.603757    20A     -0.589047    21A     -0.585726
      22A     -0.575933    23A     -0.570403    24A     -0.531918
      25A     -0.504529    26A     -0.484393    27A     -0.471818
      28A     -0.343101    29A     -0.304804

  @DF-RHF Final Energy:  -344.71814759870153

   => Energetics <=

    Nuclear Repulsion Energy =            342.0775323692519692
    One-Electron Energy =               -1145.4618943965397193
    Two-Electron Energy =                 458.6662144285862723
    Total Energy =                       -344.7181475987015347
  Basis Set: (AUG-CC-PVTZ AUX)
    Blend: AUG-CC-PVTZ-RI
    Molecular point group: c1

    Geometry (in Angstrom), charge = 0, multiplicity = 1:

       Center              X                  Y                   Z               Mass
    ------------   -----------------  -----------------  -----------------  -----------------
         C           -2.942950560801     0.023072335907     0.016140659373    12.000000000000
         C            1.379740439199    -0.005804664093     0.004583659373    12.000000000000
         C            0.668519839199     1.195579535907    -0.002465640627    12.000000000000
         C            0.671430439199    -1.210185664093    -0.002044340627    12.000000000000
         C           -0.706842560801     1.209644335907    -0.008435340627    12.000000000000
         C           -0.720717560801    -1.189500664093    -0.008526340627    12.000000000000
         C           -1.436351560801     0.016507335907    -0.015701340627    12.000000000000
         O            2.753161439199    -0.087713664093     0.009229659373    15.994914619570
         H            1.236655439199     2.150172335907    -0.003165340627     1.007825032230
         H            3.112584439199     0.816756335907     0.013109659373     1.007825032230
         H            1.225408439199    -2.144876664093    -0.001976340627     1.007825032230
         H           -1.233745560801     2.162467335907    -0.016709340627     1.007825032230
         H           -1.263088560801    -2.133769664093    -0.016975340627     1.007825032230
         H           -3.352512560801    -0.806467664093    -0.567742340627     1.007825032230
         H           -3.340520560801     0.954539335907    -0.396887340627     1.007825032230
         H           -3.321028560801    -0.074829664093     1.039716659373     1.007825032230

  Basis Set: AUG-CC-PVTZ
    Blend: AUG-CC-PVTZ
  Basis Set: (AUG-CC-PVTZ AUX)
    Blend: AUG-CC-PVTZ-JKFIT
	 Reference Energy          =    -344.7181475987015347 [Eh]
	 Singles Energy            =      -0.0000000000000000 [Eh]
	 Same-Spin Energy          =      -0.3696423746848584 [Eh]
	 Opposite-Spin Energy      =      -1.1637377121347288 [Eh]
	 Correlation Energy        =      -1.5333800868195873 [Eh]
	 Total Energy              =    -346.2515276855211255 [Eh]

	 ================> DF-SCS-MP2 Energies <==================
	-----------------------------------------------------------
	 SCS Same-Spin Scale       =       0.3333333333333333 [-]
	 SCS Opposite-Spin Scale   =       1.2000000000000000 [-]
	 SCS Same-Spin Energy      =      -0.1232141248949528 [Eh]
	 SCS Opposite-Spin Energy  =      -1.3964852545616744 [Eh]
	 SCS Correlation Energy    =      -1.5196993794566271 [Eh]
	 SCS Total Energy          =    -346.2378469781581884 [Eh]
	-----------------------------------------------------------

  Dipole Moment: [D]
     X:    -0.4636      Y:     1.2703      Z:     0.0370     Total:     1.3528

*** Psi4 exiting successfully. Buy a developer a beer!
