                               Psi4 1.3.2 release

  ==> Input File <==

--------------------------------------------------------------------------
#psi4
#
memory 32 gb

molecule  {
0 1
  C       -2.8859240     0.0139080     0.0157160
  C        1.4367670    -0.0149690     0.0041590
  C        0.6235442     1.1198555    -0.0029443
  C        0.7284570    -1.2193500    -0.0024690
  C       -0.6498160     1.2004800    -0.0088600
  C       -0.6636910    -1.1986650    -0.0089510
  C       -1.3793250     0.0073430    -0.0161260
  O        2.8101880    -0.0968780     0.0088050
  H        1.2936820     2.1410080    -0.0035900
  H        3.1696110     0.8075920     0.0126850
  H        1.2824350    -2.1540410    -0.0024010
  H       -1.1767190     2.1533030    -0.0171340
  H       -1.2060620    -2.1429340    -0.0174000
  H       -3.2954860    -0.8156320    -0.5681670
  H       -3.2834940     0.9453750    -0.3973120
  H       -3.2640020    -0.0839940     1.0392920
units angstrom
no_reorient  #important for SAPT in psi4, default
symmetry c1  #important for SAPT in psi4, default
}

set PROPERTIES_ORIGIN ["COM"]
properties('MP2/aug-cc-pvtz', properties = ['dipole'])
--------------------------------------------------------------------------

    Molecular point group: c1
  Charge       = 0
  Multiplicity = 1
  Basis Set: AUG-CC-PVTZ
    Blend: AUG-CC-PVTZ
  Basis Set: (AUG-CC-PVTZ AUX)
    Blend: AUG-CC-PVTZ-JKFIT

    Orbital Energies [Eh]
    ---------------------

    Doubly Occupied:

       1A    -20.596258     2A    -11.299244     3A    -11.237089
       4A    -11.235394     5A    -11.232354     6A    -11.227648
       7A    -11.224378     8A    -11.222856     9A     -1.400778
      10A     -1.165248    11A     -1.036984    12A     -1.029369
      13A     -0.929097    14A     -0.834677    15A     -0.805847
      16A     -0.732543    17A     -0.682494    18A     -0.629582
      19A     -0.603996    20A     -0.592787    21A     -0.583155
      22A     -0.573228    23A     -0.570244    24A     -0.534736
      25A     -0.507209    26A     -0.482844    27A     -0.461622
      28A     -0.353940    29A     -0.302082

  @DF-RHF Final Energy:  -344.68997719749103

   => Energetics <=

    Nuclear Repulsion Energy =            343.8442159161087943
    One-Electron Energy =               -1148.8930206825602909
    Two-Electron Energy =                 460.3588275689604075
    Total Energy =                       -344.6899771974910323
  Basis Set: (AUG-CC-PVTZ AUX)
    Blend: AUG-CC-PVTZ-RI
    Molecular point group: c1

    Geometry (in Angstrom), charge = 0, multiplicity = 1:

       Center              X                  Y                   Z               Mass
    ------------   -----------------  -----------------  -----------------  -----------------
         C           -2.931623015453     0.030463921776     0.016146656180    12.000000000000
         C            1.391067984547     0.001586921776     0.004589656180    12.000000000000
         C            0.577845184547     1.136411421776    -0.002513643820    12.000000000000
         C            0.682757984547    -1.202794078224    -0.002038343820    12.000000000000
         C           -0.695515015453     1.217035921776    -0.008429343820    12.000000000000
         C           -0.709390015453    -1.182109078224    -0.008520343820    12.000000000000
         C           -1.425024015453     0.023898921776    -0.015695343820    12.000000000000
         O            2.764488984547    -0.080322078224     0.009235656180    15.994914619570
         H            1.247982984547     2.157563921776    -0.003159343820     1.007825032230
         H            3.123911984547     0.824147921776     0.013115656180     1.007825032230
         H            1.236735984547    -2.137485078224    -0.001970343820     1.007825032230
         H           -1.222418015453     2.169858921776    -0.016703343820     1.007825032230
         H           -1.251761015453    -2.126378078224    -0.016969343820     1.007825032230
         H           -3.341185015453    -0.799076078224    -0.567736343820     1.007825032230
         H           -3.329193015453     0.961930921776    -0.396881343820     1.007825032230
         H           -3.309701015453    -0.067438078224     1.039722656180     1.007825032230

  Basis Set: AUG-CC-PVTZ
    Blend: AUG-CC-PVTZ
  Basis Set: (AUG-CC-PVTZ AUX)
    Blend: AUG-CC-PVTZ-JKFIT
	 Reference Energy          =    -344.6899771974910323 [Eh]
	 Singles Energy            =      -0.0000000000000000 [Eh]
	 Same-Spin Energy          =      -0.3704332609379736 [Eh]
	 Opposite-Spin Energy      =      -1.1650071593615878 [Eh]
	 Correlation Energy        =      -1.5354404202995613 [Eh]
	 Total Energy              =    -346.2254176177905833 [Eh]

	 ================> DF-SCS-MP2 Energies <==================
	-----------------------------------------------------------
	 SCS Same-Spin Scale       =       0.3333333333333333 [-]
	 SCS Opposite-Spin Scale   =       1.2000000000000000 [-]
	 SCS Same-Spin Energy      =      -0.1234777536459912 [Eh]
	 SCS Opposite-Spin Energy  =      -1.3980085912339053 [Eh]
	 SCS Correlation Energy    =      -1.5214863448798965 [Eh]
	 SCS Total Energy          =    -346.2114635423709501 [Eh]
	-----------------------------------------------------------

  Dipole Moment: [D]
     X:    -0.4657      Y:     1.2363      Z:     0.0382     Total:     1.3217

*** Psi4 exiting successfully. Buy a developer a beer!
