                               Psi4 1.3.2 release

  ==> Input File <==

--------------------------------------------------------------------------
#psi4
#
memory 32 gb

molecule  {
0 1
  C       -2.8859240     0.0139080     0.0157160
  C        1.4367670    -0.0149690     0.0041590
  C        0.7466220     1.1986450    -0.0028730
  C        0.7284570    -1.2193500    -0.0024690
  C       -0.6498160     1.2004800    -0.0088600
  C       -0.6636910    -1.1986650    -0.0089510
  C       -1.1793716     0.0064717    -0.0203520
  O        2.8101880    -0.0968780     0.0088050
  H        1.2936820     2.1410080    -0.0035900
  H        3.1696110     0.8075920     0.0126850
  H        1.2824350    -2.1540410    -0.0024010
  H       -1.1767190     2.1533030    -0.0171340
  H       -1.2060620    -2.1429340    -0.0174000
  H       -3.2954860    -0.8156320    -0.5681670
  H       -3.2834940     0.9453750    -0.3973120
  H       -3.2640020    -0.0839940     1.0392920
units angstrom
no_reorient  #important for SAPT in psi4, default
symmetry c1  #important for SAPT in psi4, default
}

set PROPERTIES_ORIGIN ["COM"]
properties('MP2/aug-cc-pvtz', properties = ['dipole'])
--------------------------------------------------------------------------

    Molecular point group: c1
  Charge       = 0
  Multiplicity = 1
  Basis Set: AUG-CC-PVTZ
    Blend: AUG-CC-PVTZ
  Basis Set: (AUG-CC-PVTZ AUX)
    Blend: AUG-CC-PVTZ-JKFIT

    Orbital Energies [Eh]
    ---------------------

    Doubly Occupied:

       1A    -20.588034     2A    -11.297547     3A    -11.236609
       4A    -11.231067     5A    -11.230554     6A    -11.229167
       7A    -11.226438     8A    -11.223121     9A     -1.396742
      10A     -1.171566    11A     -1.031046    12A     -1.020472
      13A     -0.914440    14A     -0.856110    15A     -0.804599
      16A     -0.732973    17A     -0.674214    18A     -0.634465
      19A     -0.618812    20A     -0.600178    21A     -0.589025
      22A     -0.569879    23A     -0.556080    24A     -0.528200
      25A     -0.509809    26A     -0.488679    27A     -0.433808
      28A     -0.345771    29A     -0.317909

  @DF-RHF Final Energy:  -344.67772751400423

   => Energetics <=

    Nuclear Repulsion Energy =            343.9763855695877055
    One-Electron Energy =               -1149.1936031196933072
    Two-Electron Energy =                 460.5394900361013697
    Total Energy =                       -344.6777275140042320
  Basis Set: (AUG-CC-PVTZ AUX)
    Blend: AUG-CC-PVTZ-RI
    Molecular point group: c1

    Geometry (in Angstrom), charge = 0, multiplicity = 1:

       Center              X                  Y                   Z               Mass
    ------------   -----------------  -----------------  -----------------  -----------------
         C           -2.967496266882     0.021810952095     0.016608043803    12.000000000000
         C            1.355194733118    -0.007066047905     0.005051043803    12.000000000000
         C            0.665049733118     1.206547952095    -0.001980956197    12.000000000000
         C            0.646884733118    -1.211447047905    -0.001576956197    12.000000000000
         C           -0.731388266882     1.208382952095    -0.007967956197    12.000000000000
         C           -0.745263266882    -1.190762047905    -0.008058956197    12.000000000000
         C           -1.260943866882     0.014374652095    -0.019459956197    12.000000000000
         O            2.728615733118    -0.088975047905     0.009697043803    15.994914619570
         H            1.212109733118     2.148910952095    -0.002697956197     1.007825032230
         H            3.088038733118     0.815494952095     0.013577043803     1.007825032230
         H            1.200862733118    -2.146138047905    -0.001508956197     1.007825032230
         H           -1.258291266882     2.161205952095    -0.016241956197     1.007825032230
         H           -1.287634266882    -2.135031047905    -0.016507956197     1.007825032230
         H           -3.377058266882    -0.807729047905    -0.567274956197     1.007825032230
         H           -3.365066266882     0.953277952095    -0.396419956197     1.007825032230
         H           -3.345574266882    -0.076091047905     1.040184043803     1.007825032230

  Basis Set: AUG-CC-PVTZ
    Blend: AUG-CC-PVTZ
  Basis Set: (AUG-CC-PVTZ AUX)
    Blend: AUG-CC-PVTZ-JKFIT
	 Reference Energy          =    -344.6777275140042320 [Eh]
	 Singles Energy            =      -0.0000000000000000 [Eh]
	 Same-Spin Energy          =      -0.3699455671061916 [Eh]
	 Opposite-Spin Energy      =      -1.1646833837845247 [Eh]
	 Correlation Energy        =      -1.5346289508907163 [Eh]
	 Total Energy              =    -346.2123564648949241 [Eh]

	 ================> DF-SCS-MP2 Energies <==================
	-----------------------------------------------------------
	 SCS Same-Spin Scale       =       0.3333333333333333 [-]
	 SCS Opposite-Spin Scale   =       1.2000000000000000 [-]
	 SCS Same-Spin Energy      =      -0.1233151890353972 [Eh]
	 SCS Opposite-Spin Energy  =      -1.3976200605414297 [Eh]
	 SCS Correlation Energy    =      -1.5209352495768269 [Eh]
	 SCS Total Energy          =    -346.1986627635810692 [Eh]
	-----------------------------------------------------------

  Dipole Moment: [D]
     X:    -0.2116      Y:     1.2622      Z:     0.0232     Total:     1.2800

*** Psi4 exiting successfully. Buy a developer a beer!
