                               Psi4 1.3.2 release

  ==> Input File <==

--------------------------------------------------------------------------
#psi4
#
memory 32 gb

molecule  {
0 1
  C       -2.8859240     0.0139080     0.0157160
  C        1.4367670    -0.0149690     0.0041590
  C        0.7466220     1.1986450    -0.0028730
  C        0.7284570    -1.2193500    -0.0024690
  C       -0.6498160     1.2004800    -0.0088600
  C       -0.6636910    -1.1986650    -0.0089510
  C       -1.3271615     0.0926583    -0.0156064
  O        2.8101880    -0.0968780     0.0088050
  H        1.2936820     2.1410080    -0.0035900
  H        3.1696110     0.8075920     0.0126850
  H        1.2824350    -2.1540410    -0.0024010
  H       -1.1767190     2.1533030    -0.0171340
  H       -1.2060620    -2.1429340    -0.0174000
  H       -3.2954860    -0.8156320    -0.5681670
  H       -3.2834940     0.9453750    -0.3973120
  H       -3.2640020    -0.0839940     1.0392920
units angstrom
no_reorient  #important for SAPT in psi4, default
symmetry c1  #important for SAPT in psi4, default
}

set PROPERTIES_ORIGIN ["COM"]
properties('MP2/aug-cc-pvtz', properties = ['dipole'])
--------------------------------------------------------------------------

    Molecular point group: c1
  Charge       = 0
  Multiplicity = 1
  Basis Set: AUG-CC-PVTZ
    Blend: AUG-CC-PVTZ
  Basis Set: (AUG-CC-PVTZ AUX)
    Blend: AUG-CC-PVTZ-JKFIT

    Orbital Energies [Eh]
    ---------------------

    Doubly Occupied:

       1A    -20.589435     2A    -11.300057     3A    -11.243242
       4A    -11.232409     5A    -11.231443     6A    -11.231181
       7A    -11.224708     8A    -11.224556     9A     -1.397789
      10A     -1.155278    11A     -1.035794    12A     -1.015273
      13A     -0.924259    14A     -0.851306    15A     -0.796238
      16A     -0.728210    17A     -0.673886    18A     -0.637850
      19A     -0.606562    20A     -0.590056    21A     -0.588418
      22A     -0.573649    23A     -0.566542    24A     -0.531051
      25A     -0.506606    26A     -0.475718    27A     -0.471571
      28A     -0.344679    29A     -0.309060

  @DF-RHF Final Energy:  -344.70688371463655

   => Energetics <=

    Nuclear Repulsion Energy =            342.3323152073445499
    One-Electron Energy =               -1145.9647441799008902
    Two-Electron Energy =                 458.9255452579197936
    Total Energy =                       -344.7068837146365468
  Basis Set: (AUG-CC-PVTZ AUX)
    Blend: AUG-CC-PVTZ-RI
    Molecular point group: c1

    Geometry (in Angstrom), charge = 0, multiplicity = 1:

       Center              X                  Y                   Z               Mass
    ------------   -----------------  -----------------  -----------------  -----------------
         C           -2.951083907205     0.012239760298     0.016081035570    12.000000000000
         C            1.371607092795    -0.016637239702     0.004524035570    12.000000000000
         C            0.681462092795     1.196976760298    -0.002507964430    12.000000000000
         C            0.663297092795    -1.221018239702    -0.002103964430    12.000000000000
         C           -0.714975907205     1.198811760298    -0.008494964430    12.000000000000
         C           -0.728850907205    -1.200333239702    -0.008585964430    12.000000000000
         C           -1.392321407205     0.090990060298    -0.015241364430    12.000000000000
         O            2.745028092795    -0.098546239702     0.009170035570    15.994914619570
         H            1.228522092795     2.139339760298    -0.003224964430     1.007825032230
         H            3.104451092795     0.805923760298     0.013050035570     1.007825032230
         H            1.217275092795    -2.155709239702    -0.002035964430     1.007825032230
         H           -1.241878907205     2.151634760298    -0.016768964430     1.007825032230
         H           -1.271221907205    -2.144602239702    -0.017034964430     1.007825032230
         H           -3.360645907205    -0.817300239702    -0.567801964430     1.007825032230
         H           -3.348653907205     0.943706760298    -0.396946964430     1.007825032230
         H           -3.329161907205    -0.085662239702     1.039657035570     1.007825032230

  Basis Set: AUG-CC-PVTZ
    Blend: AUG-CC-PVTZ
  Basis Set: (AUG-CC-PVTZ AUX)
    Blend: AUG-CC-PVTZ-JKFIT
	 Reference Energy          =    -344.7068837146365468 [Eh]
	 Singles Energy            =      -0.0000000000000000 [Eh]
	 Same-Spin Energy          =      -0.3687634378399703 [Eh]
	 Opposite-Spin Energy      =      -1.1634220404561462 [Eh]
	 Correlation Energy        =      -1.5321854782961166 [Eh]
	 Total Energy              =    -346.2390691929326749 [Eh]

	 ================> DF-SCS-MP2 Energies <==================
	-----------------------------------------------------------
	 SCS Same-Spin Scale       =       0.3333333333333333 [-]
	 SCS Opposite-Spin Scale   =       1.2000000000000000 [-]
	 SCS Same-Spin Energy      =      -0.1229211459466568 [Eh]
	 SCS Opposite-Spin Energy  =      -1.3961064485473753 [Eh]
	 SCS Correlation Energy    =      -1.5190275944940321 [Eh]
	 SCS Total Energy          =    -346.2259113091305949 [Eh]
	-----------------------------------------------------------

  Dipole Moment: [D]
     X:    -0.4102      Y:     1.1880      Z:     0.0318     Total:     1.2572

*** Psi4 exiting successfully. Buy a developer a beer!
