                               Psi4 1.4a3.dev225

  ==> Input File <==

--------------------------------------------------------------------------
#psi4
#
memory 32 gb

molecule  {
0 1
  C       -2.8858990     0.0139170     0.0160750
  C        1.4367690    -0.0149750     0.0043080
  C        0.7466060     1.1986420    -0.0030770
  C        0.7284530    -1.2193540    -0.0027000
  C       -0.6498220     1.2004800    -0.0089530
  C       -0.6636960    -1.1986710    -0.0090440
  C       -1.3688904     0.0243971    -0.0164433
  O        2.8101740    -0.0968660     0.0091650
  H        1.2936780     2.1410060    -0.0034030
  H        3.1695990     0.8076070     0.0120990
  H        1.2824160    -2.1540570    -0.0024590
  H       -1.1767200     2.1533030    -0.0175850
  H       -1.2060630    -2.1429390    -0.0178450
  H       -3.2957090    -0.8164640    -0.5664260
  H       -3.2836900     0.9448070    -0.3980300
  H       -3.2634270    -0.0825680     1.0399950
units angstrom
no_reorient  #important for SAPT in psi4, default
symmetry c1  #important for SAPT in psi4, default
}

set PROPERTIES_ORIGIN ["COM"]
properties('MP2/aug-cc-pvtz', properties = ['dipole'])
--------------------------------------------------------------------------

    Molecular point group: c1
  Charge       = 0
  Multiplicity = 1
  Basis Set: AUG-CC-PVTZ
    Blend: AUG-CC-PVTZ
  Basis Set: (AUG-CC-PVTZ AUX)
    Blend: AUG-CC-PVTZ-JKFIT

    Orbital Energies [Eh]
    ---------------------

    Doubly Occupied:

       1A    -20.589499     2A    -11.299879     3A    -11.238299
       4A    -11.236484     5A    -11.234603     6A    -11.234136
       7A    -11.229633     8A    -11.223558     9A     -1.397824
      10A     -1.150086    11A     -1.035515    12A     -1.017257
      13A     -0.925771    14A     -0.845243    15A     -0.800011
      16A     -0.727606    17A     -0.670675    18A     -0.641616
      19A     -0.604955    20A     -0.588380    21A     -0.587637
      22A     -0.574463    23A     -0.569528    24A     -0.530823
      25A     -0.502529    26A     -0.487218    27A     -0.470989
      28A     -0.341181    29A     -0.306521

  @DF-RHF Final Energy:  -344.71871060028548

   => Energetics <=

    Nuclear Repulsion Energy =            341.8582677004336006
    One-Electron Energy =               -1145.0301215565871189
    Two-Electron Energy =                 458.4531432558680990
    Total Energy =                       -344.7187106002854762
  Basis Set: (AUG-CC-PVTZ AUX)
    Blend: AUG-CC-PVTZ-RI
    Molecular point group: c1

    Geometry (in Angstrom), charge = 0, multiplicity = 1:

       Center              X                  Y                   Z               Mass
    ------------   -----------------  -----------------  -----------------  -----------------
         C           -2.946423423979     0.019828467467     0.016488756957    12.000000000000
         C            1.376244576021    -0.009063532533     0.004721756957    12.000000000000
         C            0.686081576021     1.204553467467    -0.002663243043    12.000000000000
         C            0.667928576021    -1.213442532533    -0.002286243043    12.000000000000
         C           -0.710346423979     1.206391467467    -0.008539243043    12.000000000000
         C           -0.724220423979    -1.192759532533    -0.008630243043    12.000000000000
         C           -1.429414823979     0.030308567467    -0.016029543043    12.000000000000
         O            2.749649576021    -0.090954532533     0.009578756957    15.994914619570
         H            1.233153576021     2.146917467467    -0.002989243043     1.007825032230
         H            3.109074576021     0.813518467467     0.012512756957     1.007825032230
         H            1.221891576021    -2.148145532533    -0.002045243043     1.007825032230
         H           -1.237244423979     2.159214467467    -0.017171243043     1.007825032230
         H           -1.266587423979    -2.137027532533    -0.017431243043     1.007825032230
         H           -3.356233423979    -0.810552532533    -0.566012243043     1.007825032230
         H           -3.344214423979     0.950718467467    -0.397616243043     1.007825032230
         H           -3.323951423979    -0.076656532533     1.040408756957     1.007825032230

  Basis Set: AUG-CC-PVTZ
    Blend: AUG-CC-PVTZ
  Basis Set: (AUG-CC-PVTZ AUX)
    Blend: AUG-CC-PVTZ-JKFIT
	 Reference Energy          =    -344.7187106002854762 [Eh]
	 Singles Energy            =      -0.0000000000000000 [Eh]
	 Same-Spin Energy          =      -0.3694095264027076 [Eh]
	 Opposite-Spin Energy      =      -1.1635855220996267 [Eh]
	 Correlation Energy        =      -1.5329950485023343 [Eh]
	 Total Energy              =    -346.2517056487878335 [Eh]

	 ================> DF-SCS-MP2 Energies <==================
	-----------------------------------------------------------
	 SCS Same-Spin Scale       =       0.3333333333333333 [-]
	 SCS Opposite-Spin Scale   =       1.2000000000000000 [-]
	 SCS Same-Spin Energy      =      -0.1231365088009025 [Eh]
	 SCS Opposite-Spin Energy  =      -1.3963026265195519 [Eh]
	 SCS Correlation Energy    =      -1.5194391353204544 [Eh]
	 SCS Total Energy          =    -346.2381497356059299 [Eh]
	-----------------------------------------------------------

  Dipole Moment: [D]
     X:    -0.4595      Y:     1.2511      Z:     0.0348     Total:     1.3332

*** Psi4 exiting successfully. Buy a developer a beer!
