                               Psi4 1.3.2 release

  ==> Input File <==

--------------------------------------------------------------------------
#psi4
#
memory 32 gb

molecule  {
0 1
  C       -2.8859240     0.0139080     0.0157160
  C        1.4367670    -0.0149690     0.0041590
  C        0.7466220     1.1986450    -0.0028730
  C        0.7284570    -1.2193500    -0.0024690
  C       -0.6498160     1.2004800    -0.0088600
  C       -0.6636910    -1.1986650    -0.0089510
  C       -1.3793250     0.0073430    -0.0161260
  O        2.8101880    -0.0968780     0.0088050
  H        1.2936820     2.1410080    -0.0035900
  H        3.2434694     0.9934530     0.0134823
  H        1.2824350    -2.1540410    -0.0024010
  H       -1.1767190     2.1533030    -0.0171340
  H       -1.2060620    -2.1429340    -0.0174000
  H       -3.2954860    -0.8156320    -0.5681670
  H       -3.2834940     0.9453750    -0.3973120
  H       -3.2640020    -0.0839940     1.0392920
units angstrom
no_reorient  #important for SAPT in psi4, default
symmetry c1  #important for SAPT in psi4, default
}

set PROPERTIES_ORIGIN ["COM"]
properties('MP2/aug-cc-pvtz', properties = ['dipole'])
--------------------------------------------------------------------------

    Molecular point group: c1
  Charge       = 0
  Multiplicity = 1
  Basis Set: AUG-CC-PVTZ
    Blend: AUG-CC-PVTZ
  Basis Set: (AUG-CC-PVTZ AUX)
    Blend: AUG-CC-PVTZ-JKFIT

    Orbital Energies [Eh]
    ---------------------

    Doubly Occupied:

       1A    -20.602554     2A    -11.298556     3A    -11.237893
       4A    -11.236534     5A    -11.233915     6A    -11.233697
       7A    -11.228473     8A    -11.222649     9A     -1.366946
      10A     -1.146440    11A     -1.032424    12A     -1.015834
      13A     -0.921357    14A     -0.839589    15A     -0.793405
      16A     -0.701386    17A     -0.664636    18A     -0.640923
      19A     -0.595371    20A     -0.586184    21A     -0.584462
      22A     -0.568757    23A     -0.564805    24A     -0.525370
      25A     -0.502623    26A     -0.484974    27A     -0.468009
      28A     -0.340335    29A     -0.303583

  @DF-RHF Final Energy:  -344.68281409306968

   => Energetics <=

    Nuclear Repulsion Energy =            340.7382137153446706
    One-Electron Energy =               -1142.9586880279127854
    Two-Electron Energy =                 457.5376602194983775
    Total Energy =                       -344.6828140930696804
  Basis Set: (AUG-CC-PVTZ AUX)
    Blend: AUG-CC-PVTZ-RI
    Molecular point group: c1

    Geometry (in Angstrom), charge = 0, multiplicity = 1:

       Center              X                  Y                   Z               Mass
    ------------   -----------------  -----------------  -----------------  -----------------
         C           -2.945979906282     0.019980714110     0.016131301960    12.000000000000
         C            1.376711093718    -0.008896285890     0.004574301960    12.000000000000
         C            0.686566093718     1.204717714110    -0.002457698040    12.000000000000
         C            0.668401093718    -1.213277285890    -0.002053698040    12.000000000000
         C           -0.709871906282     1.206552714110    -0.008444698040    12.000000000000
         C           -0.723746906282    -1.192592285890    -0.008535698040    12.000000000000
         C           -1.439380906282     0.013415714110    -0.015710698040    12.000000000000
         O            2.750132093718    -0.090805285890     0.009220301960    15.994914619570
         H            1.233626093718     2.147080714110    -0.003174698040     1.007825032230
         H            3.183413493718     0.999525714110     0.013897601960     1.007825032230
         H            1.222379093718    -2.147968285890    -0.001985698040     1.007825032230
         H           -1.236774906282     2.159375714110    -0.016718698040     1.007825032230
         H           -1.266117906282    -2.136861285890    -0.016984698040     1.007825032230
         H           -3.355541906282    -0.809559285890    -0.567751698040     1.007825032230
         H           -3.343549906282     0.951447714110    -0.396896698040     1.007825032230
         H           -3.324057906282    -0.077921285890     1.039707301960     1.007825032230

  Basis Set: AUG-CC-PVTZ
    Blend: AUG-CC-PVTZ
  Basis Set: (AUG-CC-PVTZ AUX)
    Blend: AUG-CC-PVTZ-JKFIT
	 Reference Energy          =    -344.6828140930696804 [Eh]
	 Singles Energy            =      -0.0000000000000000 [Eh]
	 Same-Spin Energy          =      -0.3719789981940602 [Eh]
	 Opposite-Spin Energy      =      -1.1706133225936974 [Eh]
	 Correlation Energy        =      -1.5425923207877577 [Eh]
	 Total Energy              =    -346.2254064138574563 [Eh]

	 ================> DF-SCS-MP2 Energies <==================
	-----------------------------------------------------------
	 SCS Same-Spin Scale       =       0.3333333333333333 [-]
	 SCS Opposite-Spin Scale   =       1.2000000000000000 [-]
	 SCS Same-Spin Energy      =      -0.1239929993980201 [Eh]
	 SCS Opposite-Spin Energy  =      -1.4047359871124370 [Eh]
	 SCS Correlation Energy    =      -1.5287289865104570 [Eh]
	 SCS Total Energy          =    -346.2115430795801103 [Eh]
	-----------------------------------------------------------

  Dipole Moment: [D]
     X:    -0.3415      Y:     1.4064      Z:     0.0376     Total:     1.4478

*** Psi4 exiting successfully. Buy a developer a beer!
