                               Psi4 1.3.2 release

  ==> Input File <==

--------------------------------------------------------------------------
#psi4
#
memory 32 gb

molecule  {
0 1
  C       -2.8859240     0.0139080     0.0157160
  C        1.4367670    -0.0149690     0.0041590
  C        0.7466220     1.1986450    -0.0028730
  C        0.7284570    -1.2193500    -0.0024690
  C       -0.6498160     1.2004800    -0.0088600
  C       -0.6636910    -1.1986650    -0.0089510
  C       -1.3793250     0.0073430    -0.0161260
  O        2.6105439    -0.0849715     0.0081296
  H        1.2936820     2.1410080    -0.0035900
  H        3.1696110     0.8075920     0.0126850
  H        1.2824350    -2.1540410    -0.0024010
  H       -1.1767190     2.1533030    -0.0171340
  H       -1.2060620    -2.1429340    -0.0174000
  H       -3.2954860    -0.8156320    -0.5681670
  H       -3.2834940     0.9453750    -0.3973120
  H       -3.2640020    -0.0839940     1.0392920
units angstrom
no_reorient  #important for SAPT in psi4, default
symmetry c1  #important for SAPT in psi4, default
}

set PROPERTIES_ORIGIN ["COM"]
properties('MP2/aug-cc-pvtz', properties = ['dipole'])
--------------------------------------------------------------------------

    Molecular point group: c1
  Charge       = 0
  Multiplicity = 1
  Basis Set: AUG-CC-PVTZ
    Blend: AUG-CC-PVTZ
  Basis Set: (AUG-CC-PVTZ AUX)
    Blend: AUG-CC-PVTZ-JKFIT

    Orbital Energies [Eh]
    ---------------------

    Doubly Occupied:

       1A    -20.608228     2A    -11.289709     3A    -11.230526
       4A    -11.229266     5A    -11.216589     6A    -11.214776
       7A    -11.213287     8A    -11.210428     9A     -1.497121
      10A     -1.135374    11A     -1.022935    12A     -1.008776
      13A     -0.920450    14A     -0.856695    15A     -0.815768
      16A     -0.746187    17A     -0.686557    18A     -0.651100
      19A     -0.638628    20A     -0.597610    21A     -0.577303
      22A     -0.569714    23A     -0.563121    24A     -0.514755
      25A     -0.494828    26A     -0.470459    27A     -0.457421
      28A     -0.333367    29A     -0.279978

  @DF-RHF Final Energy:  -344.67422299673098

   => Energetics <=

    Nuclear Repulsion Energy =            347.6770093618310966
    One-Electron Energy =               -1156.6005501971501417
    Two-Electron Energy =                 464.2493178385880697
    Total Energy =                       -344.6742229967309754
  Basis Set: (AUG-CC-PVTZ AUX)
    Blend: AUG-CC-PVTZ-RI
    Molecular point group: c1

    Geometry (in Angstrom), charge = 0, multiplicity = 1:

       Center              X                  Y                   Z               Mass
    ------------   -----------------  -----------------  -----------------  -----------------
         C           -2.915739282279     0.019951765798     0.016238712390    12.000000000000
         C            1.406951717721    -0.008925234202     0.004681712390    12.000000000000
         C            0.716806717721     1.204688765798    -0.002350287610    12.000000000000
         C            0.698641717721    -1.213306234202    -0.001946287610    12.000000000000
         C           -0.679631282279     1.206523765798    -0.008337287610    12.000000000000
         C           -0.693506282279    -1.192621234202    -0.008428287610    12.000000000000
         C           -1.409140282279     0.013386765798    -0.015603287610    12.000000000000
         O            2.580728617721    -0.078927734202     0.008652312390    15.994914619570
         H            1.263866717721     2.147051765798    -0.003067287610     1.007825032230
         H            3.139795717721     0.813635765798     0.013207712390     1.007825032230
         H            1.252619717721    -2.147997234202    -0.001878287610     1.007825032230
         H           -1.206534282279     2.159346765798    -0.016611287610     1.007825032230
         H           -1.235877282279    -2.136890234202    -0.016877287610     1.007825032230
         H           -3.325301282279    -0.809588234202    -0.567644287610     1.007825032230
         H           -3.313309282279     0.951418765798    -0.396789287610     1.007825032230
         H           -3.293817282279    -0.077950234202     1.039814712390     1.007825032230

  Basis Set: AUG-CC-PVTZ
    Blend: AUG-CC-PVTZ
  Basis Set: (AUG-CC-PVTZ AUX)
    Blend: AUG-CC-PVTZ-JKFIT
	 Reference Energy          =    -344.6742229967309754 [Eh]
	 Singles Energy            =      -0.0000000000000000 [Eh]
	 Same-Spin Energy          =      -0.3705094437164431 [Eh]
	 Opposite-Spin Energy      =      -1.1623586252690532 [Eh]
	 Correlation Energy        =      -1.5328680689854963 [Eh]
	 Total Energy              =    -346.2070910657164973 [Eh]

	 ================> DF-SCS-MP2 Energies <==================
	-----------------------------------------------------------
	 SCS Same-Spin Scale       =       0.3333333333333333 [-]
	 SCS Opposite-Spin Scale   =       1.2000000000000000 [-]
	 SCS Same-Spin Energy      =      -0.1235031479054810 [Eh]
	 SCS Opposite-Spin Energy  =      -1.3948303503228638 [Eh]
	 SCS Correlation Energy    =      -1.5183334982283450 [Eh]
	 SCS Total Energy          =    -346.1925564949593195 [Eh]
	-----------------------------------------------------------

  Dipole Moment: [D]
     X:     1.2550      Y:     1.2732      Z:     0.0417     Total:     1.7882

*** Psi4 exiting successfully. Buy a developer a beer!
