                               Psi4 1.4a3.dev225

  ==> Input File <==

--------------------------------------------------------------------------
#psi4
#
memory 32 gb

molecule  {
0 1
  C       -2.8858990     0.0139170     0.0160750
  C        1.4367690    -0.0149750     0.0043080
  C        0.7466060     1.1986420    -0.0030770
  C        0.7284530    -1.2193540    -0.0027000
  C       -0.6498220     1.2004800    -0.0089530
  C       -0.6636960    -1.1986710    -0.0090440
  C       -1.3793230     0.0073340    -0.0165520
  O        2.8301384    -0.0980564     0.0092356
  H        1.2936780     2.1410060    -0.0034030
  H        3.1695990     0.8076070     0.0120990
  H        1.2824160    -2.1540570    -0.0024590
  H       -1.1767200     2.1533030    -0.0175850
  H       -1.2060630    -2.1429390    -0.0178450
  H       -3.2957090    -0.8164640    -0.5664260
  H       -3.2836900     0.9448070    -0.3980300
  H       -3.2634270    -0.0825680     1.0399950
units angstrom
no_reorient  #important for SAPT in psi4, default
symmetry c1  #important for SAPT in psi4, default
}

set PROPERTIES_ORIGIN ["COM"]
properties('MP2/aug-cc-pvtz', properties = ['dipole'])
--------------------------------------------------------------------------

    Molecular point group: c1
  Charge       = 0
  Multiplicity = 1
  Basis Set: AUG-CC-PVTZ
    Blend: AUG-CC-PVTZ
  Basis Set: (AUG-CC-PVTZ AUX)
    Blend: AUG-CC-PVTZ-JKFIT

    Orbital Energies [Eh]
    ---------------------

    Doubly Occupied:

       1A    -20.588164     2A    -11.301006     3A    -11.239602
       4A    -11.237910     5A    -11.236852     6A    -11.236390
       7A    -11.230731     8A    -11.224182     9A     -1.390908
      10A     -1.150325    11A     -1.037783    12A     -1.017745
      13A     -0.926917    14A     -0.843433    15A     -0.800065
      16A     -0.724233    17A     -0.669495    18A     -0.642366
      19A     -0.605696    20A     -0.587886    21A     -0.585043
      22A     -0.573986    23A     -0.569814    24A     -0.532675
      25A     -0.504252    26A     -0.488504    27A     -0.471127
      28A     -0.341796    29A     -0.307696

  @DF-RHF Final Energy:  -344.71812360101194

   => Energetics <=

    Nuclear Repulsion Energy =            341.2213785106198429
    One-Electron Energy =               -1143.7458431225991262
    Two-Electron Energy =                 457.8063410109673441
    Total Energy =                       -344.7181236010119392
  Basis Set: (AUG-CC-PVTZ AUX)
    Blend: AUG-CC-PVTZ-RI
    Molecular point group: c1

    Geometry (in Angstrom), charge = 0, multiplicity = 1:

       Center              X                  Y                   Z               Mass
    ------------   -----------------  -----------------  -----------------  -----------------
         C           -2.948220038251     0.021899564018     0.016490377937    12.000000000000
         C            1.374447961749    -0.006992435982     0.004723377937    12.000000000000
         C            0.684284961749     1.206624564018    -0.002661622063    12.000000000000
         C            0.666131961749    -1.211371435982    -0.002284622063    12.000000000000
         C           -0.712143038251     1.208462564018    -0.008537622063    12.000000000000
         C           -0.726017038251    -1.190688435982    -0.008628622063    12.000000000000
         C           -1.441644038251     0.015316564018    -0.016136622063    12.000000000000
         O            2.767817361749    -0.090073835982     0.009650977937    15.994914619570
         H            1.231356961749     2.148988564018    -0.002987622063     1.007825032230
         H            3.107277961749     0.815589564018     0.012514377937     1.007825032230
         H            1.220094961749    -2.146074435982    -0.002043622063     1.007825032230
         H           -1.239041038251     2.161285564018    -0.017169622063     1.007825032230
         H           -1.268384038251    -2.134956435982    -0.017429622063     1.007825032230
         H           -3.358030038251    -0.808481435982    -0.566010622063     1.007825032230
         H           -3.346011038251     0.952789564018    -0.397614622063     1.007825032230
         H           -3.325748038251    -0.074585435982     1.040410377937     1.007825032230

  Basis Set: AUG-CC-PVTZ
    Blend: AUG-CC-PVTZ
  Basis Set: (AUG-CC-PVTZ AUX)
    Blend: AUG-CC-PVTZ-JKFIT
	 Reference Energy          =    -344.7181236010119392 [Eh]
	 Singles Energy            =      -0.0000000000000000 [Eh]
	 Same-Spin Energy          =      -0.3695179546844064 [Eh]
	 Opposite-Spin Energy      =      -1.1640441118761187 [Eh]
	 Correlation Energy        =      -1.5335620665605250 [Eh]
	 Total Energy              =    -346.2516856675724739 [Eh]

	 ================> DF-SCS-MP2 Energies <==================
	-----------------------------------------------------------
	 SCS Same-Spin Scale       =       0.3333333333333333 [-]
	 SCS Opposite-Spin Scale   =       1.2000000000000000 [-]
	 SCS Same-Spin Energy      =      -0.1231726515614688 [Eh]
	 SCS Opposite-Spin Energy  =      -1.3968529342513423 [Eh]
	 SCS Correlation Energy    =      -1.5200255858128111 [Eh]
	 SCS Total Energy          =    -346.2381491868247281 [Eh]
	-----------------------------------------------------------

  Dipole Moment: [D]
     X:    -0.6240      Y:     1.2638      Z:     0.0354     Total:     1.4099

*** Psi4 exiting successfully. Buy a developer a beer!
