                               Psi4 1.4a3.dev225

  ==> Input File <==

--------------------------------------------------------------------------
#psi4
#
memory 32 gb

molecule  {
0 1
  C       -2.8858990     0.0139170     0.0160750
  C        1.4367690    -0.0149750     0.0043080
  C        0.7218894     1.2421049    -0.0033415
  C        0.7284530    -1.2193540    -0.0027000
  C       -0.6498220     1.2004800    -0.0089530
  C       -0.6636960    -1.1986710    -0.0090440
  C       -1.3793230     0.0073340    -0.0165520
  O        2.8101740    -0.0968660     0.0091650
  H        1.2936780     2.1410060    -0.0034030
  H        3.1695990     0.8076070     0.0120990
  H        1.2824160    -2.1540570    -0.0024590
  H       -1.1767200     2.1533030    -0.0175850
  H       -1.2060630    -2.1429390    -0.0178450
  H       -3.2957090    -0.8164640    -0.5664260
  H       -3.2836900     0.9448070    -0.3980300
  H       -3.2634270    -0.0825680     1.0399950
units angstrom
no_reorient  #important for SAPT in psi4, default
symmetry c1  #important for SAPT in psi4, default
}

set PROPERTIES_ORIGIN ["COM"]
properties('MP2/aug-cc-pvtz', properties = ['dipole'])
--------------------------------------------------------------------------

    Molecular point group: c1
  Charge       = 0
  Multiplicity = 1
  Basis Set: AUG-CC-PVTZ
    Blend: AUG-CC-PVTZ
  Basis Set: (AUG-CC-PVTZ AUX)
    Blend: AUG-CC-PVTZ-JKFIT

    Orbital Energies [Eh]
    ---------------------

    Doubly Occupied:

       1A    -20.591669     2A    -11.305369     3A    -11.237441
       4A    -11.237090     5A    -11.236098     6A    -11.234062
       7A    -11.227572     8A    -11.222920     9A     -1.398729
      10A     -1.147558    11A     -1.032737    12A     -1.020331
      13A     -0.923951    14A     -0.841907    15A     -0.801252
      16A     -0.727481    17A     -0.670675    18A     -0.645108
      19A     -0.605283    20A     -0.590659    21A     -0.587464
      22A     -0.573518    23A     -0.569879    24A     -0.529718
      25A     -0.507694    26A     -0.482121    27A     -0.469911
      28A     -0.344431    29A     -0.300503

  @DF-RHF Final Energy:  -344.71540433222833

   => Energetics <=

    Nuclear Repulsion Energy =            341.2138088596780676
    One-Electron Energy =               -1143.7321636729157035
    Two-Electron Energy =                 457.8029504810093613
    Total Energy =                       -344.7154043322283314
  Basis Set: (AUG-CC-PVTZ AUX)
    Blend: AUG-CC-PVTZ-RI
    Molecular point group: c1

    Geometry (in Angstrom), charge = 0, multiplicity = 1:

       Center              X                  Y                   Z               Mass
    ------------   -----------------  -----------------  -----------------  -----------------
         C           -2.942520036043     0.016896717645     0.016530201553    12.000000000000
         C            1.380147963957    -0.011995282355     0.004763201553    12.000000000000
         C            0.665268363957     1.245084617645    -0.002886298447    12.000000000000
         C            0.671831963957    -1.216374282355    -0.002244798447    12.000000000000
         C           -0.706443036043     1.203459717645    -0.008497798447    12.000000000000
         C           -0.720317036043    -1.195691282355    -0.008588798447    12.000000000000
         C           -1.435944036043     0.010313717645    -0.016096798447    12.000000000000
         O            2.753552963957    -0.093886282355     0.009620201553    15.994914619570
         H            1.237056963957     2.143985717645    -0.002947798447     1.007825032230
         H            3.112977963957     0.810586717645     0.012554201553     1.007825032230
         H            1.225794963957    -2.151077282355    -0.002003798447     1.007825032230
         H           -1.233341036043     2.156282717645    -0.017129798447     1.007825032230
         H           -1.262684036043    -2.139959282355    -0.017389798447     1.007825032230
         H           -3.352330036043    -0.813484282355    -0.565970798447     1.007825032230
         H           -3.340311036043     0.947786717645    -0.397574798447     1.007825032230
         H           -3.320048036043    -0.079588282355     1.040450201553     1.007825032230

  Basis Set: AUG-CC-PVTZ
    Blend: AUG-CC-PVTZ
  Basis Set: (AUG-CC-PVTZ AUX)
    Blend: AUG-CC-PVTZ-JKFIT
	 Reference Energy          =    -344.7154043322283314 [Eh]
	 Singles Energy            =      -0.0000000000000000 [Eh]
	 Same-Spin Energy          =      -0.3695692342072073 [Eh]
	 Opposite-Spin Energy      =      -1.1641094583859739 [Eh]
	 Correlation Energy        =      -1.5336786925931811 [Eh]
	 Total Energy              =    -346.2490830248215161 [Eh]

	 ================> DF-SCS-MP2 Energies <==================
	-----------------------------------------------------------
	 SCS Same-Spin Scale       =       0.3333333333333333 [-]
	 SCS Opposite-Spin Scale   =       1.2000000000000000 [-]
	 SCS Same-Spin Energy      =      -0.1231897447357358 [Eh]
	 SCS Opposite-Spin Energy  =      -1.3969313500631686 [Eh]
	 SCS Correlation Energy    =      -1.5201210947989043 [Eh]
	 SCS Total Energy          =    -346.2355254270272553 [Eh]
	-----------------------------------------------------------

  Dipole Moment: [D]
     X:    -0.3972      Y:     1.2791      Z:     0.0353     Total:     1.3398

*** Psi4 exiting successfully. Buy a developer a beer!
