                               Psi4 1.3.2 release

  ==> Input File <==

--------------------------------------------------------------------------
#psi4
#
memory 32 gb

molecule  {
0 1
  C       -2.8859240     0.0139080     0.0157160
  C        1.4357304    -0.1589795     0.0037409
  C        0.7466220     1.1986450    -0.0028730
  C        0.7284570    -1.2193500    -0.0024690
  C       -0.6498160     1.2004800    -0.0088600
  C       -0.6636910    -1.1986650    -0.0089510
  C       -1.3793250     0.0073430    -0.0161260
  O        2.8101880    -0.0968780     0.0088050
  H        1.2936820     2.1410080    -0.0035900
  H        3.1696110     0.8075920     0.0126850
  H        1.2824350    -2.1540410    -0.0024010
  H       -1.1767190     2.1533030    -0.0171340
  H       -1.2060620    -2.1429340    -0.0174000
  H       -3.2954860    -0.8156320    -0.5681670
  H       -3.2834940     0.9453750    -0.3973120
  H       -3.2640020    -0.0839940     1.0392920
units angstrom
no_reorient  #important for SAPT in psi4, default
symmetry c1  #important for SAPT in psi4, default
}

set PROPERTIES_ORIGIN ["COM"]
properties('MP2/aug-cc-pvtz', properties = ['dipole'])
--------------------------------------------------------------------------

    Molecular point group: c1
  Charge       = 0
  Multiplicity = 1
  Basis Set: AUG-CC-PVTZ
    Blend: AUG-CC-PVTZ
  Basis Set: (AUG-CC-PVTZ AUX)
    Blend: AUG-CC-PVTZ-JKFIT

    Orbital Energies [Eh]
    ---------------------

    Doubly Occupied:

       1A    -20.584021     2A    -11.297503     3A    -11.246789
       4A    -11.239133     5A    -11.237779     6A    -11.235957
       7A    -11.223820     8A    -11.212763     9A     -1.391546
      10A     -1.152088    11A     -1.050528    12A     -1.009107
      13A     -0.929717    14A     -0.840780    15A     -0.796797
      16A     -0.735123    17A     -0.661660    18A     -0.651338
      19A     -0.616469    20A     -0.587711    21A     -0.586385
      22A     -0.570526    23A     -0.562975    24A     -0.529084
      25A     -0.507154    26A     -0.470616    27A     -0.470182
      28A     -0.349186    29A     -0.302887

  @DF-RHF Final Energy:  -344.69290558608060

   => Energetics <=

    Nuclear Repulsion Energy =            341.8719303242431238
    One-Electron Energy =               -1145.0304192563341985
    Two-Electron Energy =                 458.4655833460105328
    Total Energy =                       -344.6929055860805988
  Basis Set: (AUG-CC-PVTZ AUX)
    Blend: AUG-CC-PVTZ-RI
    Molecular point group: c1

    Geometry (in Angstrom), charge = 0, multiplicity = 1:

       Center              X                  Y                   Z               Mass
    ------------   -----------------  -----------------  -----------------  -----------------
         C           -2.945175931247     0.037706842371     0.016185169003    12.000000000000
         C            1.376478468753    -0.135180657629     0.004210069003    12.000000000000
         C            0.687370068753     1.222443842371    -0.002403830997    12.000000000000
         C            0.669205068753    -1.195551157629    -0.001999830997    12.000000000000
         C           -0.709067931247     1.224278842371    -0.008390830997    12.000000000000
         C           -0.722942931247    -1.174866157629    -0.008481830997    12.000000000000
         C           -1.438576931247     0.031141842371    -0.015656830997    12.000000000000
         O            2.750936068753    -0.073079157629     0.009274169003    15.994914619570
         H            1.234430068753     2.164806842371    -0.003120830997     1.007825032230
         H            3.110359068753     0.831390842371     0.013154169003     1.007825032230
         H            1.223183068753    -2.130242157629    -0.001931830997     1.007825032230
         H           -1.235970931247     2.177101842371    -0.016664830997     1.007825032230
         H           -1.265313931247    -2.119135157629    -0.016930830997     1.007825032230
         H           -3.354737931247    -0.791833157629    -0.567697830997     1.007825032230
         H           -3.342745931247     0.969173842371    -0.396842830997     1.007825032230
         H           -3.323253931247    -0.060195157629     1.039761169003     1.007825032230

  Basis Set: AUG-CC-PVTZ
    Blend: AUG-CC-PVTZ
  Basis Set: (AUG-CC-PVTZ AUX)
    Blend: AUG-CC-PVTZ-JKFIT
	 Reference Energy          =    -344.6929055860805988 [Eh]
	 Singles Energy            =      -0.0000000000000000 [Eh]
	 Same-Spin Energy          =      -0.3687529831364457 [Eh]
	 Opposite-Spin Energy      =      -1.1640102536765586 [Eh]
	 Correlation Energy        =      -1.5327632368130044 [Eh]
	 Total Energy              =    -346.2256688228936241 [Eh]

	 ================> DF-SCS-MP2 Energies <==================
	-----------------------------------------------------------
	 SCS Same-Spin Scale       =       0.3333333333333333 [-]
	 SCS Opposite-Spin Scale   =       1.2000000000000000 [-]
	 SCS Same-Spin Energy      =      -0.1229176610454819 [Eh]
	 SCS Opposite-Spin Energy  =      -1.3968123044118703 [Eh]
	 SCS Correlation Energy    =      -1.5197299654573522 [Eh]
	 SCS Total Energy          =    -346.2126355515379714 [Eh]
	-----------------------------------------------------------

  Dipole Moment: [D]
     X:    -0.5469      Y:     1.2371      Z:     0.0367     Total:     1.3531

*** Psi4 exiting successfully. Buy a developer a beer!
