                               Psi4 1.3.2 release

  ==> Input File <==

--------------------------------------------------------------------------
#psi4
#
memory 32 gb

molecule  {
0 1
  C       -2.8859240     0.0139080     0.0157160
  C        1.4367670    -0.0149690     0.0041590
  C        0.7466220     1.1986450    -0.0028730
  C        0.7284570    -1.2193500    -0.0024690
  C       -0.6498160     1.2004800    -0.0088600
  C       -0.6636910    -1.1986650    -0.0089510
  C       -1.4314885    -0.0779723    -0.0166456
  O        2.8101880    -0.0968780     0.0088050
  H        1.2936820     2.1410080    -0.0035900
  H        3.1696110     0.8075920     0.0126850
  H        1.2824350    -2.1540410    -0.0024010
  H       -1.1767190     2.1533030    -0.0171340
  H       -1.2060620    -2.1429340    -0.0174000
  H       -3.2954860    -0.8156320    -0.5681670
  H       -3.2834940     0.9453750    -0.3973120
  H       -3.2640020    -0.0839940     1.0392920
units angstrom
no_reorient  #important for SAPT in psi4, default
symmetry c1  #important for SAPT in psi4, default
}

set PROPERTIES_ORIGIN ["COM"]
properties('MP2/aug-cc-pvtz', properties = ['dipole'])
--------------------------------------------------------------------------

    Molecular point group: c1
  Charge       = 0
  Multiplicity = 1
  Basis Set: AUG-CC-PVTZ
    Blend: AUG-CC-PVTZ
  Basis Set: (AUG-CC-PVTZ AUX)
    Blend: AUG-CC-PVTZ-JKFIT

    Orbital Energies [Eh]
    ---------------------

    Doubly Occupied:

       1A    -20.589899     2A    -11.299995     3A    -11.248928
       4A    -11.238499     5A    -11.237553     6A    -11.230629
       7A    -11.226658     8A    -11.222711     9A     -1.398064
      10A     -1.145695    11A     -1.045149    12A     -1.013978
      13A     -0.929572    14A     -0.838421    15A     -0.801812
      16A     -0.726070    17A     -0.666437    18A     -0.646721
      19A     -0.605422    20A     -0.589149    21A     -0.584323
      22A     -0.575887    23A     -0.573755    24A     -0.539396
      25A     -0.514520    26A     -0.470802    27A     -0.466163
      28A     -0.343498    29A     -0.299499

  @DF-RHF Final Energy:  -344.70630279281841

   => Energetics <=

    Nuclear Repulsion Energy =            341.2856059477583131
    One-Electron Energy =               -1143.8454060009057685
    Two-Electron Energy =                 457.8534972603290498
    Total Energy =                       -344.7063027928184056
  Basis Set: (AUG-CC-PVTZ AUX)
    Blend: AUG-CC-PVTZ-RI
    Molecular point group: c1

    Geometry (in Angstrom), charge = 0, multiplicity = 1:

       Center              X                  Y                   Z               Mass
    ------------   -----------------  -----------------  -----------------  -----------------
         C           -2.939498188235     0.031188624727     0.016196440778    12.000000000000
         C            1.383192811765     0.002311624727     0.004639440778    12.000000000000
         C            0.693047811765     1.215925624727    -0.002392559222    12.000000000000
         C            0.674882811765    -1.202069375273    -0.001988559222    12.000000000000
         C           -0.703390188235     1.217760624727    -0.008379559222    12.000000000000
         C           -0.717265188235    -1.181384375273    -0.008470559222    12.000000000000
         C           -1.485062688235    -0.060691675273    -0.016165159222    12.000000000000
         O            2.756613811765    -0.079597375273     0.009285440778    15.994914619570
         H            1.240107811765     2.158288624727    -0.003109559222     1.007825032230
         H            3.116036811765     0.824872624727     0.013165440778     1.007825032230
         H            1.228860811765    -2.136760375273    -0.001920559222     1.007825032230
         H           -1.230293188235     2.170583624727    -0.016653559222     1.007825032230
         H           -1.259636188235    -2.125653375273    -0.016919559222     1.007825032230
         H           -3.349060188235    -0.798351375273    -0.567686559222     1.007825032230
         H           -3.337068188235     0.962655624727    -0.396831559222     1.007825032230
         H           -3.317576188235    -0.066713375273     1.039772440778     1.007825032230

  Basis Set: AUG-CC-PVTZ
    Blend: AUG-CC-PVTZ
  Basis Set: (AUG-CC-PVTZ AUX)
    Blend: AUG-CC-PVTZ-JKFIT
	 Reference Energy          =    -344.7063027928184056 [Eh]
	 Singles Energy            =      -0.0000000000000000 [Eh]
	 Same-Spin Energy          =      -0.3700464829508610 [Eh]
	 Opposite-Spin Energy      =      -1.1650677447704791 [Eh]
	 Correlation Energy        =      -1.5351142277213401 [Eh]
	 Total Energy              =    -346.2414170205397568 [Eh]

	 ================> DF-SCS-MP2 Energies <==================
	-----------------------------------------------------------
	 SCS Same-Spin Scale       =       0.3333333333333333 [-]
	 SCS Opposite-Spin Scale   =       1.2000000000000000 [-]
	 SCS Same-Spin Energy      =      -0.1233488276502870 [Eh]
	 SCS Opposite-Spin Energy  =      -1.3980812937245750 [Eh]
	 SCS Correlation Energy    =      -1.5214301213748620 [Eh]
	 SCS Total Energy          =    -346.2277329141932682 [Eh]
	-----------------------------------------------------------

  Dipole Moment: [D]
     X:    -0.5458      Y:     1.3424      Z:     0.0420     Total:     1.4497

*** Psi4 exiting successfully. Buy a developer a beer!
