                               Psi4 1.3.2 release

  ==> Input File <==

--------------------------------------------------------------------------
#psi4
#
memory 32 gb

molecule  {
0 1
  C       -2.8859240     0.0139080     0.0157160
  C        1.4367670    -0.0149690     0.0041590
  C        0.6235514     1.1198532    -0.0040560
  C        0.7284570    -1.2193500    -0.0024690
  C       -0.6498160     1.2004800    -0.0088600
  C       -0.6636910    -1.1986650    -0.0089510
  C       -1.3793250     0.0073430    -0.0161260
  O        2.8101880    -0.0968780     0.0088050
  H        1.2936820     2.1410080    -0.0035900
  H        3.1696110     0.8075920     0.0126850
  H        1.2824350    -2.1540410    -0.0024010
  H       -1.1767190     2.1533030    -0.0171340
  H       -1.2060620    -2.1429340    -0.0174000
  H       -3.2954860    -0.8156320    -0.5681670
  H       -3.2834940     0.9453750    -0.3973120
  H       -3.2640020    -0.0839940     1.0392920
units angstrom
no_reorient  #important for SAPT in psi4, default
symmetry c1  #important for SAPT in psi4, default
}

set PROPERTIES_ORIGIN ["COM"]
properties('MP2/aug-cc-pvtz', properties = ['dipole'])
--------------------------------------------------------------------------

    Molecular point group: c1
  Charge       = 0
  Multiplicity = 1
  Basis Set: AUG-CC-PVTZ
    Blend: AUG-CC-PVTZ
  Basis Set: (AUG-CC-PVTZ AUX)
    Blend: AUG-CC-PVTZ-JKFIT

    Orbital Energies [Eh]
    ---------------------

    Doubly Occupied:

       1A    -20.596257     2A    -11.299243     3A    -11.237089
       4A    -11.235394     5A    -11.232354     6A    -11.227648
       7A    -11.224378     8A    -11.222856     9A     -1.400777
      10A     -1.165248    11A     -1.036984    12A     -1.029368
      13A     -0.929097    14A     -0.834677    15A     -0.805846
      16A     -0.732543    17A     -0.682493    18A     -0.629582
      19A     -0.603995    20A     -0.592789    21A     -0.583153
      22A     -0.573229    23A     -0.570242    24A     -0.534736
      25A     -0.507207    26A     -0.482845    27A     -0.461623
      28A     -0.353939    29A     -0.302082

  @DF-RHF Final Energy:  -344.68997672704143

   => Energetics <=

    Nuclear Repulsion Energy =            343.8441877532087005
    One-Electron Energy =               -1148.8929793917338884
    Two-Electron Energy =                 460.3588149114838188
    Total Energy =                       -344.6899767270414259
  Basis Set: (AUG-CC-PVTZ AUX)
    Blend: AUG-CC-PVTZ-RI
    Molecular point group: c1

    Geometry (in Angstrom), charge = 0, multiplicity = 1:

       Center              X                  Y                   Z               Mass
    ------------   -----------------  -----------------  -----------------  -----------------
         C           -2.931623815027     0.030464177195     0.016270112656    12.000000000000
         C            1.391067184973     0.001587177195     0.004713112656    12.000000000000
         C            0.577851584973     1.136409377195    -0.003501887344    12.000000000000
         C            0.682757184973    -1.202793822805    -0.001914887344    12.000000000000
         C           -0.695515815027     1.217036177195    -0.008305887344    12.000000000000
         C           -0.709390815027    -1.182108822805    -0.008396887344    12.000000000000
         C           -1.425024815027     0.023899177195    -0.015571887344    12.000000000000
         O            2.764488184973    -0.080321822805     0.009359112656    15.994914619570
         H            1.247982184973     2.157564177195    -0.003035887344     1.007825032230
         H            3.123911184973     0.824148177195     0.013239112656     1.007825032230
         H            1.236735184973    -2.137484822805    -0.001846887344     1.007825032230
         H           -1.222418815027     2.169859177195    -0.016579887344     1.007825032230
         H           -1.251761815027    -2.126377822805    -0.016845887344     1.007825032230
         H           -3.341185815027    -0.799075822805    -0.567612887344     1.007825032230
         H           -3.329193815027     0.961931177195    -0.396757887344     1.007825032230
         H           -3.309701815027    -0.067437822805     1.039846112656     1.007825032230

  Basis Set: AUG-CC-PVTZ
    Blend: AUG-CC-PVTZ
  Basis Set: (AUG-CC-PVTZ AUX)
    Blend: AUG-CC-PVTZ-JKFIT
	 Reference Energy          =    -344.6899767270414259 [Eh]
	 Singles Energy            =      -0.0000000000000000 [Eh]
	 Same-Spin Energy          =      -0.3704332783423447 [Eh]
	 Opposite-Spin Energy      =      -1.1650071521841492 [Eh]
	 Correlation Energy        =      -1.5354404305264939 [Eh]
	 Total Energy              =    -346.2254171575679038 [Eh]

	 ================> DF-SCS-MP2 Energies <==================
	-----------------------------------------------------------
	 SCS Same-Spin Scale       =       0.3333333333333333 [-]
	 SCS Opposite-Spin Scale   =       1.2000000000000000 [-]
	 SCS Same-Spin Energy      =      -0.1234777594474482 [Eh]
	 SCS Opposite-Spin Energy  =      -1.3980085826209789 [Eh]
	 SCS Correlation Energy    =      -1.5214863420684273 [Eh]
	 SCS Total Energy          =    -346.2114630691098682 [Eh]
	-----------------------------------------------------------

  Dipole Moment: [D]
     X:    -0.4658      Y:     1.2363      Z:     0.0388     Total:     1.3217

*** Psi4 exiting successfully. Buy a developer a beer!
