                               Psi4 1.3.2 release

  ==> Input File <==

--------------------------------------------------------------------------
#psi4
#
memory 32 gb

molecule  {
0 1
  C       -2.8859240     0.0139080     0.0157160
  C        1.4404617     0.0329129     0.0043099
  C        0.7466220     1.1986450    -0.0028730
  C        0.7284570    -1.2193500    -0.0024690
  C       -0.6498160     1.2004800    -0.0088600
  C       -0.6636910    -1.1986650    -0.0089510
  C       -1.3793250     0.0073430    -0.0161260
  O        2.8101880    -0.0968780     0.0088050
  H        1.2936820     2.1410080    -0.0035900
  H        3.1696110     0.8075920     0.0126850
  H        1.2824350    -2.1540410    -0.0024010
  H       -1.1767190     2.1533030    -0.0171340
  H       -1.2060620    -2.1429340    -0.0174000
  H       -3.2954860    -0.8156320    -0.5681670
  H       -3.2834940     0.9453750    -0.3973120
  H       -3.2640020    -0.0839940     1.0392920
units angstrom
no_reorient  #important for SAPT in psi4, default
symmetry c1  #important for SAPT in psi4, default
}

set PROPERTIES_ORIGIN ["COM"]
properties('MP2/aug-cc-pvtz', properties = ['dipole'])
--------------------------------------------------------------------------

    Molecular point group: c1
  Charge       = 0
  Multiplicity = 1
  Basis Set: AUG-CC-PVTZ
    Blend: AUG-CC-PVTZ
  Basis Set: (AUG-CC-PVTZ AUX)
    Blend: AUG-CC-PVTZ-JKFIT

    Orbital Energies [Eh]
    ---------------------

    Doubly Occupied:

       1A    -20.591447     2A    -11.299489     3A    -11.238229
       4A    -11.236686     5A    -11.235211     6A    -11.233822
       7A    -11.230463     8A    -11.223364     9A     -1.399874
      10A     -1.149046    11A     -1.038192    12A     -1.015165
      13A     -0.926138    14A     -0.843934    15A     -0.800977
      16A     -0.725313    17A     -0.672589    18A     -0.640603
      19A     -0.601112    20A     -0.589346    21A     -0.586444
      22A     -0.577759    23A     -0.570638    24A     -0.531713
      25A     -0.504034    26A     -0.486298    27A     -0.470249
      28A     -0.342251    29A     -0.304846

  @DF-RHF Final Energy:  -344.71562459756632

   => Energetics <=

    Nuclear Repulsion Energy =            341.7256558545118423
    One-Electron Energy =               -1144.7520956758839930
    Two-Electron Energy =                 458.3108152238058324
    Total Energy =                       -344.7156245975663182
  Basis Set: (AUG-CC-PVTZ AUX)
    Blend: AUG-CC-PVTZ-RI
    Molecular point group: c1

    Geometry (in Angstrom), charge = 0, multiplicity = 1:

       Center              X                  Y                   Z               Mass
    ------------   -----------------  -----------------  -----------------  -----------------
         C           -2.945701351437     0.016396813146     0.016121980432    12.000000000000
         C            1.380684348563     0.035401713146     0.004715880432    12.000000000000
         C            0.686844648563     1.201133813146    -0.002467019568    12.000000000000
         C            0.668679648563    -1.216861186854    -0.002063019568    12.000000000000
         C           -0.709593351437     1.202968813146    -0.008454019568    12.000000000000
         C           -0.723468351437    -1.196176186854    -0.008545019568    12.000000000000
         C           -1.439102351437     0.009831813146    -0.015720019568    12.000000000000
         O            2.750410648563    -0.094389186854     0.009210980432    15.994914619570
         H            1.233904648563     2.143496813146    -0.003184019568     1.007825032230
         H            3.109833648563     0.810080813146     0.013090980432     1.007825032230
         H            1.222657648563    -2.151552186854    -0.001995019568     1.007825032230
         H           -1.236496351437     2.155791813146    -0.016728019568     1.007825032230
         H           -1.265839351437    -2.140445186854    -0.016994019568     1.007825032230
         H           -3.355263351437    -0.813143186854    -0.567761019568     1.007825032230
         H           -3.343271351437     0.947863813146    -0.396906019568     1.007825032230
         H           -3.323779351437    -0.081505186854     1.039697980432     1.007825032230

  Basis Set: AUG-CC-PVTZ
    Blend: AUG-CC-PVTZ
  Basis Set: (AUG-CC-PVTZ AUX)
    Blend: AUG-CC-PVTZ-JKFIT
	 Reference Energy          =    -344.7156245975663182 [Eh]
	 Singles Energy            =      -0.0000000000000000 [Eh]
	 Same-Spin Energy          =      -0.3694661052233955 [Eh]
	 Opposite-Spin Energy      =      -1.1640672717522571 [Eh]
	 Correlation Energy        =      -1.5335333769756525 [Eh]
	 Total Energy              =    -346.2491579745419585 [Eh]

	 ================> DF-SCS-MP2 Energies <==================
	-----------------------------------------------------------
	 SCS Same-Spin Scale       =       0.3333333333333333 [-]
	 SCS Opposite-Spin Scale   =       1.2000000000000000 [-]
	 SCS Same-Spin Energy      =      -0.1231553684077985 [Eh]
	 SCS Opposite-Spin Energy  =      -1.3968807261027085 [Eh]
	 SCS Correlation Energy    =      -1.5200360945105069 [Eh]
	 SCS Total Energy          =    -346.2356606920768058 [Eh]
	-----------------------------------------------------------

  Dipole Moment: [D]
     X:    -0.4488      Y:     1.2723      Z:     0.0370     Total:     1.3497

*** Psi4 exiting successfully. Buy a developer a beer!
