                               Psi4 1.3.2 release

  ==> Input File <==

--------------------------------------------------------------------------
#psi4
#
memory 32 gb

molecule  {
0 1
  C       -2.8859240     0.0139080     0.0157160
  C        1.4367670    -0.0149690     0.0041590
  C        0.7466220     1.1986450    -0.0028730
  C        0.7284570    -1.2193500    -0.0024690
  C       -0.6498160     1.2004800    -0.0088600
  C       -0.6636910    -1.1986650    -0.0089510
  C       -1.3793250     0.0073430    -0.0161260
  O        2.8101880    -0.0968780     0.0088050
  H        1.2936820     2.1410080    -0.0035900
  H        3.1326818     0.7146615     0.0122863
  H        1.2824350    -2.1540410    -0.0024010
  H       -1.1767190     2.1533030    -0.0171340
  H       -1.2060620    -2.1429340    -0.0174000
  H       -3.2954860    -0.8156320    -0.5681670
  H       -3.2834940     0.9453750    -0.3973120
  H       -3.2640020    -0.0839940     1.0392920
units angstrom
no_reorient  #important for SAPT in psi4, default
symmetry c1  #important for SAPT in psi4, default
}

set PROPERTIES_ORIGIN ["COM"]
properties('MP2/aug-cc-pvtz', properties = ['dipole'])
--------------------------------------------------------------------------

    Molecular point group: c1
  Charge       = 0
  Multiplicity = 1
  Basis Set: AUG-CC-PVTZ
    Blend: AUG-CC-PVTZ
  Basis Set: (AUG-CC-PVTZ AUX)
    Blend: AUG-CC-PVTZ-JKFIT

    Orbital Energies [Eh]
    ---------------------

    Doubly Occupied:

       1A    -20.580262     2A    -11.300709     3A    -11.239321
       4A    -11.237522     5A    -11.236049     6A    -11.235719
       7A    -11.229769     8A    -11.223792     9A     -1.422930
      10A     -1.150997    11A     -1.039838    12A     -1.017582
      13A     -0.930252    14A     -0.847346    15A     -0.806755
      16A     -0.741405    17A     -0.672050    18A     -0.643389
      19A     -0.609109    20A     -0.591305    21A     -0.587431
      22A     -0.578381    23A     -0.571404    24A     -0.533201
      25A     -0.504495    26A     -0.488235    27A     -0.471421
      28A     -0.341529    29A     -0.306759

  @DF-RHF Final Energy:  -344.71408437681714

   => Energetics <=

    Nuclear Repulsion Energy =            342.3896034088656961
    One-Electron Energy =               -1145.9294590560891720
    Two-Electron Energy =                 458.8257712704063351
    Total Energy =                       -344.7140843768171408
  Basis Set: (AUG-CC-PVTZ AUX)
    Blend: AUG-CC-PVTZ-RI
    Molecular point group: c1

    Geometry (in Angstrom), charge = 0, multiplicity = 1:

       Center              X                  Y                   Z               Mass
    ------------   -----------------  -----------------  -----------------  -----------------
         C           -2.944946618439     0.022580931714     0.016142456748    12.000000000000
         C            1.377744381561    -0.006296068286     0.004585456748    12.000000000000
         C            0.687599381561     1.207317931714    -0.002446543252    12.000000000000
         C            0.669434381561    -1.210677068286    -0.002042543252    12.000000000000
         C           -0.708838618439     1.209152931714    -0.008433543252    12.000000000000
         C           -0.722713618439    -1.189992068286    -0.008524543252    12.000000000000
         C           -1.438347618439     0.016015931714    -0.015699543252    12.000000000000
         O            2.751165381561    -0.088205068286     0.009231456748    15.994914619570
         H            1.234659381561     2.149680931714    -0.003163543252     1.007825032230
         H            3.073659181561     0.723334431714     0.012712756748     1.007825032230
         H            1.223412381561    -2.145368068286    -0.001974543252     1.007825032230
         H           -1.235741618439     2.161975931714    -0.016707543252     1.007825032230
         H           -1.265084618439    -2.134261068286    -0.016973543252     1.007825032230
         H           -3.354508618439    -0.806959068286    -0.567740543252     1.007825032230
         H           -3.342516618439     0.954047931714    -0.396885543252     1.007825032230
         H           -3.323024618439    -0.075321068286     1.039718456748     1.007825032230

  Basis Set: AUG-CC-PVTZ
    Blend: AUG-CC-PVTZ
  Basis Set: (AUG-CC-PVTZ AUX)
    Blend: AUG-CC-PVTZ-JKFIT
	 Reference Energy          =    -344.7140843768171408 [Eh]
	 Singles Energy            =      -0.0000000000000000 [Eh]
	 Same-Spin Energy          =      -0.3682808140478513 [Eh]
	 Opposite-Spin Energy      =      -1.1607248533822156 [Eh]
	 Correlation Energy        =      -1.5290056674300669 [Eh]
	 Total Energy              =    -346.2430900442471966 [Eh]

	 ================> DF-SCS-MP2 Energies <==================
	-----------------------------------------------------------
	 SCS Same-Spin Scale       =       0.3333333333333333 [-]
	 SCS Opposite-Spin Scale   =       1.2000000000000000 [-]
	 SCS Same-Spin Energy      =      -0.1227602713492838 [Eh]
	 SCS Opposite-Spin Energy  =      -1.3928698240586588 [Eh]
	 SCS Correlation Energy    =      -1.5156300954079425 [Eh]
	 SCS Total Energy          =    -346.2297144722250550 [Eh]
	-----------------------------------------------------------

  Dipole Moment: [D]
     X:    -0.5609      Y:     1.1916      Z:     0.0363     Total:     1.3175

*** Psi4 exiting successfully. Buy a developer a beer!
