                               Psi4 1.3.2 release

  ==> Input File <==

--------------------------------------------------------------------------
#psi4
#
memory 32 gb

molecule  {
0 1
  C       -2.8859240     0.0139080     0.0157160
  C        1.4367670    -0.0149690     0.0041590
  C        0.8329615     1.2438317    -0.0027826
  C        0.7284570    -1.2193500    -0.0024690
  C       -0.6498160     1.2004800    -0.0088600
  C       -0.6636910    -1.1986650    -0.0089510
  C       -1.3793250     0.0073430    -0.0161260
  O        2.8101880    -0.0968780     0.0088050
  H        1.2936820     2.1410080    -0.0035900
  H        3.1696110     0.8075920     0.0126850
  H        1.2824350    -2.1540410    -0.0024010
  H       -1.1767190     2.1533030    -0.0171340
  H       -1.2060620    -2.1429340    -0.0174000
  H       -3.2954860    -0.8156320    -0.5681670
  H       -3.2834940     0.9453750    -0.3973120
  H       -3.2640020    -0.0839940     1.0392920
units angstrom
no_reorient  #important for SAPT in psi4, default
symmetry c1  #important for SAPT in psi4, default
}

set PROPERTIES_ORIGIN ["COM"]
properties('MP2/aug-cc-pvtz', properties = ['dipole'])
--------------------------------------------------------------------------

    Molecular point group: c1
  Charge       = 0
  Multiplicity = 1
  Basis Set: AUG-CC-PVTZ
    Blend: AUG-CC-PVTZ
  Basis Set: (AUG-CC-PVTZ AUX)
    Blend: AUG-CC-PVTZ-JKFIT

    Orbital Energies [Eh]
    ---------------------

    Doubly Occupied:

       1A    -20.584853     2A    -11.302208     3A    -11.247433
       4A    -11.240730     5A    -11.236195     6A    -11.234785
       7A    -11.231023     8A    -11.224178     9A     -1.396094
      10A     -1.142394    11A     -1.036808    12A     -1.011222
      13A     -0.924962    14A     -0.851584    15A     -0.798645
      16A     -0.726459    17A     -0.662112    18A     -0.659117
      19A     -0.610207    20A     -0.588011    21A     -0.586308
      22A     -0.571241    23A     -0.569271    24A     -0.529377
      25A     -0.503644    26A     -0.488863    27A     -0.464308
      28A     -0.333463    29A     -0.308722

  @DF-RHF Final Energy:  -344.70592499227200

   => Energetics <=

    Nuclear Repulsion Energy =            340.5517233325688835
    One-Electron Energy =               -1142.3868645424156512
    Two-Electron Energy =                 457.1292162175748217
    Total Energy =                       -344.7059249922720028
  Basis Set: (AUG-CC-PVTZ AUX)
    Blend: AUG-CC-PVTZ-RI
    Molecular point group: c1

    Geometry (in Angstrom), charge = 0, multiplicity = 1:

       Center              X                  Y                   Z               Mass
    ------------   -----------------  -----------------  -----------------  -----------------
         C           -2.954879219363     0.016696120418     0.016128699076    12.000000000000
         C            1.367811780637    -0.012180879582     0.004571699076    12.000000000000
         C            0.764006280637     1.246619820418    -0.002369900924    12.000000000000
         C            0.659501780637    -1.216561879582    -0.002056300924    12.000000000000
         C           -0.718771219363     1.203268120418    -0.008447300924    12.000000000000
         C           -0.732646219363    -1.195876879582    -0.008538300924    12.000000000000
         C           -1.448280219363     0.010131120418    -0.015713300924    12.000000000000
         O            2.741232780637    -0.094089879582     0.009217699076    15.994914619570
         H            1.224726780637     2.143796120418    -0.003177300924     1.007825032230
         H            3.100655780637     0.810380120418     0.013097699076     1.007825032230
         H            1.213479780637    -2.151252879582    -0.001988300924     1.007825032230
         H           -1.245674219363     2.156091120418    -0.016721300924     1.007825032230
         H           -1.275017219363    -2.140145879582    -0.016987300924     1.007825032230
         H           -3.364441219363    -0.812843879582    -0.567754300924     1.007825032230
         H           -3.352449219363     0.948163120418    -0.396899300924     1.007825032230
         H           -3.332957219363    -0.081205879582     1.039704699076     1.007825032230

  Basis Set: AUG-CC-PVTZ
    Blend: AUG-CC-PVTZ
  Basis Set: (AUG-CC-PVTZ AUX)
    Blend: AUG-CC-PVTZ-JKFIT
	 Reference Energy          =    -344.7059249922720028 [Eh]
	 Singles Energy            =      -0.0000000000000000 [Eh]
	 Same-Spin Energy          =      -0.3693446810573250 [Eh]
	 Opposite-Spin Energy      =      -1.1646096919401163 [Eh]
	 Correlation Energy        =      -1.5339543729974414 [Eh]
	 Total Energy              =    -346.2398793652694167 [Eh]

	 ================> DF-SCS-MP2 Energies <==================
	-----------------------------------------------------------
	 SCS Same-Spin Scale       =       0.3333333333333333 [-]
	 SCS Opposite-Spin Scale   =       1.2000000000000000 [-]
	 SCS Same-Spin Energy      =      -0.1231148936857750 [Eh]
	 SCS Opposite-Spin Energy  =      -1.3975316303281395 [Eh]
	 SCS Correlation Energy    =      -1.5206465240139146 [Eh]
	 SCS Total Energy          =    -346.2265715162859010 [Eh]
	-----------------------------------------------------------

  Dipole Moment: [D]
     X:    -0.5327      Y:     1.2248      Z:     0.0361     Total:     1.3361

*** Psi4 exiting successfully. Buy a developer a beer!
