                               Psi4 1.3.2 release

  ==> Input File <==

--------------------------------------------------------------------------
#psi4
#
memory 32 gb

molecule  {
0 1
  C       -2.8859240     0.0139080     0.0157160
  C        1.4367670    -0.0149690     0.0041590
  C        0.8772540     1.2641402    -0.0016130
  C        0.7284570    -1.2193500    -0.0024690
  C       -0.6498160     1.2004800    -0.0088600
  C       -0.6636910    -1.1986650    -0.0089510
  C       -1.3793250     0.0073430    -0.0161260
  O        2.8101880    -0.0968780     0.0088050
  H        1.2936820     2.1410080    -0.0035900
  H        3.1696110     0.8075920     0.0126850
  H        1.2824350    -2.1540410    -0.0024010
  H       -1.1767190     2.1533030    -0.0171340
  H       -1.2060620    -2.1429340    -0.0174000
  H       -3.2954860    -0.8156320    -0.5681670
  H       -3.2834940     0.9453750    -0.3973120
  H       -3.2640020    -0.0839940     1.0392920
units angstrom
no_reorient  #important for SAPT in psi4, default
symmetry c1  #important for SAPT in psi4, default
}

set PROPERTIES_ORIGIN ["COM"]
properties('MP2/aug-cc-pvtz', properties = ['dipole'])
--------------------------------------------------------------------------

    Molecular point group: c1
  Charge       = 0
  Multiplicity = 1
  Basis Set: AUG-CC-PVTZ
    Blend: AUG-CC-PVTZ
  Basis Set: (AUG-CC-PVTZ AUX)
    Blend: AUG-CC-PVTZ-JKFIT

    Orbital Energies [Eh]
    ---------------------

    Doubly Occupied:

       1A    -20.582519     2A    -11.303947     3A    -11.251315
       4A    -11.242726     5A    -11.236844     6A    -11.234834
       7A    -11.232124     8A    -11.224663     9A     -1.395364
      10A     -1.140007    11A     -1.036968    12A     -1.009236
      13A     -0.924481    14A     -0.855841    15A     -0.798447
      16A     -0.727032    17A     -0.669067    18A     -0.657974
      19A     -0.612349    20A     -0.587398    21A     -0.585487
      22A     -0.571069    23A     -0.567972    24A     -0.529029
      25A     -0.505944    26A     -0.483039    27A     -0.462096
      28A     -0.330096    29A     -0.310477

  @DF-RHF Final Energy:  -344.69015262789958

   => Energetics <=

    Nuclear Repulsion Energy =            340.0116537777442431
    One-Electron Energy =               -1141.2669248244628761
    Two-Electron Energy =                 456.5651184188191110
    Total Energy =                       -344.6901526278995789
  Basis Set: (AUG-CC-PVTZ AUX)
    Blend: AUG-CC-PVTZ-RI
    Molecular point group: c1

    Geometry (in Angstrom), charge = 0, multiplicity = 1:

       Center              X                  Y                   Z               Mass
    ------------   -----------------  -----------------  -----------------  -----------------
         C           -2.959797988785     0.014440821467     0.015998812691    12.000000000000
         C            1.362893011215    -0.014436178533     0.004441812691    12.000000000000
         C            0.803380011215     1.264673021467    -0.001330187309    12.000000000000
         C            0.654583011215    -1.218817178533    -0.002186187309    12.000000000000
         C           -0.723689988785     1.201012821467    -0.008577187309    12.000000000000
         C           -0.737564988785    -1.198132178533    -0.008668187309    12.000000000000
         C           -1.453198988785     0.007875821467    -0.015843187309    12.000000000000
         O            2.736314011215    -0.096345178533     0.009087812691    15.994914619570
         H            1.219808011215     2.141540821467    -0.003307187309     1.007825032230
         H            3.095737011215     0.808124821467     0.012967812691     1.007825032230
         H            1.208561011215    -2.153508178533    -0.002118187309     1.007825032230
         H           -1.250592988785     2.153835821467    -0.016851187309     1.007825032230
         H           -1.279935988785    -2.142401178533    -0.017117187309     1.007825032230
         H           -3.369359988785    -0.815099178533    -0.567884187309     1.007825032230
         H           -3.357367988785     0.945907821467    -0.397029187309     1.007825032230
         H           -3.337875988785    -0.083461178533     1.039574812691     1.007825032230

  Basis Set: AUG-CC-PVTZ
    Blend: AUG-CC-PVTZ
  Basis Set: (AUG-CC-PVTZ AUX)
    Blend: AUG-CC-PVTZ-JKFIT
	 Reference Energy          =    -344.6901526278995789 [Eh]
	 Singles Energy            =      -0.0000000000000000 [Eh]
	 Same-Spin Energy          =      -0.3693766020298225 [Eh]
	 Opposite-Spin Energy      =      -1.1655899864618289 [Eh]
	 Correlation Energy        =      -1.5349665884916512 [Eh]
	 Total Energy              =    -346.2251192163912492 [Eh]

	 ================> DF-SCS-MP2 Energies <==================
	-----------------------------------------------------------
	 SCS Same-Spin Scale       =       0.3333333333333333 [-]
	 SCS Opposite-Spin Scale   =       1.2000000000000000 [-]
	 SCS Same-Spin Energy      =      -0.1231255340099408 [Eh]
	 SCS Opposite-Spin Energy  =      -1.3987079837541947 [Eh]
	 SCS Correlation Energy    =      -1.5218335177641356 [Eh]
	 SCS Total Energy          =    -346.2119861456637295 [Eh]
	-----------------------------------------------------------

  Dipole Moment: [D]
     X:    -0.5733      Y:     1.1903      Z:     0.0350     Total:     1.3217

*** Psi4 exiting successfully. Buy a developer a beer!
