                               Psi4 1.3.2 release

  ==> Input File <==

--------------------------------------------------------------------------
#psi4
#
memory 32 gb

molecule  {
0 1
  C       -2.8859240     0.0139080     0.0157160
  C        1.4367670    -0.0149690     0.0041590
  C        0.7466220     1.1986450    -0.0028730
  C        0.7284570    -1.2193500    -0.0024690
  C       -0.6498160     1.2004800    -0.0088600
  C       -0.6636910    -1.1986650    -0.0089510
  C       -1.3793250     0.0073430    -0.0161260
  O        2.7103659    -0.0909247     0.0084673
  H        1.2936820     2.1410080    -0.0035900
  H        3.1696110     0.8075920     0.0126850
  H        1.2824350    -2.1540410    -0.0024010
  H       -1.1767190     2.1533030    -0.0171340
  H       -1.2060620    -2.1429340    -0.0174000
  H       -3.2954860    -0.8156320    -0.5681670
  H       -3.2834940     0.9453750    -0.3973120
  H       -3.2640020    -0.0839940     1.0392920
units angstrom
no_reorient  #important for SAPT in psi4, default
symmetry c1  #important for SAPT in psi4, default
}

set PROPERTIES_ORIGIN ["COM"]
properties('MP2/aug-cc-pvtz', properties = ['dipole'])
--------------------------------------------------------------------------

    Molecular point group: c1
  Charge       = 0
  Multiplicity = 1
  Basis Set: AUG-CC-PVTZ
    Blend: AUG-CC-PVTZ
  Basis Set: (AUG-CC-PVTZ AUX)
    Blend: AUG-CC-PVTZ-JKFIT

    Orbital Energies [Eh]
    ---------------------

    Doubly Occupied:

       1A    -20.597716     2A    -11.294414     3A    -11.234701
       4A    -11.233247     5A    -11.226699     6A    -11.225644
       7A    -11.220459     8A    -11.218710     9A     -1.440132
      10A     -1.142579    11A     -1.030235    12A     -1.012709
      13A     -0.923072    14A     -0.847991    15A     -0.806152
      16A     -0.740145    17A     -0.675354    18A     -0.641836
      19A     -0.614510    20A     -0.601059    21A     -0.582023
      22A     -0.574566    23A     -0.568029    24A     -0.523629
      25A     -0.500163    26A     -0.480046    27A     -0.464157
      28A     -0.337246    29A     -0.293539

  @DF-RHF Final Energy:  -344.71093277564745

   => Energetics <=

    Nuclear Repulsion Energy =            344.5628898856111277
    One-Electron Energy =               -1150.4461175646806623
    Two-Electron Energy =                 461.1722949034220278
    Total Energy =                       -344.7109327756474499
  Basis Set: (AUG-CC-PVTZ AUX)
    Blend: AUG-CC-PVTZ-RI
    Molecular point group: c1

    Geometry (in Angstrom), charge = 0, multiplicity = 1:

       Center              X                  Y                   Z               Mass
    ------------   -----------------  -----------------  -----------------  -----------------
         C           -2.930515157598     0.020832971754     0.016188725282    12.000000000000
         C            1.392175842402    -0.008044028246     0.004631725282    12.000000000000
         C            0.702030842402     1.205569971754    -0.002400274718    12.000000000000
         C            0.683865842402    -1.212425028246    -0.001996274718    12.000000000000
         C           -0.694407157598     1.207404971754    -0.008387274718    12.000000000000
         C           -0.708282157598    -1.191740028246    -0.008478274718    12.000000000000
         C           -1.423916157598     0.014267971754    -0.015653274718    12.000000000000
         O            2.665774742402    -0.083999728246     0.008940025282    15.994914619570
         H            1.249090842402     2.147932971754    -0.003117274718     1.007825032230
         H            3.125019842402     0.814516971754     0.013157725282     1.007825032230
         H            1.237843842402    -2.147116028246    -0.001928274718     1.007825032230
         H           -1.221310157598     2.160227971754    -0.016661274718     1.007825032230
         H           -1.250653157598    -2.136009028246    -0.016927274718     1.007825032230
         H           -3.340077157598    -0.808707028246    -0.567694274718     1.007825032230
         H           -3.328085157598     0.952299971754    -0.396839274718     1.007825032230
         H           -3.308593157598    -0.077069028246     1.039764725282     1.007825032230

  Basis Set: AUG-CC-PVTZ
    Blend: AUG-CC-PVTZ
  Basis Set: (AUG-CC-PVTZ AUX)
    Blend: AUG-CC-PVTZ-JKFIT
	 Reference Energy          =    -344.7109327756474499 [Eh]
	 Singles Energy            =      -0.0000000000000000 [Eh]
	 Same-Spin Energy          =      -0.3698863544348760 [Eh]
	 Opposite-Spin Energy      =      -1.1626740967067017 [Eh]
	 Correlation Energy        =      -1.5325604511415778 [Eh]
	 Total Energy              =    -346.2434932267890417 [Eh]

	 ================> DF-SCS-MP2 Energies <==================
	-----------------------------------------------------------
	 SCS Same-Spin Scale       =       0.3333333333333333 [-]
	 SCS Opposite-Spin Scale   =       1.2000000000000000 [-]
	 SCS Same-Spin Energy      =      -0.1232954514782920 [Eh]
	 SCS Opposite-Spin Energy  =      -1.3952089160480421 [Eh]
	 SCS Correlation Energy    =      -1.5185043675263341 [Eh]
	 SCS Total Energy          =    -346.2294371431738114 [Eh]
	-----------------------------------------------------------

  Dipole Moment: [D]
     X:     0.3446      Y:     1.2769      Z:     0.0392     Total:     1.3231

*** Psi4 exiting successfully. Buy a developer a beer!
