                               Psi4 1.3.2 release

  ==> Input File <==

--------------------------------------------------------------------------
#psi4
#
memory 32 gb

molecule  {
0 1
  C       -2.8859240     0.0139080     0.0157160
  C        1.4367670    -0.0149690     0.0041590
  C        0.7466220     1.1986450    -0.0028730
  C        0.7284570    -1.2193500    -0.0024690
  C       -0.6498160     1.2004800    -0.0088600
  C       -0.6636910    -1.1986650    -0.0089510
  C       -1.4836521    -0.1632875    -0.0171651
  O        2.8101880    -0.0968780     0.0088050
  H        1.2936820     2.1410080    -0.0035900
  H        3.1696110     0.8075920     0.0126850
  H        1.2824350    -2.1540410    -0.0024010
  H       -1.1767190     2.1533030    -0.0171340
  H       -1.2060620    -2.1429340    -0.0174000
  H       -3.2954860    -0.8156320    -0.5681670
  H       -3.2834940     0.9453750    -0.3973120
  H       -3.2640020    -0.0839940     1.0392920
units angstrom
no_reorient  #important for SAPT in psi4, default
symmetry c1  #important for SAPT in psi4, default
}

set PROPERTIES_ORIGIN ["COM"]
properties('MP2/aug-cc-pvtz', properties = ['dipole'])
--------------------------------------------------------------------------

    Molecular point group: c1
  Charge       = 0
  Multiplicity = 1
  Basis Set: AUG-CC-PVTZ
    Blend: AUG-CC-PVTZ
  Basis Set: (AUG-CC-PVTZ AUX)
    Blend: AUG-CC-PVTZ-JKFIT

    Orbital Energies [Eh]
    ---------------------

    Doubly Occupied:

       1A    -20.590517     2A    -11.300557     3A    -11.255329
       4A    -11.241578     5A    -11.238892     6A    -11.225691
       7A    -11.224026     8A    -11.223156     9A     -1.398465
      10A     -1.144255    11A     -1.054905    12A     -1.012112
      13A     -0.934218    14A     -0.836460    15A     -0.799700
      16A     -0.724229    17A     -0.663738    18A     -0.651145
      19A     -0.606967    20A     -0.591411    21A     -0.585615
      22A     -0.579562    23A     -0.572560    24A     -0.553030
      25A     -0.517588    26A     -0.463506    27A     -0.444399
      28A     -0.348535    29A     -0.293782

  @DF-RHF Final Energy:  -344.67553797143671

   => Energetics <=

    Nuclear Repulsion Energy =            340.8804110507987843
    One-Electron Energy =               -1142.9600437273638818
    Two-Electron Energy =                 457.4040947051283865
    Total Energy =                       -344.6755379714367109
  Basis Set: (AUG-CC-PVTZ AUX)
    Blend: AUG-CC-PVTZ-RI
    Molecular point group: c1

    Geometry (in Angstrom), charge = 0, multiplicity = 1:

       Center              X                  Y                   Z               Mass
    ------------   -----------------  -----------------  -----------------  -----------------
         C           -2.933705317644     0.040663045837     0.016254132277    12.000000000000
         C            1.388985682356     0.011786045837     0.004697132277    12.000000000000
         C            0.698840682356     1.225400045837    -0.002334867723    12.000000000000
         C            0.680675682356    -1.192594954163    -0.001930867723    12.000000000000
         C           -0.697597317644     1.227235045837    -0.008321867723    12.000000000000
         C           -0.711472317644    -1.171909954163    -0.008412867723    12.000000000000
         C           -1.531433417644    -0.136532454163    -0.016626967723    12.000000000000
         O            2.762406682356    -0.070122954163     0.009343132277    15.994914619570
         H            1.245900682356     2.167763045837    -0.003051867723     1.007825032230
         H            3.121829682356     0.834347045837     0.013223132277     1.007825032230
         H            1.234653682356    -2.127285954163    -0.001862867723     1.007825032230
         H           -1.224500317644     2.180058045837    -0.016595867723     1.007825032230
         H           -1.253843317644    -2.116178954163    -0.016861867723     1.007825032230
         H           -3.343267317644    -0.788876954163    -0.567628867723     1.007825032230
         H           -3.331275317644     0.972130045837    -0.396773867723     1.007825032230
         H           -3.311783317644    -0.057238954163     1.039830132277     1.007825032230

  Basis Set: AUG-CC-PVTZ
    Blend: AUG-CC-PVTZ
  Basis Set: (AUG-CC-PVTZ AUX)
    Blend: AUG-CC-PVTZ-JKFIT
	 Reference Energy          =    -344.6755379714367109 [Eh]
	 Singles Energy            =      -0.0000000000000000 [Eh]
	 Same-Spin Energy          =      -0.3704542559279191 [Eh]
	 Opposite-Spin Energy      =      -1.1673198859070537 [Eh]
	 Correlation Energy        =      -1.5377741418349729 [Eh]
	 Total Energy              =    -346.2133121132716838 [Eh]

	 ================> DF-SCS-MP2 Energies <==================
	-----------------------------------------------------------
	 SCS Same-Spin Scale       =       0.3333333333333333 [-]
	 SCS Opposite-Spin Scale   =       1.2000000000000000 [-]
	 SCS Same-Spin Energy      =      -0.1234847519759730 [Eh]
	 SCS Opposite-Spin Energy  =      -1.4007838630884644 [Eh]
	 SCS Correlation Energy    =      -1.5242686150644373 [Eh]
	 SCS Total Energy          =    -346.1998065865011540 [Eh]
	-----------------------------------------------------------

  Dipole Moment: [D]
     X:    -0.6342      Y:     1.4069      Z:     0.0471     Total:     1.5439

*** Psi4 exiting successfully. Buy a developer a beer!
