                               Psi4 1.3.2 release

  ==> Input File <==

--------------------------------------------------------------------------
#psi4
#
memory 32 gb

molecule  {
0 1
  C       -2.8859240     0.0139080     0.0157160
  C        1.4367670    -0.0149690     0.0041590
  C        0.7046899     1.1738187    -0.0032766
  C        0.7284570    -1.2193500    -0.0024690
  C       -0.6498160     1.2004800    -0.0088600
  C       -0.6636910    -1.1986650    -0.0089510
  C       -1.3793250     0.0073430    -0.0161260
  O        2.8101880    -0.0968780     0.0088050
  H        1.2936820     2.1410080    -0.0035900
  H        3.1696110     0.8075920     0.0126850
  H        1.2824350    -2.1540410    -0.0024010
  H       -1.1767190     2.1533030    -0.0171340
  H       -1.2060620    -2.1429340    -0.0174000
  H       -3.2954860    -0.8156320    -0.5681670
  H       -3.2834940     0.9453750    -0.3973120
  H       -3.2640020    -0.0839940     1.0392920
units angstrom
no_reorient  #important for SAPT in psi4, default
symmetry c1  #important for SAPT in psi4, default
}

set PROPERTIES_ORIGIN ["COM"]
properties('MP2/aug-cc-pvtz', properties = ['dipole'])
--------------------------------------------------------------------------

    Molecular point group: c1
  Charge       = 0
  Multiplicity = 1
  Basis Set: AUG-CC-PVTZ
    Blend: AUG-CC-PVTZ
  Basis Set: (AUG-CC-PVTZ AUX)
    Blend: AUG-CC-PVTZ-JKFIT

    Orbital Energies [Eh]
    ---------------------

    Doubly Occupied:

       1A    -20.591836     2A    -11.299255     3A    -11.235992
       4A    -11.235724     5A    -11.234689     6A    -11.233368
       7A    -11.228448     8A    -11.223052     9A     -1.398797
      10A     -1.153608    11A     -1.036621    12A     -1.020595
      13A     -0.927094    14A     -0.840406    15A     -0.802234
      16A     -0.728714    17A     -0.674110    18A     -0.636498
      19A     -0.603027    20A     -0.589710    21A     -0.584037
      22A     -0.577201    23A     -0.570460    24A     -0.532536
      25A     -0.505224    26A     -0.480902    27A     -0.473715
      28A     -0.345195    29A     -0.304142

  @DF-RHF Final Energy:  -344.71577926940432

   => Energetics <=

    Nuclear Repulsion Energy =            342.4124117109484473
    One-Electron Energy =               -1146.1219978876683854
    Two-Electron Energy =                 458.9938069073156726
    Total Energy =                       -344.7157792694043223
  Basis Set: (AUG-CC-PVTZ AUX)
    Blend: AUG-CC-PVTZ-RI
    Molecular point group: c1

    Geometry (in Angstrom), charge = 0, multiplicity = 1:

       Center              X                  Y                   Z               Mass
    ------------   -----------------  -----------------  -----------------  -----------------
         C           -2.940634405370     0.024471202058     0.016183558750    12.000000000000
         C            1.382056594630    -0.004405797942     0.004626558750    12.000000000000
         C            0.649979494630     1.184381902058    -0.002809041250    12.000000000000
         C            0.673746594630    -1.208786797942    -0.002001441250    12.000000000000
         C           -0.704526405370     1.211043202058    -0.008392441250    12.000000000000
         C           -0.718401405370    -1.188101797942    -0.008483441250    12.000000000000
         C           -1.434035405370     0.017906202058    -0.015658441250    12.000000000000
         O            2.755477594630    -0.086314797942     0.009272558750    15.994914619570
         H            1.238971594630     2.151571202058    -0.003122441250     1.007825032230
         H            3.114900594630     0.818155202058     0.013152558750     1.007825032230
         H            1.227724594630    -2.143477797942    -0.001933441250     1.007825032230
         H           -1.231429405370     2.163866202058    -0.016666441250     1.007825032230
         H           -1.260772405370    -2.132370797942    -0.016932441250     1.007825032230
         H           -3.350196405370    -0.805068797942    -0.567699441250     1.007825032230
         H           -3.338204405370     0.955938202058    -0.396844441250     1.007825032230
         H           -3.318712405370    -0.073430797942     1.039759558750     1.007825032230

  Basis Set: AUG-CC-PVTZ
    Blend: AUG-CC-PVTZ
  Basis Set: (AUG-CC-PVTZ AUX)
    Blend: AUG-CC-PVTZ-JKFIT
	 Reference Energy          =    -344.7157792694043223 [Eh]
	 Singles Energy            =      -0.0000000000000000 [Eh]
	 Same-Spin Energy          =      -0.3697615703795982 [Eh]
	 Opposite-Spin Energy      =      -1.1638337848211371 [Eh]
	 Correlation Energy        =      -1.5335953552007353 [Eh]
	 Total Energy              =    -346.2493746246050819 [Eh]

	 ================> DF-SCS-MP2 Energies <==================
	-----------------------------------------------------------
	 SCS Same-Spin Scale       =       0.3333333333333333 [-]
	 SCS Opposite-Spin Scale   =       1.2000000000000000 [-]
	 SCS Same-Spin Energy      =      -0.1232538567931994 [Eh]
	 SCS Opposite-Spin Energy  =      -1.3966005417853644 [Eh]
	 SCS Correlation Energy    =      -1.5198543985785637 [Eh]
	 SCS Total Energy          =    -346.2356336679828814 [Eh]
	-----------------------------------------------------------

  Dipole Moment: [D]
     X:    -0.4572      Y:     1.2708      Z:     0.0375     Total:     1.3511

*** Psi4 exiting successfully. Buy a developer a beer!
