                               Psi4 1.3.2 release

  ==> Input File <==

--------------------------------------------------------------------------
#psi4
#
memory 32 gb

molecule  {
0 1
  C       -2.8859240     0.0139080     0.0157160
  C        1.4367670    -0.0149690     0.0041590
  C        0.7466220     1.1986450    -0.0028730
  C        0.7284570    -1.2193500    -0.0024690
  C       -0.6498160     1.2004800    -0.0088600
  C       -0.6636910    -1.1986650    -0.0089510
  C       -1.2793483     0.0069074    -0.0182390
  O        2.8101880    -0.0968780     0.0088050
  H        1.2936820     2.1410080    -0.0035900
  H        3.1696110     0.8075920     0.0126850
  H        1.2824350    -2.1540410    -0.0024010
  H       -1.1767190     2.1533030    -0.0171340
  H       -1.2060620    -2.1429340    -0.0174000
  H       -3.2954860    -0.8156320    -0.5681670
  H       -3.2834940     0.9453750    -0.3973120
  H       -3.2640020    -0.0839940     1.0392920
units angstrom
no_reorient  #important for SAPT in psi4, default
symmetry c1  #important for SAPT in psi4, default
}

set PROPERTIES_ORIGIN ["COM"]
properties('MP2/aug-cc-pvtz', properties = ['dipole'])
--------------------------------------------------------------------------

    Molecular point group: c1
  Charge       = 0
  Multiplicity = 1
  Basis Set: AUG-CC-PVTZ
    Blend: AUG-CC-PVTZ
  Basis Set: (AUG-CC-PVTZ AUX)
    Blend: AUG-CC-PVTZ-JKFIT

    Orbital Energies [Eh]
    ---------------------

    Doubly Occupied:

       1A    -20.588654     2A    -11.298596     3A    -11.235722
       4A    -11.233695     5A    -11.232563     6A    -11.229688
       7A    -11.229367     8A    -11.224386     9A     -1.397155
      10A     -1.159185    11A     -1.026644    12A     -1.022750
      13A     -0.921040    14A     -0.849866    15A     -0.802936
      16A     -0.729939    17A     -0.671260    18A     -0.637409
      19A     -0.609189    20A     -0.594831    21A     -0.588197
      22A     -0.571955    23A     -0.562724    24A     -0.530145
      25A     -0.501006    26A     -0.479066    27A     -0.470651
      28A     -0.342980    29A     -0.312334

  @DF-RHF Final Energy:  -344.70918072114159

   => Energetics <=

    Nuclear Repulsion Energy =            342.8121119781386028
    One-Electron Energy =               -1146.9347159242611269
    Two-Electron Energy =                 459.4134232249809884
    Total Energy =                       -344.7091807211415926
  Basis Set: (AUG-CC-PVTZ AUX)
    Blend: AUG-CC-PVTZ-RI
    Molecular point group: c1

    Geometry (in Angstrom), charge = 0, multiplicity = 1:

       Center              X                  Y                   Z               Mass
    ------------   -----------------  -----------------  -----------------  -----------------
         C           -2.956393657301     0.021762566751     0.016373390989    12.000000000000
         C            1.366297342699    -0.007114433249     0.004816390989    12.000000000000
         C            0.676152342699     1.206499566751    -0.002215609011    12.000000000000
         C            0.657987342699    -1.211495433249    -0.001811609011    12.000000000000
         C           -0.720285657301     1.208334566751    -0.008202609011    12.000000000000
         C           -0.734160657301    -1.190810433249    -0.008293609011    12.000000000000
         C           -1.349817957301     0.014761966751    -0.017581609011    12.000000000000
         O            2.739718342699    -0.089023433249     0.009462390989    15.994914619570
         H            1.223212342699     2.148862566751    -0.002932609011     1.007825032230
         H            3.099141342699     0.815446566751     0.013342390989     1.007825032230
         H            1.211965342699    -2.146186433249    -0.001743609011     1.007825032230
         H           -1.247188657301     2.161157566751    -0.016476609011     1.007825032230
         H           -1.276531657301    -2.135079433249    -0.016742609011     1.007825032230
         H           -3.365955657301    -0.807777433249    -0.567509609011     1.007825032230
         H           -3.353963657301     0.953229566751    -0.396654609011     1.007825032230
         H           -3.334471657301    -0.076139433249     1.039949390989     1.007825032230

  Basis Set: AUG-CC-PVTZ
    Blend: AUG-CC-PVTZ
  Basis Set: (AUG-CC-PVTZ AUX)
    Blend: AUG-CC-PVTZ-JKFIT
	 Reference Energy          =    -344.7091807211415926 [Eh]
	 Singles Energy            =      -0.0000000000000000 [Eh]
	 Same-Spin Energy          =      -0.3692561205711574 [Eh]
	 Opposite-Spin Energy      =      -1.1633488471231037 [Eh]
	 Correlation Energy        =      -1.5326049676942612 [Eh]
	 Total Energy              =    -346.2417856888358756 [Eh]

	 ================> DF-SCS-MP2 Energies <==================
	-----------------------------------------------------------
	 SCS Same-Spin Scale       =       0.3333333333333333 [-]
	 SCS Opposite-Spin Scale   =       1.2000000000000000 [-]
	 SCS Same-Spin Energy      =      -0.1230853735237191 [Eh]
	 SCS Opposite-Spin Energy  =      -1.3960186165477244 [Eh]
	 SCS Correlation Energy    =      -1.5191039900714436 [Eh]
	 SCS Total Energy          =    -346.2282847112130639 [Eh]
	-----------------------------------------------------------

  Dipole Moment: [D]
     X:    -0.3557      Y:     1.2654      Z:     0.0293     Total:     1.3148

*** Psi4 exiting successfully. Buy a developer a beer!
