                               Psi4 1.4a3.dev225

  ==> Input File <==

--------------------------------------------------------------------------
#psi4
#
memory 32 gb

molecule  {
0 1
  C       -2.8858990     0.0139170     0.0160750
  C        1.4367690    -0.0149750     0.0043080
  C        0.7466060     1.1986420    -0.0030770
  C        0.7284530    -1.2193540    -0.0027000
  C       -0.6498220     1.2004800    -0.0089530
  C       -0.6636960    -1.1986710    -0.0090440
  C       -1.3897556    -0.0097291    -0.0166607
  O        2.8101740    -0.0968660     0.0091650
  H        1.2936780     2.1410060    -0.0034030
  H        3.1695990     0.8076070     0.0120990
  H        1.2824160    -2.1540570    -0.0024590
  H       -1.1767200     2.1533030    -0.0175850
  H       -1.2060630    -2.1429390    -0.0178450
  H       -3.2957090    -0.8164640    -0.5664260
  H       -3.2836900     0.9448070    -0.3980300
  H       -3.2634270    -0.0825680     1.0399950
units angstrom
no_reorient  #important for SAPT in psi4, default
symmetry c1  #important for SAPT in psi4, default
}

set PROPERTIES_ORIGIN ["COM"]
properties('MP2/aug-cc-pvtz', properties = ['dipole'])
--------------------------------------------------------------------------

    Molecular point group: c1
  Charge       = 0
  Multiplicity = 1
  Basis Set: AUG-CC-PVTZ
    Blend: AUG-CC-PVTZ
  Basis Set: (AUG-CC-PVTZ AUX)
    Blend: AUG-CC-PVTZ-JKFIT

    Orbital Energies [Eh]
    ---------------------

    Doubly Occupied:

       1A    -20.589592     2A    -11.299861     3A    -11.241047
       4A    -11.236421     5A    -11.235679     6A    -11.235157
       7A    -11.228664     8A    -11.223154     9A     -1.397879
      10A     -1.148239    11A     -1.038026    12A     -1.016397
      13A     -0.926818    14A     -0.842501    15A     -0.801187
      16A     -0.727182    17A     -0.669179    18A     -0.643345
      19A     -0.604843    20A     -0.588497    21A     -0.586248
      22A     -0.574836    23A     -0.571158    24A     -0.532108
      25A     -0.506067    26A     -0.485533    27A     -0.469190
      28A     -0.341180    29A     -0.304396

  @DF-RHF Final Energy:  -344.71809896611876

   => Energetics <=

    Nuclear Repulsion Energy =            341.6523538173232168
    One-Electron Energy =               -1144.6121361324931058
    Two-Electron Energy =                 458.2416833490510726
    Total Energy =                       -344.7180989661187596
  Basis Set: (AUG-CC-PVTZ AUX)
    Blend: AUG-CC-PVTZ-RI
    Molecular point group: c1

    Geometry (in Angstrom), charge = 0, multiplicity = 1:

       Center              X                  Y                   Z               Mass
    ------------   -----------------  -----------------  -----------------  -----------------
         C           -2.944106302396     0.023618249237     0.016512899656    12.000000000000
         C            1.378561697604    -0.005273750763     0.004745899656    12.000000000000
         C            0.688398697604     1.208343249237    -0.002639100344    12.000000000000
         C            0.670245697604    -1.209652750763    -0.002262100344    12.000000000000
         C           -0.708029302396     1.210181249237    -0.008515100344    12.000000000000
         C           -0.721903302396    -1.188969750763    -0.008606100344    12.000000000000
         C           -1.447962902396    -0.000027850763    -0.016222800344    12.000000000000
         O            2.751966697604    -0.087164750763     0.009602899656    15.994914619570
         H            1.235470697604     2.150707249237    -0.002965100344     1.007825032230
         H            3.111391697604     0.817308249237     0.012536899656     1.007825032230
         H            1.224208697604    -2.144355750763    -0.002021100344     1.007825032230
         H           -1.234927302396     2.163004249237    -0.017147100344     1.007825032230
         H           -1.264270302396    -2.133237750763    -0.017407100344     1.007825032230
         H           -3.353916302396    -0.806762750763    -0.565988100344     1.007825032230
         H           -3.341897302396     0.954508249237    -0.397592100344     1.007825032230
         H           -3.321634302396    -0.072866750763     1.040432899656     1.007825032230

  Basis Set: AUG-CC-PVTZ
    Blend: AUG-CC-PVTZ
  Basis Set: (AUG-CC-PVTZ AUX)
    Blend: AUG-CC-PVTZ-JKFIT
	 Reference Energy          =    -344.7180989661187596 [Eh]
	 Singles Energy            =      -0.0000000000000000 [Eh]
	 Same-Spin Energy          =      -0.3696641786517844 [Eh]
	 Opposite-Spin Energy      =      -1.1639152674290039 [Eh]
	 Correlation Energy        =      -1.5335794460807883 [Eh]
	 Total Energy              =    -346.2516784121995670 [Eh]

	 ================> DF-SCS-MP2 Energies <==================
	-----------------------------------------------------------
	 SCS Same-Spin Scale       =       0.3333333333333333 [-]
	 SCS Opposite-Spin Scale   =       1.2000000000000000 [-]
	 SCS Same-Spin Energy      =      -0.1232213928839281 [Eh]
	 SCS Opposite-Spin Energy  =      -1.3966983209148045 [Eh]
	 SCS Correlation Energy    =      -1.5199197137987326 [Eh]
	 SCS Total Energy          =    -346.2380186799175021 [Eh]
	-----------------------------------------------------------

  Dipole Moment: [D]
     X:    -0.4862      Y:     1.2824      Z:     0.0369     Total:     1.3719

*** Psi4 exiting successfully. Buy a developer a beer!
