                               Psi4 1.3.2 release

  ==> Input File <==

--------------------------------------------------------------------------
#psi4
#
memory 32 gb

molecule  {
0 1
  C       -2.8859240     0.0139080     0.0157160
  C        1.4367670    -0.0149690     0.0041590
  C        0.6636449     1.1475457    -0.0029291
  C        0.7284570    -1.2193500    -0.0024690
  C       -0.6498160     1.2004800    -0.0088600
  C       -0.6636910    -1.1986650    -0.0089510
  C       -1.3793250     0.0073430    -0.0161260
  O        2.8101880    -0.0968780     0.0088050
  H        1.2936820     2.1410080    -0.0035900
  H        3.1696110     0.8075920     0.0126850
  H        1.2824350    -2.1540410    -0.0024010
  H       -1.1767190     2.1533030    -0.0171340
  H       -1.2060620    -2.1429340    -0.0174000
  H       -3.2954860    -0.8156320    -0.5681670
  H       -3.2834940     0.9453750    -0.3973120
  H       -3.2640020    -0.0839940     1.0392920
units angstrom
no_reorient  #important for SAPT in psi4, default
symmetry c1  #important for SAPT in psi4, default
}

set PROPERTIES_ORIGIN ["COM"]
properties('MP2/aug-cc-pvtz', properties = ['dipole'])
--------------------------------------------------------------------------

    Molecular point group: c1
  Charge       = 0
  Multiplicity = 1
  Basis Set: AUG-CC-PVTZ
    Blend: AUG-CC-PVTZ
  Basis Set: (AUG-CC-PVTZ AUX)
    Blend: AUG-CC-PVTZ-JKFIT

    Orbital Energies [Eh]
    ---------------------

    Doubly Occupied:

       1A    -20.594081     2A    -11.299043     3A    -11.236308
       4A    -11.235278     5A    -11.233535     6A    -11.228941
       7A    -11.227935     8A    -11.222878     9A     -1.399782
      10A     -1.158969    11A     -1.036720    12A     -1.024778
      13A     -0.928033    14A     -0.837336    15A     -0.804003
      16A     -0.730461    17A     -0.678307    18A     -0.632313
      19A     -0.602807    20A     -0.591159    21A     -0.581318
      22A     -0.577751    23A     -0.570576    24A     -0.533705
      25A     -0.506353    26A     -0.477974    27A     -0.472277
      28A     -0.349507    29A     -0.302984

  @DF-RHF Final Energy:  -344.70614796180502

   => Energetics <=

    Nuclear Repulsion Energy =            343.1104982435761031
    One-Electron Energy =               -1147.4830653914395953
    Two-Electron Energy =                 459.6664191860584765
    Total Energy =                       -344.7061479618050157
  Basis Set: (AUG-CC-PVTZ AUX)
    Blend: AUG-CC-PVTZ-RI
    Molecular point group: c1

    Geometry (in Angstrom), charge = 0, multiplicity = 1:

       Center              X                  Y                   Z               Mass
    ------------   -----------------  -----------------  -----------------  -----------------
         C           -2.936076277223     0.027388870490     0.016144968190    12.000000000000
         C            1.386614722777    -0.001488129510     0.004587968190    12.000000000000
         C            0.613492622777     1.161026570490    -0.002500131810    12.000000000000
         C            0.678304722777    -1.205869129510    -0.002040031810    12.000000000000
         C           -0.699968277223     1.213960870490    -0.008431031810    12.000000000000
         C           -0.713843277223    -1.185184129510    -0.008522031810    12.000000000000
         C           -1.429477277223     0.020823870490    -0.015697031810    12.000000000000
         O            2.760035722777    -0.083397129510     0.009233968190    15.994914619570
         H            1.243529722777     2.154488870490    -0.003161031810     1.007825032230
         H            3.119458722777     0.821072870490     0.013113968190     1.007825032230
         H            1.232282722777    -2.140560129510    -0.001972031810     1.007825032230
         H           -1.226871277223     2.166783870490    -0.016705031810     1.007825032230
         H           -1.256214277223    -2.129453129510    -0.016971031810     1.007825032230
         H           -3.345638277223    -0.802151129510    -0.567738031810     1.007825032230
         H           -3.333646277223     0.958855870490    -0.396883031810     1.007825032230
         H           -3.314154277223    -0.070513129510     1.039720968190     1.007825032230

  Basis Set: AUG-CC-PVTZ
    Blend: AUG-CC-PVTZ
  Basis Set: (AUG-CC-PVTZ AUX)
    Blend: AUG-CC-PVTZ-JKFIT
	 Reference Energy          =    -344.7061479618050157 [Eh]
	 Singles Energy            =      -0.0000000000000000 [Eh]
	 Same-Spin Energy          =      -0.3700579701716359 [Eh]
	 Opposite-Spin Energy      =      -1.1642720697319358 [Eh]
	 Correlation Energy        =      -1.5343300399035718 [Eh]
	 Total Energy              =    -346.2404780017085955 [Eh]

	 ================> DF-SCS-MP2 Energies <==================
	-----------------------------------------------------------
	 SCS Same-Spin Scale       =       0.3333333333333333 [-]
	 SCS Opposite-Spin Scale   =       1.2000000000000000 [-]
	 SCS Same-Spin Energy      =      -0.1233526567238786 [Eh]
	 SCS Opposite-Spin Energy  =      -1.3971264836783228 [Eh]
	 SCS Correlation Energy    =      -1.5204791404022013 [Eh]
	 SCS Total Energy          =    -346.2266271022072033 [Eh]
	-----------------------------------------------------------

  Dipole Moment: [D]
     X:    -0.4540      Y:     1.2614      Z:     0.0377     Total:     1.3412

*** Psi4 exiting successfully. Buy a developer a beer!
