                               Psi4 1.3.2 release

  ==> Input File <==

--------------------------------------------------------------------------
#psi4
#
memory 32 gb

molecule  {
0 1
  C       -2.8859240     0.0139080     0.0157160
  C        1.4367670    -0.0149690     0.0041590
  C        0.8772612     1.2641379    -0.0027247
  C        0.7284570    -1.2193500    -0.0024690
  C       -0.6498160     1.2004800    -0.0088600
  C       -0.6636910    -1.1986650    -0.0089510
  C       -1.3793250     0.0073430    -0.0161260
  O        2.8101880    -0.0968780     0.0088050
  H        1.2936820     2.1410080    -0.0035900
  H        3.1696110     0.8075920     0.0126850
  H        1.2824350    -2.1540410    -0.0024010
  H       -1.1767190     2.1533030    -0.0171340
  H       -1.2060620    -2.1429340    -0.0174000
  H       -3.2954860    -0.8156320    -0.5681670
  H       -3.2834940     0.9453750    -0.3973120
  H       -3.2640020    -0.0839940     1.0392920
units angstrom
no_reorient  #important for SAPT in psi4, default
symmetry c1  #important for SAPT in psi4, default
}

set PROPERTIES_ORIGIN ["COM"]
properties('MP2/aug-cc-pvtz', properties = ['dipole'])
--------------------------------------------------------------------------

    Molecular point group: c1
  Charge       = 0
  Multiplicity = 1
  Basis Set: AUG-CC-PVTZ
    Blend: AUG-CC-PVTZ
  Basis Set: (AUG-CC-PVTZ AUX)
    Blend: AUG-CC-PVTZ-JKFIT

    Orbital Energies [Eh]
    ---------------------

    Doubly Occupied:

       1A    -20.582518     2A    -11.303947     3A    -11.251314
       4A    -11.242726     5A    -11.236844     6A    -11.234834
       7A    -11.232124     8A    -11.224662     9A     -1.395363
      10A     -1.140007    11A     -1.036967    12A     -1.009236
      13A     -0.924481    14A     -0.855840    15A     -0.798447
      16A     -0.727032    17A     -0.669067    18A     -0.657974
      19A     -0.612349    20A     -0.587389    21A     -0.585496
      22A     -0.571065    23A     -0.567975    24A     -0.529029
      25A     -0.505944    26A     -0.483037    27A     -0.462096
      28A     -0.330095    29A     -0.310477

  @DF-RHF Final Energy:  -344.69015069102045

   => Energetics <=

    Nuclear Repulsion Energy =            340.0116459054079883
    One-Electron Energy =               -1141.2669215461378371
    Two-Electron Energy =                 456.5651249497094568
    Total Energy =                       -344.6901506910204489
  Basis Set: (AUG-CC-PVTZ AUX)
    Blend: AUG-CC-PVTZ-RI
    Molecular point group: c1

    Geometry (in Angstrom), charge = 0, multiplicity = 1:

       Center              X                  Y                   Z               Mass
    ------------   -----------------  -----------------  -----------------  -----------------
         C           -2.959798788359     0.014441076886     0.016122269167    12.000000000000
         C            1.362892211641    -0.014435923114     0.004565269167    12.000000000000
         C            0.803386411641     1.264670976886    -0.002318430833    12.000000000000
         C            0.654582211641    -1.218816923114    -0.002062730833    12.000000000000
         C           -0.723690788359     1.201013076886    -0.008453730833    12.000000000000
         C           -0.737565788359    -1.198131923114    -0.008544730833    12.000000000000
         C           -1.453199788359     0.007876076886    -0.015719730833    12.000000000000
         O            2.736313211641    -0.096344923114     0.009211269167    15.994914619570
         H            1.219807211641     2.141541076886    -0.003183730833     1.007825032230
         H            3.095736211641     0.808125076886     0.013091269167     1.007825032230
         H            1.208560211641    -2.153507923114    -0.001994730833     1.007825032230
         H           -1.250593788359     2.153836076886    -0.016727730833     1.007825032230
         H           -1.279936788359    -2.142400923114    -0.016993730833     1.007825032230
         H           -3.369360788359    -0.815098923114    -0.567760730833     1.007825032230
         H           -3.357368788359     0.945908076886    -0.396905730833     1.007825032230
         H           -3.337876788359    -0.083460923114     1.039698269167     1.007825032230

  Basis Set: AUG-CC-PVTZ
    Blend: AUG-CC-PVTZ
  Basis Set: (AUG-CC-PVTZ AUX)
    Blend: AUG-CC-PVTZ-JKFIT
	 Reference Energy          =    -344.6901506910204489 [Eh]
	 Singles Energy            =      -0.0000000000000000 [Eh]
	 Same-Spin Energy          =      -0.3693766412084603 [Eh]
	 Opposite-Spin Energy      =      -1.1655901020772621 [Eh]
	 Correlation Energy        =      -1.5349667432857224 [Eh]
	 Total Energy              =    -346.2251174343061848 [Eh]

	 ================> DF-SCS-MP2 Energies <==================
	-----------------------------------------------------------
	 SCS Same-Spin Scale       =       0.3333333333333333 [-]
	 SCS Opposite-Spin Scale   =       1.2000000000000000 [-]
	 SCS Same-Spin Energy      =      -0.1231255470694868 [Eh]
	 SCS Opposite-Spin Energy  =      -1.3987081224927145 [Eh]
	 SCS Correlation Energy    =      -1.5218336695622012 [Eh]
	 SCS Total Energy          =    -346.2119843605826759 [Eh]
	-----------------------------------------------------------

  Dipole Moment: [D]
     X:    -0.5734      Y:     1.1903      Z:     0.0358     Total:     1.3217

*** Psi4 exiting successfully. Buy a developer a beer!
