                               Psi4 1.4a3.dev225

  ==> Input File <==

--------------------------------------------------------------------------
#psi4
#
memory 32 gb

molecule  {
0 1
  C       -2.8858990     0.0139170     0.0160750
  C        1.4367690    -0.0149750     0.0043080
  C        0.7564926     1.1812569    -0.0029712
  C        0.7284530    -1.2193540    -0.0027000
  C       -0.6498220     1.2004800    -0.0089530
  C       -0.6636960    -1.1986710    -0.0090440
  C       -1.3793230     0.0073340    -0.0165520
  O        2.8101740    -0.0968660     0.0091650
  H        1.2936780     2.1410060    -0.0034030
  H        3.1695990     0.8076070     0.0120990
  H        1.2824160    -2.1540570    -0.0024590
  H       -1.1767200     2.1533030    -0.0175850
  H       -1.2060630    -2.1429390    -0.0178450
  H       -3.2957090    -0.8164640    -0.5664260
  H       -3.2836900     0.9448070    -0.3980300
  H       -3.2634270    -0.0825680     1.0399950
units angstrom
no_reorient  #important for SAPT in psi4, default
symmetry c1  #important for SAPT in psi4, default
}

set PROPERTIES_ORIGIN ["COM"]
properties('MP2/aug-cc-pvtz', properties = ['dipole'])
--------------------------------------------------------------------------

    Molecular point group: c1
  Charge       = 0
  Multiplicity = 1
  Basis Set: AUG-CC-PVTZ
    Blend: AUG-CC-PVTZ
  Basis Set: (AUG-CC-PVTZ AUX)
    Blend: AUG-CC-PVTZ-JKFIT

    Orbital Energies [Eh]
    ---------------------

    Doubly Occupied:

       1A    -20.588619     2A    -11.297391     3A    -11.239525
       4A    -11.237149     5A    -11.235415     6A    -11.234475
       7A    -11.229789     8A    -11.223524     9A     -1.397467
      10A     -1.149858    11A     -1.038391    12A     -1.015635
      13A     -0.927215    14A     -0.844850    15A     -0.800176
      16A     -0.727270    17A     -0.669980    18A     -0.641473
      19A     -0.604887    20A     -0.588861    21A     -0.585518
      22A     -0.574617    23A     -0.570508    24A     -0.531962
      25A     -0.502244    26A     -0.488571    27A     -0.470166
      28A     -0.339929    29A     -0.307581

  @DF-RHF Final Energy:  -344.71860695381571

   => Energetics <=

    Nuclear Repulsion Energy =            341.9783070931452471
    One-Electron Energy =               -1145.2677412457810533
    Two-Electron Energy =                 458.5708271988200408
    Total Energy =                       -344.7186069538157085
  Basis Set: (AUG-CC-PVTZ AUX)
    Blend: AUG-CC-PVTZ-RI
    Molecular point group: c1

    Geometry (in Angstrom), charge = 0, multiplicity = 1:

       Center              X                  Y                   Z               Mass
    ------------   -----------------  -----------------  -----------------  -----------------
         C           -2.946362789603     0.023654007972     0.016489079008    12.000000000000
         C            1.376305210397    -0.005237992028     0.004722079008    12.000000000000
         C            0.696028810397     1.190993907972    -0.002557120992    12.000000000000
         C            0.667989210397    -1.209616992028    -0.002285920992    12.000000000000
         C           -0.710285789603     1.210217007972    -0.008538920992    12.000000000000
         C           -0.724159789603    -1.188933992028    -0.008629920992    12.000000000000
         C           -1.439786789603     0.017071007972    -0.016137920992    12.000000000000
         O            2.749710210397    -0.087128992028     0.009579079008    15.994914619570
         H            1.233214210397     2.150743007972    -0.002988920992     1.007825032230
         H            3.109135210397     0.817344007972     0.012513079008     1.007825032230
         H            1.221952210397    -2.144319992028    -0.002044920992     1.007825032230
         H           -1.237183789603     2.163040007972    -0.017170920992     1.007825032230
         H           -1.266526789603    -2.133201992028    -0.017430920992     1.007825032230
         H           -3.356172789603    -0.806726992028    -0.566011920992     1.007825032230
         H           -3.344153789603     0.954544007972    -0.397615920992     1.007825032230
         H           -3.323890789603    -0.072830992028     1.040409079008     1.007825032230

  Basis Set: AUG-CC-PVTZ
    Blend: AUG-CC-PVTZ
  Basis Set: (AUG-CC-PVTZ AUX)
    Blend: AUG-CC-PVTZ-JKFIT
	 Reference Energy          =    -344.7186069538157085 [Eh]
	 Singles Energy            =      -0.0000000000000000 [Eh]
	 Same-Spin Energy          =      -0.3695084219209908 [Eh]
	 Opposite-Spin Energy      =      -1.1636455982040512 [Eh]
	 Correlation Energy        =      -1.5331540201250420 [Eh]
	 Total Energy              =    -346.2517609739407476 [Eh]

	 ================> DF-SCS-MP2 Energies <==================
	-----------------------------------------------------------
	 SCS Same-Spin Scale       =       0.3333333333333333 [-]
	 SCS Opposite-Spin Scale   =       1.2000000000000000 [-]
	 SCS Same-Spin Energy      =      -0.1231694739736636 [Eh]
	 SCS Opposite-Spin Energy  =      -1.3963747178448613 [Eh]
	 SCS Correlation Energy    =      -1.5195441918185248 [Eh]
	 SCS Total Energy          =    -346.2381511456342196 [Eh]
	-----------------------------------------------------------

  Dipole Moment: [D]
     X:    -0.5061      Y:     1.2623      Z:     0.0361     Total:     1.3605

*** Psi4 exiting successfully. Buy a developer a beer!
