                               Psi4 1.3.2 release

  ==> Input File <==

--------------------------------------------------------------------------
#psi4
#
memory 32 gb

molecule  {
0 1
  C       -2.8859240     0.0139080     0.0157160
  C        1.4367670    -0.0149690     0.0041590
  C        0.7466220     1.1986450    -0.0028730
  C        0.7284570    -1.2193500    -0.0024690
  C       -0.6498160     1.2004800    -0.0088600
  C       -0.6636910    -1.1986650    -0.0089510
  C       -1.3793250     0.0073430    -0.0161260
  O        2.8101880    -0.0968780     0.0088050
  H        1.2936820     2.1410080    -0.0035900
  H        3.0957526     0.6217310     0.0118877
  H        1.2824350    -2.1540410    -0.0024010
  H       -1.1767190     2.1533030    -0.0171340
  H       -1.2060620    -2.1429340    -0.0174000
  H       -3.2954860    -0.8156320    -0.5681670
  H       -3.2834940     0.9453750    -0.3973120
  H       -3.2640020    -0.0839940     1.0392920
units angstrom
no_reorient  #important for SAPT in psi4, default
symmetry c1  #important for SAPT in psi4, default
}

set PROPERTIES_ORIGIN ["COM"]
properties('MP2/aug-cc-pvtz', properties = ['dipole'])
--------------------------------------------------------------------------

    Molecular point group: c1
  Charge       = 0
  Multiplicity = 1
  Basis Set: AUG-CC-PVTZ
    Blend: AUG-CC-PVTZ
  Basis Set: (AUG-CC-PVTZ AUX)
    Blend: AUG-CC-PVTZ-JKFIT

    Orbital Energies [Eh]
    ---------------------

    Doubly Occupied:

       1A    -20.569011     2A    -11.301675     3A    -11.239927
       4A    -11.238042     5A    -11.237051     6A    -11.236526
       7A    -11.230546     8A    -11.224292     9A     -1.457265
      10A     -1.153275    11A     -1.043995    12A     -1.018310
      13A     -0.935613    14A     -0.852383    15A     -0.814113
      16A     -0.752908    17A     -0.673998    18A     -0.644346
      19A     -0.612726    20A     -0.594823    21A     -0.588001
      22A     -0.581796    23A     -0.572444    24A     -0.534773
      25A     -0.505292    26A     -0.489175    27A     -0.472968
      28A     -0.342068    29A     -0.308159

  @DF-RHF Final Energy:  -344.67306217950107

   => Energetics <=

    Nuclear Repulsion Energy =            343.1571089459098403
    One-Electron Energy =               -1147.2093395371025508
    Two-Electron Energy =                 459.3791684116916372
    Total Energy =                       -344.6730621795010734
  Basis Set: (AUG-CC-PVTZ AUX)
    Blend: AUG-CC-PVTZ-RI
    Molecular point group: c1

    Geometry (in Angstrom), charge = 0, multiplicity = 1:

       Center              X                  Y                   Z               Mass
    ------------   -----------------  -----------------  -----------------  -----------------
         C           -2.944602189157     0.023447670916     0.016146174389    12.000000000000
         C            1.378088810843    -0.005429329084     0.004589174389    12.000000000000
         C            0.687943810843     1.208184670916    -0.002442825611    12.000000000000
         C            0.669778810843    -1.209810329084    -0.002038825611    12.000000000000
         C           -0.708494189157     1.210019670916    -0.008429825611    12.000000000000
         C           -0.722369189157    -1.189125329084    -0.008520825611    12.000000000000
         C           -1.438003189157     0.016882670916    -0.015695825611    12.000000000000
         O            2.751509810843    -0.087338329084     0.009235174389    15.994914619570
         H            1.235003810843     2.150547670916    -0.003159825611     1.007825032230
         H            3.037074410843     0.631270670916     0.012317874389     1.007825032230
         H            1.223756810843    -2.144501329084    -0.001970825611     1.007825032230
         H           -1.235397189157     2.162842670916    -0.016703825611     1.007825032230
         H           -1.264740189157    -2.133394329084    -0.016969825611     1.007825032230
         H           -3.354164189157    -0.806092329084    -0.567736825611     1.007825032230
         H           -3.342172189157     0.954914670916    -0.396881825611     1.007825032230
         H           -3.322680189157    -0.074454329084     1.039722174389     1.007825032230

  Basis Set: AUG-CC-PVTZ
    Blend: AUG-CC-PVTZ
  Basis Set: (AUG-CC-PVTZ AUX)
    Blend: AUG-CC-PVTZ-JKFIT
	 Reference Energy          =    -344.6730621795010734 [Eh]
	 Singles Energy            =      -0.0000000000000000 [Eh]
	 Same-Spin Energy          =      -0.3670915820642737 [Eh]
	 Opposite-Spin Energy      =      -1.1580826532001225 [Eh]
	 Correlation Energy        =      -1.5251742352643962 [Eh]
	 Total Energy              =    -346.1982364147654607 [Eh]

	 ================> DF-SCS-MP2 Energies <==================
	-----------------------------------------------------------
	 SCS Same-Spin Scale       =       0.3333333333333333 [-]
	 SCS Opposite-Spin Scale   =       1.2000000000000000 [-]
	 SCS Same-Spin Energy      =      -0.1223638606880912 [Eh]
	 SCS Opposite-Spin Energy  =      -1.3896991838401469 [Eh]
	 SCS Correlation Energy    =      -1.5120630445282381 [Eh]
	 SCS Total Energy          =    -346.1851252240293206 [Eh]
	-----------------------------------------------------------

  Dipole Moment: [D]
     X:    -0.6610      Y:     1.1177      Z:     0.0358     Total:     1.2990

*** Psi4 exiting successfully. Buy a developer a beer!
