                               Psi4 1.3.2 release

  ==> Input File <==

--------------------------------------------------------------------------
#psi4
#
memory 32 gb

molecule  {
0 1
  C       -2.8859240     0.0139080     0.0157160
  C        1.4367670    -0.0149690     0.0041590
  C        0.8329567     1.2438333    -0.0020407
  C        0.7284570    -1.2193500    -0.0024690
  C       -0.6498160     1.2004800    -0.0088600
  C       -0.6636910    -1.1986650    -0.0089510
  C       -1.3793250     0.0073430    -0.0161260
  O        2.8101880    -0.0968780     0.0088050
  H        1.2936820     2.1410080    -0.0035900
  H        3.1696110     0.8075920     0.0126850
  H        1.2824350    -2.1540410    -0.0024010
  H       -1.1767190     2.1533030    -0.0171340
  H       -1.2060620    -2.1429340    -0.0174000
  H       -3.2954860    -0.8156320    -0.5681670
  H       -3.2834940     0.9453750    -0.3973120
  H       -3.2640020    -0.0839940     1.0392920
units angstrom
no_reorient  #important for SAPT in psi4, default
symmetry c1  #important for SAPT in psi4, default
}

set PROPERTIES_ORIGIN ["COM"]
properties('MP2/aug-cc-pvtz', properties = ['dipole'])
--------------------------------------------------------------------------

    Molecular point group: c1
  Charge       = 0
  Multiplicity = 1
  Basis Set: AUG-CC-PVTZ
    Blend: AUG-CC-PVTZ
  Basis Set: (AUG-CC-PVTZ AUX)
    Blend: AUG-CC-PVTZ-JKFIT

    Orbital Energies [Eh]
    ---------------------

    Doubly Occupied:

       1A    -20.584854     2A    -11.302208     3A    -11.247433
       4A    -11.240730     5A    -11.236195     6A    -11.234785
       7A    -11.231023     8A    -11.224178     9A     -1.396094
      10A     -1.142394    11A     -1.036808    12A     -1.011222
      13A     -0.924962    14A     -0.851584    15A     -0.798645
      16A     -0.726459    17A     -0.662112    18A     -0.659117
      19A     -0.610207    20A     -0.588016    21A     -0.586302
      22A     -0.571246    23A     -0.569267    24A     -0.529377
      25A     -0.503645    26A     -0.488864    27A     -0.464308
      28A     -0.333463    29A     -0.308722

  @DF-RHF Final Energy:  -344.70592608781493

   => Energetics <=

    Nuclear Repulsion Energy =            340.5517296437348023
    One-Electron Energy =               -1142.3868683039620464
    Two-Electron Energy =                 457.1292125724123139
    Total Energy =                       -344.7059260878149303
  Basis Set: (AUG-CC-PVTZ AUX)
    Blend: AUG-CC-PVTZ-RI
    Molecular point group: c1

    Geometry (in Angstrom), charge = 0, multiplicity = 1:

       Center              X                  Y                   Z               Mass
    ------------   -----------------  -----------------  -----------------  -----------------
         C           -2.954878686314     0.016695942735     0.016046309619    12.000000000000
         C            1.367812313686    -0.012181057265     0.004489309619    12.000000000000
         C            0.764002013686     1.246621242735    -0.001710390381    12.000000000000
         C            0.659502313686    -1.216562057265    -0.002138690381    12.000000000000
         C           -0.718770686314     1.203267942735    -0.008529690381    12.000000000000
         C           -0.732645686314    -1.195877057265    -0.008620690381    12.000000000000
         C           -1.448279686314     0.010130942735    -0.015795690381    12.000000000000
         O            2.741233313686    -0.094090057265     0.009135309619    15.994914619570
         H            1.224727313686     2.143795942735    -0.003259690381     1.007825032230
         H            3.100656313686     0.810379942735     0.013015309619     1.007825032230
         H            1.213480313686    -2.151253057265    -0.002070690381     1.007825032230
         H           -1.245673686314     2.156090942735    -0.016803690381     1.007825032230
         H           -1.275016686314    -2.140146057265    -0.017069690381     1.007825032230
         H           -3.364440686314    -0.812844057265    -0.567836690381     1.007825032230
         H           -3.352448686314     0.948162942735    -0.396981690381     1.007825032230
         H           -3.332956686314    -0.081206057265     1.039622309619     1.007825032230

  Basis Set: AUG-CC-PVTZ
    Blend: AUG-CC-PVTZ
  Basis Set: (AUG-CC-PVTZ AUX)
    Blend: AUG-CC-PVTZ-JKFIT
	 Reference Energy          =    -344.7059260878149303 [Eh]
	 Singles Energy            =      -0.0000000000000000 [Eh]
	 Same-Spin Energy          =      -0.3693446545990223 [Eh]
	 Opposite-Spin Energy      =      -1.1646096002852562 [Eh]
	 Correlation Energy        =      -1.5339542548842784 [Eh]
	 Total Energy              =    -346.2398803426992231 [Eh]

	 ================> DF-SCS-MP2 Energies <==================
	-----------------------------------------------------------
	 SCS Same-Spin Scale       =       0.3333333333333333 [-]
	 SCS Opposite-Spin Scale   =       1.2000000000000000 [-]
	 SCS Same-Spin Energy      =      -0.1231148848663408 [Eh]
	 SCS Opposite-Spin Energy  =      -1.3975315203423073 [Eh]
	 SCS Correlation Energy    =      -1.5206464052086481 [Eh]
	 SCS Total Energy          =    -346.2265724930235820 [Eh]
	-----------------------------------------------------------

  Dipole Moment: [D]
     X:    -0.5327      Y:     1.2248      Z:     0.0356     Total:     1.3361

*** Psi4 exiting successfully. Buy a developer a beer!
