                               Psi4 1.4a3.dev225

  ==> Input File <==

--------------------------------------------------------------------------
#psi4
#
memory 32 gb

molecule  {
0 1
  C       -2.8858990     0.0139170     0.0160750
  C        1.4367690    -0.0149750     0.0043080
  C        0.7466060     1.1986420    -0.0030770
  C        0.7284530    -1.2193540    -0.0027000
  C       -0.6498220     1.2004800    -0.0089530
  C       -0.6636960    -1.1986710    -0.0090440
  C       -1.3793230     0.0073340    -0.0165520
  O        2.8101740    -0.0968660     0.0091650
  H        1.2936780     2.1410060    -0.0034030
  H        3.1769849     0.8261932     0.0121593
  H        1.2824160    -2.1540570    -0.0024590
  H       -1.1767200     2.1533030    -0.0175850
  H       -1.2060630    -2.1429390    -0.0178450
  H       -3.2957090    -0.8164640    -0.5664260
  H       -3.2836900     0.9448070    -0.3980300
  H       -3.2634270    -0.0825680     1.0399950
units angstrom
no_reorient  #important for SAPT in psi4, default
symmetry c1  #important for SAPT in psi4, default
}

set PROPERTIES_ORIGIN ["COM"]
properties('MP2/aug-cc-pvtz', properties = ['dipole'])
--------------------------------------------------------------------------

    Molecular point group: c1
  Charge       = 0
  Multiplicity = 1
  Basis Set: AUG-CC-PVTZ
    Blend: AUG-CC-PVTZ
  Basis Set: (AUG-CC-PVTZ AUX)
    Blend: AUG-CC-PVTZ-JKFIT

    Orbital Energies [Eh]
    ---------------------

    Doubly Occupied:

       1A    -20.591153     2A    -11.299709     3A    -11.238674
       4A    -11.237023     5A    -11.235025     6A    -11.234818
       7A    -11.229051     8A    -11.223262     9A     -1.393742
      10A     -1.148777    11A     -1.036077    12A     -1.016789
      13A     -0.925614    14A     -0.843267    15A     -0.799664
      16A     -0.724501    17A     -0.669459    18A     -0.642317
      19A     -0.603931    20A     -0.587924    21A     -0.586844
      22A     -0.573853    23A     -0.570121    24A     -0.530866
      25A     -0.503646    26A     -0.487070    27A     -0.469813
      28A     -0.340969    29A     -0.305281

  @DF-RHF Final Energy:  -344.71725430057643

   => Energetics <=

    Nuclear Repulsion Energy =            341.6378520428193042
    One-Electron Energy =               -1144.6117339642057686
    Two-Electron Energy =                 458.2566276208100362
    Total Energy =                       -344.7172543005764282
  Basis Set: (AUG-CC-PVTZ AUX)
    Blend: AUG-CC-PVTZ-RI
    Molecular point group: c1

    Geometry (in Angstrom), charge = 0, multiplicity = 1:

       Center              X                  Y                   Z               Mass
    ------------   -----------------  -----------------  -----------------  -----------------
         C           -2.945333749603     0.021550009579     0.016500265904    12.000000000000
         C            1.377334250397    -0.007341990421     0.004733265904    12.000000000000
         C            0.687171250397     1.206275009579    -0.002651734096    12.000000000000
         C            0.669018250397    -1.211720990421    -0.002274734096    12.000000000000
         C           -0.709256749603     1.208113009579    -0.008527734096    12.000000000000
         C           -0.723130749603    -1.191037990421    -0.008618734096    12.000000000000
         C           -1.438757749603     0.014967009579    -0.016126734096    12.000000000000
         O            2.750739250397    -0.089232990421     0.009590265904    15.994914619570
         H            1.234243250397     2.148639009579    -0.002977734096     1.007825032230
         H            3.117550150397     0.833826209579     0.012584565904     1.007825032230
         H            1.222981250397    -2.146423990421    -0.002033734096     1.007825032230
         H           -1.236154749603     2.160936009579    -0.017159734096     1.007825032230
         H           -1.265497749603    -2.135305990421    -0.017419734096     1.007825032230
         H           -3.355143749603    -0.808830990421    -0.566000734096     1.007825032230
         H           -3.343124749603     0.952440009579    -0.397604734096     1.007825032230
         H           -3.322861749603    -0.074934990421     1.040420265904     1.007825032230

  Basis Set: AUG-CC-PVTZ
    Blend: AUG-CC-PVTZ
  Basis Set: (AUG-CC-PVTZ AUX)
    Blend: AUG-CC-PVTZ-JKFIT
	 Reference Energy          =    -344.7172543005764282 [Eh]
	 Singles Energy            =      -0.0000000000000000 [Eh]
	 Same-Spin Energy          =      -0.3697951565021285 [Eh]
	 Opposite-Spin Energy      =      -1.1643670094725058 [Eh]
	 Correlation Energy        =      -1.5341621659746343 [Eh]
	 Total Energy              =    -346.2514164665510634 [Eh]

	 ================> DF-SCS-MP2 Energies <==================
	-----------------------------------------------------------
	 SCS Same-Spin Scale       =       0.3333333333333333 [-]
	 SCS Opposite-Spin Scale   =       1.2000000000000000 [-]
	 SCS Same-Spin Energy      =      -0.1232650521673762 [Eh]
	 SCS Opposite-Spin Energy  =      -1.3972404113670069 [Eh]
	 SCS Correlation Energy    =      -1.5205054635343831 [Eh]
	 SCS Total Energy          =    -346.2377597641108196 [Eh]
	-----------------------------------------------------------

  Dipole Moment: [D]
     X:    -0.4567      Y:     1.2816      Z:     0.0359     Total:     1.3610

*** Psi4 exiting successfully. Buy a developer a beer!
