                               Psi4 1.3.2 release

  ==> Input File <==

--------------------------------------------------------------------------
#psi4
#
memory 32 gb

molecule  {
0 1
  C       -2.8859240     0.0139080     0.0157160
  C        1.4384054     0.0089881     0.0042338
  C        0.7466220     1.1986450    -0.0028730
  C        0.7284570    -1.2193500    -0.0024690
  C       -0.6498160     1.2004800    -0.0088600
  C       -0.6636910    -1.1986650    -0.0089510
  C       -1.3793250     0.0073430    -0.0161260
  O        2.8101880    -0.0968780     0.0088050
  H        1.2936820     2.1410080    -0.0035900
  H        3.1696110     0.8075920     0.0126850
  H        1.2824350    -2.1540410    -0.0024010
  H       -1.1767190     2.1533030    -0.0171340
  H       -1.2060620    -2.1429340    -0.0174000
  H       -3.2954860    -0.8156320    -0.5681670
  H       -3.2834940     0.9453750    -0.3973120
  H       -3.2640020    -0.0839940     1.0392920
units angstrom
no_reorient  #important for SAPT in psi4, default
symmetry c1  #important for SAPT in psi4, default
}

set PROPERTIES_ORIGIN ["COM"]
properties('MP2/aug-cc-pvtz', properties = ['dipole'])
--------------------------------------------------------------------------

    Molecular point group: c1
  Charge       = 0
  Multiplicity = 1
  Basis Set: AUG-CC-PVTZ
    Blend: AUG-CC-PVTZ
  Basis Set: (AUG-CC-PVTZ AUX)
    Blend: AUG-CC-PVTZ-JKFIT

    Orbital Energies [Eh]
    ---------------------

    Doubly Occupied:

       1A    -20.590489     2A    -11.299751     3A    -11.238505
       4A    -11.236881     5A    -11.235089     6A    -11.232825
       7A    -11.231592     8A    -11.223344     9A     -1.398861
      10A     -1.149021    11A     -1.036938    12A     -1.016384
      13A     -0.926130    14A     -0.843957    15A     -0.800892
      16A     -0.726326    17A     -0.671268    18A     -0.641480
      19A     -0.602772    20A     -0.588844    21A     -0.586636
      22A     -0.576480    23A     -0.570499    24A     -0.531540
      25A     -0.503765    26A     -0.487253    27A     -0.470140
      28A     -0.341402    29A     -0.305281

  @DF-RHF Final Energy:  -344.71798987510914

   => Energetics <=

    Nuclear Repulsion Energy =            341.7382614066710858
    One-Electron Energy =               -1144.7838128201960899
    Two-Electron Energy =                 458.3275615384158641
    Total Energy =                       -344.7179898751091400
  Basis Set: (AUG-CC-PVTZ AUX)
    Blend: AUG-CC-PVTZ-RI
    Molecular point group: c1

    Geometry (in Angstrom), charge = 0, multiplicity = 1:

       Center              X                  Y                   Z               Mass
    ------------   -----------------  -----------------  -----------------  -----------------
         C           -2.945472995269     0.019053709340     0.016130431487    12.000000000000
         C            1.378856404731     0.014133809340     0.004648231487    12.000000000000
         C            0.687073004731     1.203790709340    -0.002458568513    12.000000000000
         C            0.668908004731    -1.214204290660    -0.002054568513    12.000000000000
         C           -0.709364995269     1.205625709340    -0.008445568513    12.000000000000
         C           -0.723239995269    -1.193519290660    -0.008536568513    12.000000000000
         C           -1.438873995269     0.012488709340    -0.015711568513    12.000000000000
         O            2.750639004731    -0.091732290660     0.009219431487    15.994914619570
         H            1.234133004731     2.146153709340    -0.003175568513     1.007825032230
         H            3.110062004731     0.812737709340     0.013099431487     1.007825032230
         H            1.222886004731    -2.148895290660    -0.001986568513     1.007825032230
         H           -1.236267995269     2.158448709340    -0.016719568513     1.007825032230
         H           -1.265610995269    -2.137788290660    -0.016985568513     1.007825032230
         H           -3.355034995269    -0.810486290660    -0.567752568513     1.007825032230
         H           -3.343042995269     0.950520709340    -0.396897568513     1.007825032230
         H           -3.323550995269    -0.078848290660     1.039706431487     1.007825032230

  Basis Set: AUG-CC-PVTZ
    Blend: AUG-CC-PVTZ
  Basis Set: (AUG-CC-PVTZ AUX)
    Blend: AUG-CC-PVTZ-JKFIT
	 Reference Energy          =    -344.7179898751091400 [Eh]
	 Singles Energy            =      -0.0000000000000000 [Eh]
	 Same-Spin Energy          =      -0.3695258592174073 [Eh]
	 Opposite-Spin Energy      =      -1.1638708221530341 [Eh]
	 Correlation Energy        =      -1.5333966813704414 [Eh]
	 Total Energy              =    -346.2513865564795879 [Eh]

	 ================> DF-SCS-MP2 Energies <==================
	-----------------------------------------------------------
	 SCS Same-Spin Scale       =       0.3333333333333333 [-]
	 SCS Opposite-Spin Scale   =       1.2000000000000000 [-]
	 SCS Same-Spin Energy      =      -0.1231752864058024 [Eh]
	 SCS Opposite-Spin Energy  =      -1.3966449865836408 [Eh]
	 SCS Correlation Energy    =      -1.5198202729894432 [Eh]
	 SCS Total Energy          =    -346.2378101480985606 [Eh]
	-----------------------------------------------------------

  Dipole Moment: [D]
     X:    -0.4607      Y:     1.2694      Z:     0.0369     Total:     1.3509

*** Psi4 exiting successfully. Buy a developer a beer!
