                               Psi4 1.3.2 release

  ==> Input File <==

--------------------------------------------------------------------------
#psi4
#
memory 32 gb

molecule  {
0 1
  C       -2.8859240     0.0139080     0.0157160
  C        1.4367670    -0.0149690     0.0041590
  C        0.7466220     1.1986450    -0.0028730
  C        0.7284570    -1.2193500    -0.0024690
  C       -0.6498160     1.2004800    -0.0088600
  C       -0.6636910    -1.1986650    -0.0089510
  C       -1.3793250     0.0073430    -0.0161260
  O        2.9100101    -0.1028313     0.0091427
  H        1.2936820     2.1410080    -0.0035900
  H        3.1696110     0.8075920     0.0126850
  H        1.2824350    -2.1540410    -0.0024010
  H       -1.1767190     2.1533030    -0.0171340
  H       -1.2060620    -2.1429340    -0.0174000
  H       -3.2954860    -0.8156320    -0.5681670
  H       -3.2834940     0.9453750    -0.3973120
  H       -3.2640020    -0.0839940     1.0392920
units angstrom
no_reorient  #important for SAPT in psi4, default
symmetry c1  #important for SAPT in psi4, default
}

set PROPERTIES_ORIGIN ["COM"]
properties('MP2/aug-cc-pvtz', properties = ['dipole'])
--------------------------------------------------------------------------

    Molecular point group: c1
  Charge       = 0
  Multiplicity = 1
  Basis Set: AUG-CC-PVTZ
    Blend: AUG-CC-PVTZ
  Basis Set: (AUG-CC-PVTZ AUX)
    Blend: AUG-CC-PVTZ-JKFIT

    Orbital Energies [Eh]
    ---------------------

    Doubly Occupied:

       1A    -20.583436     2A    -11.305678     3A    -11.243751
       4A    -11.242828     5A    -11.241696     6A    -11.240250
       7A    -11.236551     8A    -11.227275     9A     -1.367176
      10A     -1.154904    11A     -1.042091    12A     -1.020990
      13A     -0.929485    14A     -0.842850    15A     -0.798963
      16A     -0.710738    17A     -0.669271    18A     -0.641566
      19A     -0.609269    20A     -0.591464    21A     -0.580852
      22A     -0.569310    23A     -0.560771    24A     -0.537609
      25A     -0.505122    26A     -0.492907    27A     -0.474992
      28A     -0.344677    29A     -0.315770

  @DF-RHF Final Energy:  -344.70956585063010

   => Energetics <=

    Nuclear Repulsion Energy =            339.1801259623335341
    One-Electron Energy =               -1139.6149014486204578
    Two-Electron Energy =                 455.7252096356568813
    Total Energy =                       -344.7095658506300992
  Basis Set: (AUG-CC-PVTZ AUX)
    Blend: AUG-CC-PVTZ-RI
    Molecular point group: c1

    Geometry (in Angstrom), charge = 0, multiplicity = 1:

       Center              X                  Y                   Z               Mass
    ------------   -----------------  -----------------  -----------------  -----------------
         C           -2.960066937841     0.022595413271     0.016088751066    12.000000000000
         C            1.362624062159    -0.006281586729     0.004531751066    12.000000000000
         C            0.672479062159     1.207332413271    -0.002500248934    12.000000000000
         C            0.654314062159    -1.210662586729    -0.002096248934    12.000000000000
         C           -0.723958937841     1.209167413271    -0.008487248934    12.000000000000
         C           -0.737833937841    -1.189977586729    -0.008578248934    12.000000000000
         C           -1.453467937841     0.016030413271    -0.015753248934    12.000000000000
         O            2.835867162159    -0.094143886729     0.009515451066    15.994914619570
         H            1.219539062159     2.149695413271    -0.003217248934     1.007825032230
         H            3.095468062159     0.816279413271     0.013057751066     1.007825032230
         H            1.208292062159    -2.145353586729    -0.002028248934     1.007825032230
         H           -1.250861937841     2.161990413271    -0.016761248934     1.007825032230
         H           -1.280204937841    -2.134246586729    -0.017027248934     1.007825032230
         H           -3.369628937841    -0.806944586729    -0.567794248934     1.007825032230
         H           -3.357636937841     0.954062413271    -0.396939248934     1.007825032230
         H           -3.338144937841    -0.075306586729     1.039664751066     1.007825032230

  Basis Set: AUG-CC-PVTZ
    Blend: AUG-CC-PVTZ
  Basis Set: (AUG-CC-PVTZ AUX)
    Blend: AUG-CC-PVTZ-JKFIT
	 Reference Energy          =    -344.7095658506300992 [Eh]
	 Singles Energy            =      -0.0000000000000000 [Eh]
	 Same-Spin Energy          =      -0.3695786304572683 [Eh]
	 Opposite-Spin Energy      =      -1.1656723931486672 [Eh]
	 Correlation Energy        =      -1.5352510236059356 [Eh]
	 Total Energy              =    -346.2448168742360508 [Eh]

	 ================> DF-SCS-MP2 Energies <==================
	-----------------------------------------------------------
	 SCS Same-Spin Scale       =       0.3333333333333333 [-]
	 SCS Opposite-Spin Scale   =       1.2000000000000000 [-]
	 SCS Same-Spin Energy      =      -0.1231928768190894 [Eh]
	 SCS Opposite-Spin Energy  =      -1.3988068717784006 [Eh]
	 SCS Correlation Energy    =      -1.5219997485974901 [Eh]
	 SCS Total Energy          =    -346.2315655992275651 [Eh]
	-----------------------------------------------------------

  Dipole Moment: [D]
     X:    -1.1907      Y:     1.2503      Z:     0.0346     Total:     1.7269

*** Psi4 exiting successfully. Buy a developer a beer!
