                               Psi4 1.3.2 release

  ==> Input File <==

--------------------------------------------------------------------------
#psi4
#
memory 32 gb

molecule  {
0 1
  C       -2.8859240     0.0139080     0.0157160
  C        1.4367670    -0.0149690     0.0041590
  C        0.7255476     1.1864148    -0.0030759
  C        0.7284570    -1.2193500    -0.0024690
  C       -0.6498160     1.2004800    -0.0088600
  C       -0.6636910    -1.1986650    -0.0089510
  C       -1.3793250     0.0073430    -0.0161260
  O        2.8101880    -0.0968780     0.0088050
  H        1.2936820     2.1410080    -0.0035900
  H        3.1696110     0.8075920     0.0126850
  H        1.2824350    -2.1540410    -0.0024010
  H       -1.1767190     2.1533030    -0.0171340
  H       -1.2060620    -2.1429340    -0.0174000
  H       -3.2954860    -0.8156320    -0.5681670
  H       -3.2834940     0.9453750    -0.3973120
  H       -3.2640020    -0.0839940     1.0392920
units angstrom
no_reorient  #important for SAPT in psi4, default
symmetry c1  #important for SAPT in psi4, default
}

set PROPERTIES_ORIGIN ["COM"]
properties('MP2/aug-cc-pvtz', properties = ['dipole'])
--------------------------------------------------------------------------

    Molecular point group: c1
  Charge       = 0
  Multiplicity = 1
  Basis Set: AUG-CC-PVTZ
    Blend: AUG-CC-PVTZ
  Basis Set: (AUG-CC-PVTZ AUX)
    Blend: AUG-CC-PVTZ-JKFIT

    Orbital Energies [Eh]
    ---------------------

    Doubly Occupied:

       1A    -20.590692     2A    -11.299510     3A    -11.236821
       4A    -11.236266     5A    -11.235174     6A    -11.234585
       7A    -11.228779     8A    -11.223186     9A     -1.398314
      10A     -1.151254    11A     -1.036610    12A     -1.018688
      13A     -0.926668    14A     -0.842076    15A     -0.801417
      16A     -0.727997    17A     -0.672010    18A     -0.639256
      19A     -0.603757    20A     -0.589047    21A     -0.585726
      22A     -0.575932    23A     -0.570403    24A     -0.531918
      25A     -0.504529    26A     -0.484393    27A     -0.471818
      28A     -0.343101    29A     -0.304804

  @DF-RHF Final Energy:  -344.71814742438823

   => Energetics <=

    Nuclear Repulsion Energy =            342.0775294113375935
    One-Electron Energy =               -1145.4618908836230275
    Two-Electron Energy =                 458.6662140478972560
    Total Energy =                       -344.7181474243882349
  Basis Set: (AUG-CC-PVTZ AUX)
    Blend: AUG-CC-PVTZ-RI
    Molecular point group: c1

    Geometry (in Angstrom), charge = 0, multiplicity = 1:

       Center              X                  Y                   Z               Mass
    ------------   -----------------  -----------------  -----------------  -----------------
         C           -2.942950694064     0.023072380327     0.016161270619    12.000000000000
         C            1.379740305936    -0.005804619673     0.004604270619    12.000000000000
         C            0.668520905936     1.195579180327    -0.002630629381    12.000000000000
         C            0.671430305936    -1.210185619673    -0.002023729381    12.000000000000
         C           -0.706842694064     1.209644380327    -0.008414729381    12.000000000000
         C           -0.720717694064    -1.189500619673    -0.008505729381    12.000000000000
         C           -1.436351694064     0.016507380327    -0.015680729381    12.000000000000
         O            2.753161305936    -0.087713619673     0.009250270619    15.994914619570
         H            1.236655305936     2.150172380327    -0.003144729381     1.007825032230
         H            3.112584305936     0.816756380327     0.013130270619     1.007825032230
         H            1.225408305936    -2.144876619673    -0.001955729381     1.007825032230
         H           -1.233745694064     2.162467380327    -0.016688729381     1.007825032230
         H           -1.263088694064    -2.133769619673    -0.016954729381     1.007825032230
         H           -3.352512694064    -0.806467619673    -0.567721729381     1.007825032230
         H           -3.340520694064     0.954539380327    -0.396866729381     1.007825032230
         H           -3.321028694064    -0.074829619673     1.039737270619     1.007825032230

  Basis Set: AUG-CC-PVTZ
    Blend: AUG-CC-PVTZ
  Basis Set: (AUG-CC-PVTZ AUX)
    Blend: AUG-CC-PVTZ-JKFIT
	 Reference Energy          =    -344.7181474243882349 [Eh]
	 Singles Energy            =      -0.0000000000000000 [Eh]
	 Same-Spin Energy          =      -0.3696423802242122 [Eh]
	 Opposite-Spin Energy      =      -1.1637377318079967 [Eh]
	 Correlation Energy        =      -1.5333801120322088 [Eh]
	 Total Energy              =    -346.2515275364204399 [Eh]

	 ================> DF-SCS-MP2 Energies <==================
	-----------------------------------------------------------
	 SCS Same-Spin Scale       =       0.3333333333333333 [-]
	 SCS Opposite-Spin Scale   =       1.2000000000000000 [-]
	 SCS Same-Spin Energy      =      -0.1232141267414041 [Eh]
	 SCS Opposite-Spin Energy  =      -1.3964852781695960 [Eh]
	 SCS Correlation Energy    =      -1.5196994049110000 [Eh]
	 SCS Total Energy          =    -346.2378468292992579 [Eh]
	-----------------------------------------------------------

  Dipole Moment: [D]
     X:    -0.4636      Y:     1.2703      Z:     0.0371     Total:     1.3528

*** Psi4 exiting successfully. Buy a developer a beer!
