                               Psi4 1.3.2 release

  ==> Input File <==

--------------------------------------------------------------------------
#psi4
#
memory 32 gb

molecule  {
0 1
  C       -2.8859240     0.0139080     0.0157160
  C        1.4367670    -0.0149690     0.0041590
  C        0.7046875     1.1738195    -0.0029054
  C        0.7284570    -1.2193500    -0.0024690
  C       -0.6498160     1.2004800    -0.0088600
  C       -0.6636910    -1.1986650    -0.0089510
  C       -1.3793250     0.0073430    -0.0161260
  O        2.8101880    -0.0968780     0.0088050
  H        1.2936820     2.1410080    -0.0035900
  H        3.1696110     0.8075920     0.0126850
  H        1.2824350    -2.1540410    -0.0024010
  H       -1.1767190     2.1533030    -0.0171340
  H       -1.2060620    -2.1429340    -0.0174000
  H       -3.2954860    -0.8156320    -0.5681670
  H       -3.2834940     0.9453750    -0.3973120
  H       -3.2640020    -0.0839940     1.0392920
units angstrom
no_reorient  #important for SAPT in psi4, default
symmetry c1  #important for SAPT in psi4, default
}

set PROPERTIES_ORIGIN ["COM"]
properties('MP2/aug-cc-pvtz', properties = ['dipole'])
--------------------------------------------------------------------------

    Molecular point group: c1
  Charge       = 0
  Multiplicity = 1
  Basis Set: AUG-CC-PVTZ
    Blend: AUG-CC-PVTZ
  Basis Set: (AUG-CC-PVTZ AUX)
    Blend: AUG-CC-PVTZ-JKFIT

    Orbital Energies [Eh]
    ---------------------

    Doubly Occupied:

       1A    -20.591836     2A    -11.299256     3A    -11.235992
       4A    -11.235724     5A    -11.234689     6A    -11.233368
       7A    -11.228448     8A    -11.223052     9A     -1.398797
      10A     -1.153608    11A     -1.036621    12A     -1.020595
      13A     -0.927094    14A     -0.840406    15A     -0.802234
      16A     -0.728714    17A     -0.674110    18A     -0.636498
      19A     -0.603027    20A     -0.589710    21A     -0.584037
      22A     -0.577203    23A     -0.570459    24A     -0.532536
      25A     -0.505225    26A     -0.480903    27A     -0.473714
      28A     -0.345195    29A     -0.304142

  @DF-RHF Final Energy:  -344.71577958973057

   => Energetics <=

    Nuclear Repulsion Energy =            342.4124182001119152
    One-Electron Energy =               -1146.1220060241428200
    Two-Electron Energy =                 458.9938082343003316
    Total Energy =                       -344.7157795897305732
  Basis Set: (AUG-CC-PVTZ AUX)
    Blend: AUG-CC-PVTZ-RI
    Molecular point group: c1

    Geometry (in Angstrom), charge = 0, multiplicity = 1:

       Center              X                  Y                   Z               Mass
    ------------   -----------------  -----------------  -----------------  -----------------
         C           -2.940634138845     0.024471113217     0.016142336258    12.000000000000
         C            1.382056861155    -0.004405886783     0.004585336258    12.000000000000
         C            0.649977361155     1.184382613217    -0.002479063742    12.000000000000
         C            0.673746861155    -1.208786886783    -0.002042663742    12.000000000000
         C           -0.704526138845     1.211043113217    -0.008433663742    12.000000000000
         C           -0.718401138845    -1.188101886783    -0.008524663742    12.000000000000
         C           -1.434035138845     0.017906113217    -0.015699663742    12.000000000000
         O            2.755477861155    -0.086314886783     0.009231336258    15.994914619570
         H            1.238971861155     2.151571113217    -0.003163663742     1.007825032230
         H            3.114900861155     0.818155113217     0.013111336258     1.007825032230
         H            1.227724861155    -2.143477886783    -0.001974663742     1.007825032230
         H           -1.231429138845     2.163866113217    -0.016707663742     1.007825032230
         H           -1.260772138845    -2.132370886783    -0.016973663742     1.007825032230
         H           -3.350196138845    -0.805068886783    -0.567740663742     1.007825032230
         H           -3.338204138845     0.955938113217    -0.396885663742     1.007825032230
         H           -3.318712138845    -0.073430886783     1.039718336258     1.007825032230

  Basis Set: AUG-CC-PVTZ
    Blend: AUG-CC-PVTZ
  Basis Set: (AUG-CC-PVTZ AUX)
    Blend: AUG-CC-PVTZ-JKFIT
	 Reference Energy          =    -344.7157795897305732 [Eh]
	 Singles Energy            =      -0.0000000000000000 [Eh]
	 Same-Spin Energy          =      -0.3697615603328834 [Eh]
	 Opposite-Spin Energy      =      -1.1638337520880988 [Eh]
	 Correlation Energy        =      -1.5335953124209822 [Eh]
	 Total Energy              =    -346.2493749021515441 [Eh]

	 ================> DF-SCS-MP2 Energies <==================
	-----------------------------------------------------------
	 SCS Same-Spin Scale       =       0.3333333333333333 [-]
	 SCS Opposite-Spin Scale   =       1.2000000000000000 [-]
	 SCS Same-Spin Energy      =      -0.1232538534442945 [Eh]
	 SCS Opposite-Spin Energy  =      -1.3966005025057184 [Eh]
	 SCS Correlation Energy    =      -1.5198543559500128 [Eh]
	 SCS Total Energy          =    -346.2356339456806040 [Eh]
	-----------------------------------------------------------

  Dipole Moment: [D]
     X:    -0.4572      Y:     1.2708      Z:     0.0372     Total:     1.3511

*** Psi4 exiting successfully. Buy a developer a beer!
