                               Psi4 1.3.2 release

  ==> Input File <==

--------------------------------------------------------------------------
#psi4
#
memory 32 gb

molecule  {
0 1
  C       -2.8859240     0.0139080     0.0157160
  C        1.4367670    -0.0149690     0.0041590
  C        0.7679078     1.2105051    -0.0028536
  C        0.7284570    -1.2193500    -0.0024690
  C       -0.6498160     1.2004800    -0.0088600
  C       -0.6636910    -1.1986650    -0.0089510
  C       -1.3793250     0.0073430    -0.0161260
  O        2.8101880    -0.0968780     0.0088050
  H        1.2936820     2.1410080    -0.0035900
  H        3.1696110     0.8075920     0.0126850
  H        1.2824350    -2.1540410    -0.0024010
  H       -1.1767190     2.1533030    -0.0171340
  H       -1.2060620    -2.1429340    -0.0174000
  H       -3.2954860    -0.8156320    -0.5681670
  H       -3.2834940     0.9453750    -0.3973120
  H       -3.2640020    -0.0839940     1.0392920
units angstrom
no_reorient  #important for SAPT in psi4, default
symmetry c1  #important for SAPT in psi4, default
}

set PROPERTIES_ORIGIN ["COM"]
properties('MP2/aug-cc-pvtz', properties = ['dipole'])
--------------------------------------------------------------------------

    Molecular point group: c1
  Charge       = 0
  Multiplicity = 1
  Basis Set: AUG-CC-PVTZ
    Blend: AUG-CC-PVTZ
  Basis Set: (AUG-CC-PVTZ AUX)
    Blend: AUG-CC-PVTZ-JKFIT

    Orbital Energies [Eh]
    ---------------------

    Doubly Occupied:

       1A    -20.588373     2A    -11.300307     3A    -11.240986
       4A    -11.237949     5A    -11.235320     6A    -11.235001
       7A    -11.229571     8A    -11.223528     9A     -1.397377
      10A     -1.147160    11A     -1.036647    12A     -1.015277
      13A     -0.925900    14A     -0.845662    15A     -0.799997
      16A     -0.726935    17A     -0.667841    18A     -0.646191
      19A     -0.606167    20A     -0.587878    21A     -0.587637
      22A     -0.573438    23A     -0.570269    24A     -0.530712
      25A     -0.503092    26A     -0.489399    27A     -0.468439
      28A     -0.339062    29A     -0.306264

  @DF-RHF Final Energy:  -344.71802907385808

   => Energetics <=

    Nuclear Repulsion Energy =            341.4371511177945990
    One-Electron Energy =               -1144.1856024516905563
    Two-Electron Energy =                 458.0304222600378239
    Total Energy =                       -344.7180290738580766
  Basis Set: (AUG-CC-PVTZ AUX)
    Blend: AUG-CC-PVTZ-RI
    Molecular point group: c1

    Geometry (in Angstrom), charge = 0, multiplicity = 1:

       Center              X                  Y                   Z               Mass
    ------------   -----------------  -----------------  -----------------  -----------------
         C           -2.947654877762     0.020397105032     0.016136583766    12.000000000000
         C            1.375036122238    -0.008479894968     0.004579583766    12.000000000000
         C            0.706176922238     1.216994205032    -0.002433016234    12.000000000000
         C            0.666726122238    -1.212860894968    -0.002048416234    12.000000000000
         C           -0.711546877762     1.206969105032    -0.008439416234    12.000000000000
         C           -0.725421877762    -1.192175894968    -0.008530416234    12.000000000000
         C           -1.441055877762     0.013832105032    -0.015705416234    12.000000000000
         O            2.748457122238    -0.090388894968     0.009225583766    15.994914619570
         H            1.231951122238     2.147497105032    -0.003169416234     1.007825032230
         H            3.107880122238     0.814081105032     0.013105583766     1.007825032230
         H            1.220704122238    -2.147551894968    -0.001980416234     1.007825032230
         H           -1.238449877762     2.159792105032    -0.016713416234     1.007825032230
         H           -1.267792877762    -2.136444894968    -0.016979416234     1.007825032230
         H           -3.357216877762    -0.809142894968    -0.567746416234     1.007825032230
         H           -3.345224877762     0.951864105032    -0.396891416234     1.007825032230
         H           -3.325732877762    -0.077504894968     1.039712583766     1.007825032230

  Basis Set: AUG-CC-PVTZ
    Blend: AUG-CC-PVTZ
  Basis Set: (AUG-CC-PVTZ AUX)
    Blend: AUG-CC-PVTZ-JKFIT
	 Reference Energy          =    -344.7180290738580766 [Eh]
	 Singles Energy            =      -0.0000000000000000 [Eh]
	 Same-Spin Energy          =      -0.3694623559912311 [Eh]
	 Opposite-Spin Energy      =      -1.1638112356257615 [Eh]
	 Correlation Energy        =      -1.5332735916169926 [Eh]
	 Total Energy              =    -346.2513026654750661 [Eh]

	 ================> DF-SCS-MP2 Energies <==================
	-----------------------------------------------------------
	 SCS Same-Spin Scale       =       0.3333333333333333 [-]
	 SCS Opposite-Spin Scale   =       1.2000000000000000 [-]
	 SCS Same-Spin Energy      =      -0.1231541186637437 [Eh]
	 SCS Opposite-Spin Energy  =      -1.3965734827509138 [Eh]
	 SCS Correlation Energy    =      -1.5197276014146575 [Eh]
	 SCS Total Energy          =    -346.2377566752727489 [Eh]
	-----------------------------------------------------------

  Dipole Moment: [D]
     X:    -0.4846      Y:     1.2600      Z:     0.0366     Total:     1.3505

*** Psi4 exiting successfully. Buy a developer a beer!
