                               Psi4 1.3.2 release

  ==> Input File <==

--------------------------------------------------------------------------
#psi4
#
memory 32 gb

molecule  {
0 1
  C       -2.8859240     0.0139080     0.0157160
  C        1.4367670    -0.0149690     0.0041590
  C        0.7466220     1.1986450    -0.0028730
  C        0.7284570    -1.2193500    -0.0024690
  C       -0.6498160     1.2004800    -0.0088600
  C       -0.6636910    -1.1986650    -0.0089510
  C       -1.3793250     0.0073430    -0.0161260
  O        3.0098321    -0.1087845     0.0094804
  H        1.2936820     2.1410080    -0.0035900
  H        3.1696110     0.8075920     0.0126850
  H        1.2824350    -2.1540410    -0.0024010
  H       -1.1767190     2.1533030    -0.0171340
  H       -1.2060620    -2.1429340    -0.0174000
  H       -3.2954860    -0.8156320    -0.5681670
  H       -3.2834940     0.9453750    -0.3973120
  H       -3.2640020    -0.0839940     1.0392920
units angstrom
no_reorient  #important for SAPT in psi4, default
symmetry c1  #important for SAPT in psi4, default
}

set PROPERTIES_ORIGIN ["COM"]
properties('MP2/aug-cc-pvtz', properties = ['dipole'])
--------------------------------------------------------------------------

    Molecular point group: c1
  Charge       = 0
  Multiplicity = 1
  Basis Set: AUG-CC-PVTZ
    Blend: AUG-CC-PVTZ
  Basis Set: (AUG-CC-PVTZ AUX)
    Blend: AUG-CC-PVTZ-JKFIT

    Orbital Energies [Eh]
    ---------------------

    Doubly Occupied:

       1A    -20.579049     2A    -11.311663     3A    -11.250706
       4A    -11.248457     5A    -11.245645     6A    -11.243937
       7A    -11.242650     8A    -11.230653     9A     -1.344162
      10A     -1.160050    11A     -1.046835    12A     -1.024862
      13A     -0.932608    14A     -0.843642    15A     -0.799607
      16A     -0.695049    17A     -0.670491    18A     -0.640731
      19A     -0.613544    20A     -0.595447    21A     -0.582821
      22A     -0.560926    23A     -0.546353    24A     -0.542678
      25A     -0.503164    26A     -0.497458    27A     -0.478788
      28A     -0.348123    29A     -0.324466

  @DF-RHF Final Energy:  -344.69048170950305

   => Energetics <=

    Nuclear Repulsion Energy =            336.7941833109517802
    One-Electron Energy =               -1134.7602010595066986
    Two-Electron Energy =                 453.2755360390518717
    Total Energy =                       -344.6904817095030467
  Basis Set: (AUG-CC-PVTZ AUX)
    Blend: AUG-CC-PVTZ-RI
    Molecular point group: c1

    Geometry (in Angstrom), charge = 0, multiplicity = 1:

       Center              X                  Y                   Z               Mass
    ------------   -----------------  -----------------  -----------------  -----------------
         C           -2.974842813161     0.023476619227     0.016038763958    12.000000000000
         C            1.347848186839    -0.005400380773     0.004481763958    12.000000000000
         C            0.657703186839     1.208213619227    -0.002550236042    12.000000000000
         C            0.639538186839    -1.209781380773    -0.002146236042    12.000000000000
         C           -0.738734813161     1.210048619227    -0.008537236042    12.000000000000
         C           -0.752609813161    -1.189096380773    -0.008628236042    12.000000000000
         C           -1.468243813161     0.016911619227    -0.015803236042    12.000000000000
         O            2.920913286839    -0.099215880773     0.009803163958    15.994914619570
         H            1.204763186839     2.150576619227    -0.003267236042     1.007825032230
         H            3.080692186839     0.817160619227     0.013007763958     1.007825032230
         H            1.193516186839    -2.144472380773    -0.002078236042     1.007825032230
         H           -1.265637813161     2.162871619227    -0.016811236042     1.007825032230
         H           -1.294980813161    -2.133365380773    -0.017077236042     1.007825032230
         H           -3.384404813161    -0.806063380773    -0.567844236042     1.007825032230
         H           -3.372412813161     0.954943619227    -0.396989236042     1.007825032230
         H           -3.352920813161    -0.074425380773     1.039614763958     1.007825032230

  Basis Set: AUG-CC-PVTZ
    Blend: AUG-CC-PVTZ
  Basis Set: (AUG-CC-PVTZ AUX)
    Blend: AUG-CC-PVTZ-JKFIT
	 Reference Energy          =    -344.6904817095030467 [Eh]
	 Singles Energy            =      -0.0000000000000000 [Eh]
	 Same-Spin Energy          =      -0.3700234730196171 [Eh]
	 Opposite-Spin Energy      =      -1.1685504625808949 [Eh]
	 Correlation Energy        =      -1.5385739356005121 [Eh]
	 Total Energy              =    -346.2290556451035854 [Eh]

	 ================> DF-SCS-MP2 Energies <==================
	-----------------------------------------------------------
	 SCS Same-Spin Scale       =       0.3333333333333333 [-]
	 SCS Opposite-Spin Scale   =       1.2000000000000000 [-]
	 SCS Same-Spin Energy      =      -0.1233411576732057 [Eh]
	 SCS Opposite-Spin Energy  =      -1.4022605550970739 [Eh]
	 SCS Correlation Energy    =      -1.5256017127702797 [Eh]
	 SCS Total Energy          =    -346.2160834222733001 [Eh]
	-----------------------------------------------------------

  Dipole Moment: [D]
     X:    -1.8181      Y:     1.2318      Z:     0.0326     Total:     2.1963

*** Psi4 exiting successfully. Buy a developer a beer!
