                               Psi4 1.4a3.dev225

  ==> Input File <==

--------------------------------------------------------------------------
#psi4
#
memory 32 gb

molecule  {
0 1
  C       -2.8858990     0.0139170     0.0160750
  C        1.4367690    -0.0149750     0.0043080
  C        0.7466060     1.1986420    -0.0030770
  C        0.7284530    -1.2193540    -0.0027000
  C       -0.6498220     1.2004800    -0.0089530
  C       -0.6636960    -1.1986710    -0.0090440
  C       -1.3793230     0.0073340    -0.0165520
  O        2.8600850    -0.0998420     0.0093415
  H        1.2936780     2.1410060    -0.0034030
  H        3.1695990     0.8076070     0.0120990
  H        1.2824160    -2.1540570    -0.0024590
  H       -1.1767200     2.1533030    -0.0175850
  H       -1.2060630    -2.1429390    -0.0178450
  H       -3.2957090    -0.8164640    -0.5664260
  H       -3.2836900     0.9448070    -0.3980300
  H       -3.2634270    -0.0825680     1.0399950
units angstrom
no_reorient  #important for SAPT in psi4, default
symmetry c1  #important for SAPT in psi4, default
}

set PROPERTIES_ORIGIN ["COM"]
properties('MP2/aug-cc-pvtz', properties = ['dipole'])
--------------------------------------------------------------------------

    Molecular point group: c1
  Charge       = 0
  Multiplicity = 1
  Basis Set: AUG-CC-PVTZ
    Blend: AUG-CC-PVTZ
  Basis Set: (AUG-CC-PVTZ AUX)
    Blend: AUG-CC-PVTZ-JKFIT

    Orbital Energies [Eh]
    ---------------------

    Doubly Occupied:

       1A    -20.586251     2A    -11.302741     3A    -11.240911
       4A    -11.239474     5A    -11.239079     6A    -11.238167
       7A    -11.233004     8A    -11.225388     9A     -1.381306
      10A     -1.152095    11A     -1.039460    12A     -1.018978
      13A     -0.927886    14A     -0.843044    15A     -0.799428
      16A     -0.719258    17A     -0.669177    18A     -0.642098
      19A     -0.607009    20A     -0.589272    21A     -0.581932
      22A     -0.572526    23A     -0.567594    24A     -0.534626
      25A     -0.504782    26A     -0.490247    27A     -0.472654
      28A     -0.342892    29A     -0.310848

  @DF-RHF Final Energy:  -344.71584792560765

   => Energetics <=

    Nuclear Repulsion Energy =            340.4406648732922918
    One-Electron Energy =               -1142.1687712580344396
    Two-Electron Energy =                 457.0122584591345571
    Total Energy =                       -344.7158479256076475
  Basis Set: (AUG-CC-PVTZ AUX)
    Blend: AUG-CC-PVTZ-RI
    Molecular point group: c1

    Geometry (in Angstrom), charge = 0, multiplicity = 1:

       Center              X                  Y                   Z               Mass
    ------------   -----------------  -----------------  -----------------  -----------------
         C           -2.952652800847     0.022163872517     0.016474702382    12.000000000000
         C            1.370015199153    -0.006728127483     0.004707702382    12.000000000000
         C            0.679852199153     1.206888872517    -0.002677297618    12.000000000000
         C            0.661699199153    -1.211107127483    -0.002300297618    12.000000000000
         C           -0.716575800847     1.208726872517    -0.008553297618    12.000000000000
         C           -0.730449800847    -1.190424127483    -0.008644297618    12.000000000000
         C           -1.446076800847     0.015580872517    -0.016152297618    12.000000000000
         O            2.793331199153    -0.091595127483     0.009741202382    15.994914619570
         H            1.226924199153     2.149252872517    -0.003003297618     1.007825032230
         H            3.102845199153     0.815853872517     0.012498702382     1.007825032230
         H            1.215662199153    -2.145810127483    -0.002059297618     1.007825032230
         H           -1.243473800847     2.161549872517    -0.017185297618     1.007825032230
         H           -1.272816800847    -2.134692127483    -0.017445297618     1.007825032230
         H           -3.362462800847    -0.808217127483    -0.566026297618     1.007825032230
         H           -3.350443800847     0.953053872517    -0.397630297618     1.007825032230
         H           -3.330180800847    -0.074321127483     1.040394702382     1.007825032230

  Basis Set: AUG-CC-PVTZ
    Blend: AUG-CC-PVTZ
  Basis Set: (AUG-CC-PVTZ AUX)
    Blend: AUG-CC-PVTZ-JKFIT
	 Reference Energy          =    -344.7158479256076475 [Eh]
	 Singles Energy            =      -0.0000000000000000 [Eh]
	 Same-Spin Energy          =      -0.3695102039837355 [Eh]
	 Opposite-Spin Energy      =      -1.1645847999905836 [Eh]
	 Correlation Energy        =      -1.5340950039743191 [Eh]
	 Total Energy              =    -346.2499429295819482 [Eh]

	 ================> DF-SCS-MP2 Energies <==================
	-----------------------------------------------------------
	 SCS Same-Spin Scale       =       0.3333333333333333 [-]
	 SCS Opposite-Spin Scale   =       1.2000000000000000 [-]
	 SCS Same-Spin Energy      =      -0.1231700679945785 [Eh]
	 SCS Opposite-Spin Energy  =      -1.3975017599887003 [Eh]
	 SCS Correlation Energy    =      -1.5206718279832787 [Eh]
	 SCS Total Energy          =    -346.2365197535909260 [Eh]
	-----------------------------------------------------------

  Dipole Moment: [D]
     X:    -0.8437      Y:     1.2590      Z:     0.0347     Total:     1.5160

*** Psi4 exiting successfully. Buy a developer a beer!
