                               Psi4 1.3.2 release

  ==> Input File <==

--------------------------------------------------------------------------
#psi4
#
memory 32 gb

molecule  {
0 1
  C       -2.8859240     0.0139080     0.0157160
  C        1.4458253     0.0806366     0.0044663
  C        0.7466220     1.1986450    -0.0028730
  C        0.7284570    -1.2193500    -0.0024690
  C       -0.6498160     1.2004800    -0.0088600
  C       -0.6636910    -1.1986650    -0.0089510
  C       -1.3793250     0.0073430    -0.0161260
  O        2.8101880    -0.0968780     0.0088050
  H        1.2936820     2.1410080    -0.0035900
  H        3.1696110     0.8075920     0.0126850
  H        1.2824350    -2.1540410    -0.0024010
  H       -1.1767190     2.1533030    -0.0171340
  H       -1.2060620    -2.1429340    -0.0174000
  H       -3.2954860    -0.8156320    -0.5681670
  H       -3.2834940     0.9453750    -0.3973120
  H       -3.2640020    -0.0839940     1.0392920
units angstrom
no_reorient  #important for SAPT in psi4, default
symmetry c1  #important for SAPT in psi4, default
}

set PROPERTIES_ORIGIN ["COM"]
properties('MP2/aug-cc-pvtz', properties = ['dipole'])
--------------------------------------------------------------------------

    Molecular point group: c1
  Charge       = 0
  Multiplicity = 1
  Basis Set: AUG-CC-PVTZ
    Blend: AUG-CC-PVTZ
  Basis Set: (AUG-CC-PVTZ AUX)
    Blend: AUG-CC-PVTZ-JKFIT

    Orbital Energies [Eh]
    ---------------------

    Doubly Occupied:

       1A    -20.593407     2A    -11.298585     3A    -11.238296
       4A    -11.237673     5A    -11.236208     6A    -11.235040
       7A    -11.225651     8A    -11.223467     9A     -1.401896
      10A     -1.149435    11A     -1.042550    12A     -1.011590
      13A     -0.926599    14A     -0.843423    15A     -0.800709
      16A     -0.723462    17A     -0.675156    18A     -0.639199
      19A     -0.599681    20A     -0.590606    21A     -0.587775
      22A     -0.576815    23A     -0.570893    24A     -0.531857
      25A     -0.505100    26A     -0.481844    27A     -0.470577
      28A     -0.345228    29A     -0.303514

  @DF-RHF Final Energy:  -344.70654678592075

   => Energetics <=

    Nuclear Repulsion Energy =            341.7041535446298326
    One-Electron Energy =               -1144.6889216818105979
    Two-Electron Energy =                 458.2782213512599583
    Total Energy =                       -344.7065467859207502
  Basis Set: (AUG-CC-PVTZ AUX)
    Blend: AUG-CC-PVTZ-RI
    Molecular point group: c1

    Geometry (in Angstrom), charge = 0, multiplicity = 1:

       Center              X                  Y                   Z               Mass
    ------------   -----------------  -----------------  -----------------  -----------------
         C           -2.946296989788     0.011097002202     0.016104611904    12.000000000000
         C            1.385452310212     0.077825602202     0.004854911904    12.000000000000
         C            0.686249010212     1.195834002202    -0.002484388096    12.000000000000
         C            0.668084010212    -1.222160997798    -0.002080388096    12.000000000000
         C           -0.710188989788     1.197669002202    -0.008471388096    12.000000000000
         C           -0.724063989788    -1.201475997798    -0.008562388096    12.000000000000
         C           -1.439697989788     0.004532002202    -0.015737388096    12.000000000000
         O            2.749815010212    -0.099688997798     0.009193611904    15.994914619570
         H            1.233309010212     2.138197002202    -0.003201388096     1.007825032230
         H            3.109238010212     0.804781002202     0.013073611904     1.007825032230
         H            1.222062010212    -2.156851997798    -0.002012388096     1.007825032230
         H           -1.237091989788     2.150492002202    -0.016745388096     1.007825032230
         H           -1.266434989788    -2.145744997798    -0.017011388096     1.007825032230
         H           -3.355858989788    -0.818442997798    -0.567778388096     1.007825032230
         H           -3.343866989788     0.942564002202    -0.396923388096     1.007825032230
         H           -3.324374989788    -0.086804997798     1.039680611904     1.007825032230

  Basis Set: AUG-CC-PVTZ
    Blend: AUG-CC-PVTZ
  Basis Set: (AUG-CC-PVTZ AUX)
    Blend: AUG-CC-PVTZ-JKFIT
	 Reference Energy          =    -344.7065467859207502 [Eh]
	 Singles Energy            =      -0.0000000000000000 [Eh]
	 Same-Spin Energy          =      -0.3692474988313565 [Eh]
	 Opposite-Spin Energy      =      -1.1646205391658226 [Eh]
	 Correlation Energy        =      -1.5338680379971792 [Eh]
	 Total Energy              =    -346.2404148239179449 [Eh]

	 ================> DF-SCS-MP2 Energies <==================
	-----------------------------------------------------------
	 SCS Same-Spin Scale       =       0.3333333333333333 [-]
	 SCS Opposite-Spin Scale   =       1.2000000000000000 [-]
	 SCS Same-Spin Energy      =      -0.1230824996104522 [Eh]
	 SCS Opposite-Spin Energy  =      -1.3975446469989872 [Eh]
	 SCS Correlation Energy    =      -1.5206271466094394 [Eh]
	 SCS Total Energy          =    -346.2271739325302065 [Eh]
	-----------------------------------------------------------

  Dipole Moment: [D]
     X:    -0.4253      Y:     1.2797      Z:     0.0372     Total:     1.3491

*** Psi4 exiting successfully. Buy a developer a beer!
