                               Psi4 1.4a3.dev225

  ==> Input File <==

--------------------------------------------------------------------------
#psi4
#
memory 32 gb

molecule  {
0 1
  C       -2.8858990     0.0139170     0.0160750
  C        1.4367690    -0.0149750     0.0043080
  C        0.7466060     1.1986420    -0.0030770
  C        0.7284530    -1.2193540    -0.0027000
  C       -0.6498220     1.2004800    -0.0089530
  C       -0.6636960    -1.1986710    -0.0090440
  C       -1.4054044    -0.0353238    -0.0168237
  O        2.8101740    -0.0968660     0.0091650
  H        1.2936780     2.1410060    -0.0034030
  H        3.1695990     0.8076070     0.0120990
  H        1.2824160    -2.1540570    -0.0024590
  H       -1.1767200     2.1533030    -0.0175850
  H       -1.2060630    -2.1429390    -0.0178450
  H       -3.2957090    -0.8164640    -0.5664260
  H       -3.2836900     0.9448070    -0.3980300
  H       -3.2634270    -0.0825680     1.0399950
units angstrom
no_reorient  #important for SAPT in psi4, default
symmetry c1  #important for SAPT in psi4, default
}

set PROPERTIES_ORIGIN ["COM"]
properties('MP2/aug-cc-pvtz', properties = ['dipole'])
--------------------------------------------------------------------------

    Molecular point group: c1
  Charge       = 0
  Multiplicity = 1
  Basis Set: AUG-CC-PVTZ
    Blend: AUG-CC-PVTZ
  Basis Set: (AUG-CC-PVTZ AUX)
    Blend: AUG-CC-PVTZ-JKFIT

    Orbital Energies [Eh]
    ---------------------

    Doubly Occupied:

       1A    -20.589689     2A    -11.299884     3A    -11.244261
       4A    -11.237060     5A    -11.236451     6A    -11.233604
       7A    -11.227920     8A    -11.222921     9A     -1.397938
      10A     -1.147120    11A     -1.040505    12A     -1.015478
      13A     -0.927745    14A     -0.840717    15A     -0.801699
      16A     -0.726808    17A     -0.668109    18A     -0.644611
      19A     -0.604963    20A     -0.588665    21A     -0.585322
      22A     -0.575104    23A     -0.572356    24A     -0.534054
      25A     -0.509866    26A     -0.481000    27A     -0.467987
      28A     -0.341759    29A     -0.302601

  @DF-RHF Final Energy:  -344.71521308602269

   => Energetics <=

    Nuclear Repulsion Energy =            341.5088316382064590
    One-Electron Energy =               -1144.3156942905104643
    Two-Electron Energy =                 458.0916495662813759
    Total Energy =                       -344.7152130860226862
  Basis Set: (AUG-CC-PVTZ AUX)
    Blend: AUG-CC-PVTZ-RI
    Molecular point group: c1

    Geometry (in Angstrom), charge = 0, multiplicity = 1:

       Center              X                  Y                   Z               Mass
    ------------   -----------------  -----------------  -----------------  -----------------
         C           -2.942368472313     0.026460591117     0.016531001127    12.000000000000
         C            1.380299527687    -0.002431408883     0.004764001127    12.000000000000
         C            0.690136527687     1.211185591117    -0.002620998873    12.000000000000
         C            0.671983527687    -1.206810408883    -0.002243998873    12.000000000000
         C           -0.706291472313     1.213023591117    -0.008496998873    12.000000000000
         C           -0.720165472313    -1.186127408883    -0.008587998873    12.000000000000
         C           -1.461873872313    -0.022780208883    -0.016367698873    12.000000000000
         O            2.753704527687    -0.084322408883     0.009621001127    15.994914619570
         H            1.237208527687     2.153549591117    -0.002946998873     1.007825032230
         H            3.113129527687     0.820150591117     0.012555001127     1.007825032230
         H            1.225946527687    -2.141513408883    -0.002002998873     1.007825032230
         H           -1.233189472313     2.165846591117    -0.017128998873     1.007825032230
         H           -1.262532472313    -2.130395408883    -0.017388998873     1.007825032230
         H           -3.352178472313    -0.803920408883    -0.565969998873     1.007825032230
         H           -3.340159472313     0.957350591117    -0.397573998873     1.007825032230
         H           -3.319896472313    -0.070024408883     1.040451001127     1.007825032230

  Basis Set: AUG-CC-PVTZ
    Blend: AUG-CC-PVTZ
  Basis Set: (AUG-CC-PVTZ AUX)
    Blend: AUG-CC-PVTZ-JKFIT
	 Reference Energy          =    -344.7152130860226862 [Eh]
	 Singles Energy            =      -0.0000000000000000 [Eh]
	 Same-Spin Energy          =      -0.3698242195050804 [Eh]
	 Opposite-Spin Energy      =      -1.1642720681260665 [Eh]
	 Correlation Energy        =      -1.5340962876311470 [Eh]
	 Total Energy              =    -346.2493093736538299 [Eh]

	 ================> DF-SCS-MP2 Energies <==================
	-----------------------------------------------------------
	 SCS Same-Spin Scale       =       0.3333333333333333 [-]
	 SCS Opposite-Spin Scale   =       1.2000000000000000 [-]
	 SCS Same-Spin Energy      =      -0.1232747398350268 [Eh]
	 SCS Opposite-Spin Energy  =      -1.3971264817512798 [Eh]
	 SCS Correlation Energy    =      -1.5204012215863068 [Eh]
	 SCS Total Energy          =    -346.2356143076090120 [Eh]
	-----------------------------------------------------------

  Dipole Moment: [D]
     X:    -0.5074      Y:     1.3054      Z:     0.0385     Total:     1.4011

*** Psi4 exiting successfully. Buy a developer a beer!
