                               Psi4 1.3.2 release

  ==> Input File <==

--------------------------------------------------------------------------
#psi4
#
memory 32 gb

molecule  {
0 1
  C       -2.8859240     0.0139080     0.0157160
  C        1.4347456    -0.0629507     0.0040138
  C        0.7466220     1.1986450    -0.0028730
  C        0.7284570    -1.2193500    -0.0024690
  C       -0.6498160     1.2004800    -0.0088600
  C       -0.6636910    -1.1986650    -0.0089510
  C       -1.3793250     0.0073430    -0.0161260
  O        2.8101880    -0.0968780     0.0088050
  H        1.2936820     2.1410080    -0.0035900
  H        3.1696110     0.8075920     0.0126850
  H        1.2824350    -2.1540410    -0.0024010
  H       -1.1767190     2.1533030    -0.0171340
  H       -1.2060620    -2.1429340    -0.0174000
  H       -3.2954860    -0.8156320    -0.5681670
  H       -3.2834940     0.9453750    -0.3973120
  H       -3.2640020    -0.0839940     1.0392920
units angstrom
no_reorient  #important for SAPT in psi4, default
symmetry c1  #important for SAPT in psi4, default
}

set PROPERTIES_ORIGIN ["COM"]
properties('MP2/aug-cc-pvtz', properties = ['dipole'])
--------------------------------------------------------------------------

    Molecular point group: c1
  Charge       = 0
  Multiplicity = 1
  Basis Set: AUG-CC-PVTZ
    Blend: AUG-CC-PVTZ
  Basis Set: (AUG-CC-PVTZ AUX)
    Blend: AUG-CC-PVTZ-JKFIT

    Orbital Energies [Eh]
    ---------------------

    Doubly Occupied:

       1A    -20.587646     2A    -11.299608     3A    -11.239982
       4A    -11.238667     5A    -11.237461     6A    -11.235087
       7A    -11.223909     8A    -11.223419     9A     -1.395760
      10A     -1.149626    11A     -1.039008    12A     -1.015687
      13A     -0.926969    14A     -0.843173    15A     -0.799807
      16A     -0.729734    17A     -0.667132    18A     -0.644967
      19A     -0.609395    20A     -0.587835    21A     -0.587185
      22A     -0.571200    23A     -0.569447    24A     -0.530661
      25A     -0.504593    26A     -0.484598    27A     -0.469991
      28A     -0.341949    29A     -0.305305

  @DF-RHF Final Energy:  -344.71627267839528

   => Energetics <=

    Nuclear Repulsion Energy =            341.7856751140481606
    One-Electron Energy =               -1144.8842957902222679
    Two-Electron Energy =                 458.3823479977787656
    Total Energy =                       -344.7162726783952849
  Basis Set: (AUG-CC-PVTZ AUX)
    Blend: AUG-CC-PVTZ-RI
    Molecular point group: c1

    Geometry (in Angstrom), charge = 0, multiplicity = 1:

       Center              X                  Y                   Z               Mass
    ------------   -----------------  -----------------  -----------------  -----------------
         C           -2.945066567266     0.027042654866     0.016154862921    12.000000000000
         C            1.375603032734    -0.049816045134     0.004452662921    12.000000000000
         C            0.687479432734     1.211779654866    -0.002434137079    12.000000000000
         C            0.669314432734    -1.206215345134    -0.002030137079    12.000000000000
         C           -0.708958567266     1.213614654866    -0.008421137079    12.000000000000
         C           -0.722833567266    -1.185530345134    -0.008512137079    12.000000000000
         C           -1.438467567266     0.020477654866    -0.015687137079    12.000000000000
         O            2.751045432734    -0.083743345134     0.009243862921    15.994914619570
         H            1.234539432734     2.154142654866    -0.003151137079     1.007825032230
         H            3.110468432734     0.820726654866     0.013123862921     1.007825032230
         H            1.223292432734    -2.140906345134    -0.001962137079     1.007825032230
         H           -1.235861567266     2.166437654866    -0.016695137079     1.007825032230
         H           -1.265204567266    -2.129799345134    -0.016961137079     1.007825032230
         H           -3.354628567266    -0.802497345134    -0.567728137079     1.007825032230
         H           -3.342636567266     0.958509654866    -0.396873137079     1.007825032230
         H           -3.323144567266    -0.070859345134     1.039730862921     1.007825032230

  Basis Set: AUG-CC-PVTZ
    Blend: AUG-CC-PVTZ
  Basis Set: (AUG-CC-PVTZ AUX)
    Blend: AUG-CC-PVTZ-JKFIT
	 Reference Energy          =    -344.7162726783952849 [Eh]
	 Singles Energy            =      -0.0000000000000000 [Eh]
	 Same-Spin Energy          =      -0.3694345645335578 [Eh]
	 Opposite-Spin Energy      =      -1.1636114849650341 [Eh]
	 Correlation Energy        =      -1.5330460494985918 [Eh]
	 Total Energy              =    -346.2493187278938649 [Eh]

	 ================> DF-SCS-MP2 Energies <==================
	-----------------------------------------------------------
	 SCS Same-Spin Scale       =       0.3333333333333333 [-]
	 SCS Opposite-Spin Scale   =       1.2000000000000000 [-]
	 SCS Same-Spin Energy      =      -0.1231448548445193 [Eh]
	 SCS Opposite-Spin Energy  =      -1.3963337819580408 [Eh]
	 SCS Correlation Energy    =      -1.5194786368025601 [Eh]
	 SCS Total Energy          =    -346.2357513151978310 [Eh]
	-----------------------------------------------------------

  Dipole Moment: [D]
     X:    -0.4976      Y:     1.2605      Z:     0.0367     Total:     1.3556

*** Psi4 exiting successfully. Buy a developer a beer!
