                               Psi4 1.4a3.dev225

  ==> Input File <==

--------------------------------------------------------------------------
#psi4
#
memory 32 gb

molecule  {
0 1
  C       -2.8858990     0.0139170     0.0160750
  C        1.4367690    -0.0149750     0.0043080
  C        0.7466060     1.1986420    -0.0030770
  C        0.7284530    -1.2193540    -0.0027000
  C       -0.6498220     1.2004800    -0.0089530
  C       -0.6636960    -1.1986710    -0.0090440
  C       -1.3532416     0.0499918    -0.0162803
  O        2.8101740    -0.0968660     0.0091650
  H        1.2936780     2.1410060    -0.0034030
  H        3.1695990     0.8076070     0.0120990
  H        1.2824160    -2.1540570    -0.0024590
  H       -1.1767200     2.1533030    -0.0175850
  H       -1.2060630    -2.1429390    -0.0178450
  H       -3.2957090    -0.8164640    -0.5664260
  H       -3.2836900     0.9448070    -0.3980300
  H       -3.2634270    -0.0825680     1.0399950
units angstrom
no_reorient  #important for SAPT in psi4, default
symmetry c1  #important for SAPT in psi4, default
}

set PROPERTIES_ORIGIN ["COM"]
properties('MP2/aug-cc-pvtz', properties = ['dipole'])
--------------------------------------------------------------------------

    Molecular point group: c1
  Charge       = 0
  Multiplicity = 1
  Basis Set: AUG-CC-PVTZ
    Blend: AUG-CC-PVTZ
  Basis Set: (AUG-CC-PVTZ AUX)
    Blend: AUG-CC-PVTZ-JKFIT

    Orbital Energies [Eh]
    ---------------------

    Doubly Occupied:

       1A    -20.589456     2A    -11.299924     3A    -11.240167
       4A    -11.234097     5A    -11.233541     6A    -11.231596
       7A    -11.230335     8A    -11.223914     9A     -1.397801
      10A     -1.151776    11A     -1.034654    12A     -1.017224
      13A     -0.925121    14A     -0.847476    15A     -0.798796
      16A     -0.727869    17A     -0.671846    18A     -0.640262
      19A     -0.605309    20A     -0.588675    21A     -0.588341
      22A     -0.574162    23A     -0.568351    24A     -0.530576
      25A     -0.503177    26A     -0.483381    27A     -0.472507
      28A     -0.341904    29A     -0.307784

  @DF-RHF Final Energy:  -344.71647430832843

   => Energetics <=

    Nuclear Repulsion Energy =            342.0254878631474185
    One-Electron Energy =               -1145.3638821868737523
    Two-Electron Energy =                 458.6219200153979045
    Total Energy =                       -344.7164743083284293
  Basis Set: (AUG-CC-PVTZ AUX)
    Blend: AUG-CC-PVTZ-RI
    Molecular point group: c1

    Geometry (in Angstrom), charge = 0, multiplicity = 1:

       Center              X                  Y                   Z               Mass
    ------------   -----------------  -----------------  -----------------  -----------------
         C           -2.948161254062     0.016986125587     0.016470655486    12.000000000000
         C            1.374506745938    -0.011905874413     0.004703655486    12.000000000000
         C            0.684343745938     1.201711125587    -0.002681344514    12.000000000000
         C            0.666190745938    -1.216284874413    -0.002304344514    12.000000000000
         C           -0.712084254062     1.203549125587    -0.008557344514    12.000000000000
         C           -0.725958254062    -1.195601874413    -0.008648344514    12.000000000000
         C           -1.415503854062     0.053060925587    -0.015884644514    12.000000000000
         O            2.747911745938    -0.093796874413     0.009560655486    15.994914619570
         H            1.231415745938     2.144075125587    -0.003007344514     1.007825032230
         H            3.107336745938     0.810676125587     0.012494655486     1.007825032230
         H            1.220153745938    -2.150987874413    -0.002063344514     1.007825032230
         H           -1.238982254062     2.156372125587    -0.017189344514     1.007825032230
         H           -1.268325254062    -2.139869874413    -0.017449344514     1.007825032230
         H           -3.357971254062    -0.813394874413    -0.566030344514     1.007825032230
         H           -3.345952254062     0.947876125587    -0.397634344514     1.007825032230
         H           -3.325689254062    -0.079498874413     1.040390655486     1.007825032230

  Basis Set: AUG-CC-PVTZ
    Blend: AUG-CC-PVTZ
  Basis Set: (AUG-CC-PVTZ AUX)
    Blend: AUG-CC-PVTZ-JKFIT
	 Reference Energy          =    -344.7164743083284293 [Eh]
	 Singles Energy            =      -0.0000000000000000 [Eh]
	 Same-Spin Energy          =      -0.3691863866993078 [Eh]
	 Opposite-Spin Energy      =      -1.1634478210056545 [Eh]
	 Correlation Energy        =      -1.5326342077049624 [Eh]
	 Total Energy              =    -346.2491085160334023 [Eh]

	 ================> DF-SCS-MP2 Energies <==================
	-----------------------------------------------------------
	 SCS Same-Spin Scale       =       0.3333333333333333 [-]
	 SCS Opposite-Spin Scale   =       1.2000000000000000 [-]
	 SCS Same-Spin Energy      =      -0.1230621288997693 [Eh]
	 SCS Opposite-Spin Energy  =      -1.3961373852067853 [Eh]
	 SCS Correlation Energy    =      -1.5191995141065546 [Eh]
	 SCS Total Energy          =    -346.2356738224349897 [Eh]
	-----------------------------------------------------------

  Dipole Moment: [D]
     X:    -0.4404      Y:     1.2274      Z:     0.0333     Total:     1.3044

*** Psi4 exiting successfully. Buy a developer a beer!
