                               Psi4 1.4a3.dev225

  ==> Input File <==

--------------------------------------------------------------------------
#psi4
#
memory 32 gb

molecule  {
0 1
  C       -2.8858990     0.0139170     0.0160750
  C        1.4367690    -0.0149750     0.0043080
  C        0.7713226     1.1551791    -0.0028125
  C        0.7284530    -1.2193540    -0.0027000
  C       -0.6498220     1.2004800    -0.0089530
  C       -0.6636960    -1.1986710    -0.0090440
  C       -1.3793230     0.0073340    -0.0165520
  O        2.8101740    -0.0968660     0.0091650
  H        1.2936780     2.1410060    -0.0034030
  H        3.1695990     0.8076070     0.0120990
  H        1.2824160    -2.1540570    -0.0024590
  H       -1.1767200     2.1533030    -0.0175850
  H       -1.2060630    -2.1429390    -0.0178450
  H       -3.2957090    -0.8164640    -0.5664260
  H       -3.2836900     0.9448070    -0.3980300
  H       -3.2634270    -0.0825680     1.0399950
units angstrom
no_reorient  #important for SAPT in psi4, default
symmetry c1  #important for SAPT in psi4, default
}

set PROPERTIES_ORIGIN ["COM"]
properties('MP2/aug-cc-pvtz', properties = ['dipole'])
--------------------------------------------------------------------------

    Molecular point group: c1
  Charge       = 0
  Multiplicity = 1
  Basis Set: AUG-CC-PVTZ
    Blend: AUG-CC-PVTZ
  Basis Set: (AUG-CC-PVTZ AUX)
    Blend: AUG-CC-PVTZ-JKFIT

    Orbital Energies [Eh]
    ---------------------

    Doubly Occupied:

       1A    -20.587175     2A    -11.293405     3A    -11.240690
       4A    -11.237301     5A    -11.235966     6A    -11.233415
       7A    -11.230748     8A    -11.223805     9A     -1.396876
      10A     -1.151141    11A     -1.041295    12A     -1.013834
      13A     -0.928628    14A     -0.846593    15A     -0.799173
      16A     -0.726958    17A     -0.670329    18A     -0.640068
      19A     -0.605116    20A     -0.589600    21A     -0.583975
      22A     -0.573654    23A     -0.570751    24A     -0.532945
      25A     -0.500590    26A     -0.489107    27A     -0.470375
      28A     -0.338598    29A     -0.310662

  @DF-RHF Final Energy:  -344.71617336392399

   => Energetics <=

    Nuclear Repulsion Energy =            342.3277047369060710
    One-Electron Energy =               -1145.9622046703716478
    Two-Electron Energy =                 458.9183265695415912
    Total Energy =                       -344.7161733639239856
  Basis Set: (AUG-CC-PVTZ AUX)
    Blend: AUG-CC-PVTZ-RI
    Molecular point group: c1

    Geometry (in Angstrom), charge = 0, multiplicity = 1:

       Center              X                  Y                   Z               Mass
    ------------   -----------------  -----------------  -----------------  -----------------
         C           -2.948009690332     0.026549999059     0.016471455060    12.000000000000
         C            1.374658309668    -0.002342000941     0.004704455060    12.000000000000
         C            0.709211909668     1.167812099059    -0.002416044940    12.000000000000
         C            0.666342309668    -1.206721000941    -0.002303544940    12.000000000000
         C           -0.711932690332     1.213112999059    -0.008556544940    12.000000000000
         C           -0.725806690332    -1.186038000941    -0.008647544940    12.000000000000
         C           -1.441433690332     0.019966999059    -0.016155544940    12.000000000000
         O            2.748063309668    -0.084233000941     0.009561455060    15.994914619570
         H            1.231567309668     2.153638999059    -0.003006544940     1.007825032230
         H            3.107488309668     0.820239999059     0.012495455060     1.007825032230
         H            1.220305309668    -2.141424000941    -0.002062544940     1.007825032230
         H           -1.238830690332     2.165935999059    -0.017188544940     1.007825032230
         H           -1.268173690332    -2.130306000941    -0.017448544940     1.007825032230
         H           -3.357819690332    -0.803831000941    -0.566029544940     1.007825032230
         H           -3.345800690332     0.957439999059    -0.397633544940     1.007825032230
         H           -3.325537690332    -0.069935000941     1.040391455060     1.007825032230

  Basis Set: AUG-CC-PVTZ
    Blend: AUG-CC-PVTZ
  Basis Set: (AUG-CC-PVTZ AUX)
    Blend: AUG-CC-PVTZ-JKFIT
	 Reference Energy          =    -344.7161733639239856 [Eh]
	 Singles Energy            =      -0.0000000000000000 [Eh]
	 Same-Spin Energy          =      -0.3694286220730733 [Eh]
	 Opposite-Spin Energy      =      -1.1635936323614973 [Eh]
	 Correlation Energy        =      -1.5330222544345706 [Eh]
	 Total Energy              =    -346.2491956183585557 [Eh]

	 ================> DF-SCS-MP2 Energies <==================
	-----------------------------------------------------------
	 SCS Same-Spin Scale       =       0.3333333333333333 [-]
	 SCS Opposite-Spin Scale   =       1.2000000000000000 [-]
	 SCS Same-Spin Energy      =      -0.1231428740243578 [Eh]
	 SCS Opposite-Spin Energy  =      -1.3963123588337967 [Eh]
	 SCS Correlation Energy    =      -1.5194552328581543 [Eh]
	 SCS Total Energy          =    -346.2356285967821350 [Eh]
	-----------------------------------------------------------

  Dipole Moment: [D]
     X:    -0.5601      Y:     1.2559      Z:     0.0363     Total:     1.3756

*** Psi4 exiting successfully. Buy a developer a beer!
