                               Psi4 1.3.2 release

  ==> Input File <==

--------------------------------------------------------------------------
#psi4
#
memory 32 gb

molecule  {
0 1
 Cl       -1.7654740    -0.3100940    -0.0000140
  O        0.1191480     1.5182110     0.0000140
  C        0.9469290    -0.7644920     0.0000410
  C        2.4005562    -0.3126172    -0.0000292
  C       -0.0820610     0.3337550     0.0000080
  H        0.7528550    -1.3956680     0.8744030
  H        0.7528050    -1.3957990    -0.8742120
  H        2.5431970     0.4048060    -0.8827890
  H        2.5432490     0.4048980     0.8826450
  H        3.0855950    -1.0339960    -0.0000140
units angstrom
no_reorient  #important for SAPT in psi4, default
symmetry c1  #important for SAPT in psi4, default
}

set PROPERTIES_ORIGIN ["COM"]
properties('MP2/aug-cc-pvtz', properties = ['dipole'])
--------------------------------------------------------------------------

    Molecular point group: c1
  Charge       = 0
  Multiplicity = 1
  Basis Set: AUG-CC-PVTZ
    Blend: AUG-CC-PVTZ
  Basis Set: (AUG-CC-PVTZ AUX)
    Blend: AUG-CC-PVTZ-JKFIT

    Orbital Energies [Eh]
    ---------------------

    Doubly Occupied:

       1A   -104.851338     2A    -20.593752     3A    -11.413030
       4A    -11.271449     5A    -11.239723     6A    -10.575754
       7A     -8.042389     8A     -8.040696     9A     -8.040552
      10A     -1.437018    11A     -1.137977    12A     -1.072155
      13A     -0.916392    14A     -0.764340    15A     -0.687337
      16A     -0.656951    17A     -0.655444    18A     -0.597122
      19A     -0.564111    20A     -0.530244    21A     -0.498042
      22A     -0.469107    23A     -0.467177    24A     -0.453008

  @DF-RHF Final Energy:  -650.96276117264438

   => Energetics <=

    Nuclear Repulsion Energy =            212.2410915004948322
    One-Electron Energy =               -1316.4574907702237851
    Two-Electron Energy =                 453.2536380970846039
    Total Energy =                       -650.9627611726443774
  Basis Set: (AUG-CC-PVTZ AUX)
    Blend: AUG-CC-PVTZ-RI
    Molecular point group: c1

    Geometry (in Angstrom), charge = 0, multiplicity = 1:

       Center              X                  Y                   Z               Mass
    ------------   -----------------  -----------------  -----------------  -----------------
         CL          -1.647082956860    -0.326184973500    -0.000014056771    34.968852682000
         O            0.237539043140     1.502120026500     0.000013943229    15.994914619570
         C            1.065320043140    -0.780582973500     0.000040943229    12.000000000000
         C            2.518947243140    -0.328708173500    -0.000029256771    12.000000000000
         C            0.036330043140     0.317664026500     0.000007943229    12.000000000000
         H            0.871246043140    -1.411758973500     0.874402943229     1.007825032230
         H            0.871196043140    -1.411889973500    -0.874212056771     1.007825032230
         H            2.661588043140     0.388715026500    -0.882789056771     1.007825032230
         H            2.661640043140     0.388807026500     0.882644943229     1.007825032230
         H            3.203986043140    -1.050086973500    -0.000014056771     1.007825032230

  Basis Set: AUG-CC-PVTZ
    Blend: AUG-CC-PVTZ
  Basis Set: (AUG-CC-PVTZ AUX)
    Blend: AUG-CC-PVTZ-JKFIT
	 Reference Energy          =    -650.9627611726443774 [Eh]
	 Singles Energy            =      -0.0000000000000000 [Eh]
	 Same-Spin Energy          =      -0.2529424212039041 [Eh]
	 Opposite-Spin Energy      =      -0.8004944451020291 [Eh]
	 Correlation Energy        =      -1.0534368663059333 [Eh]
	 Total Energy              =    -652.0161980389502787 [Eh]

	 ================> DF-SCS-MP2 Energies <==================
	-----------------------------------------------------------
	 SCS Same-Spin Scale       =       0.3333333333333333 [-]
	 SCS Opposite-Spin Scale   =       1.2000000000000000 [-]
	 SCS Same-Spin Energy      =      -0.0843141404013014 [Eh]
	 SCS Opposite-Spin Energy  =      -0.9605933341224349 [Eh]
	 SCS Correlation Energy    =      -1.0449074745237363 [Eh]
	 SCS Total Energy          =    -652.0076686471680887 [Eh]
	-----------------------------------------------------------

  Dipole Moment: [D]
     X:     1.8945      Y:    -2.0669      Z:     0.0000     Total:     2.8037

*** Psi4 exiting successfully. Buy a developer a beer!
