                               Psi4 1.3.2 release

  ==> Input File <==

--------------------------------------------------------------------------
#psi4
#
memory 32 gb

molecule  {
0 1
 Cl       -1.7164607    -0.4259546    -0.0000116
  O        0.1191480     1.5182110     0.0000140
  C        0.9469290    -0.7644920     0.0000410
  C        2.3654940    -0.2123180    -0.0000340
  C       -0.0820610     0.3337550     0.0000080
  H        0.7528550    -1.3956680     0.8744030
  H        0.7528050    -1.3957990    -0.8742120
  H        2.5431970     0.4048060    -0.8827890
  H        2.5432490     0.4048980     0.8826450
  H        3.0855950    -1.0339960    -0.0000140
units angstrom
no_reorient  #important for SAPT in psi4, default
symmetry c1  #important for SAPT in psi4, default
}

set PROPERTIES_ORIGIN ["COM"]
properties('MP2/aug-cc-pvtz', properties = ['dipole'])
--------------------------------------------------------------------------

    Molecular point group: c1
  Charge       = 0
  Multiplicity = 1
  Basis Set: AUG-CC-PVTZ
    Blend: AUG-CC-PVTZ
  Basis Set: (AUG-CC-PVTZ AUX)
    Blend: AUG-CC-PVTZ-JKFIT

    Orbital Energies [Eh]
    ---------------------

    Doubly Occupied:

       1A   -104.850753     2A    -20.596386     3A    -11.412236
       4A    -11.268797     5A    -11.236454     6A    -10.575374
       7A     -8.041996     8A     -8.040320     9A     -8.040173
      10A     -1.437759    11A     -1.141917    12A     -1.069422
      13A     -0.911103    14A     -0.765266    15A     -0.682492
      16A     -0.661261    17A     -0.657952    18A     -0.571403
      19A     -0.563532    20A     -0.540365    21A     -0.516591
      22A     -0.468781    23A     -0.466639    24A     -0.450616

  @DF-RHF Final Energy:  -650.97444915904998

   => Energetics <=

    Nuclear Repulsion Energy =            213.1169633690275020
    One-Electron Energy =               -1318.2476528461816088
    Two-Electron Energy =                 454.1562403181041532
    Total Energy =                       -650.9744491590499820
  Basis Set: (AUG-CC-PVTZ AUX)
    Blend: AUG-CC-PVTZ-RI
    Molecular point group: c1

    Geometry (in Angstrom), charge = 0, multiplicity = 1:

       Center              X                  Y                   Z               Mass
    ------------   -----------------  -----------------  -----------------  -----------------
         CL          -1.612125654802    -0.411090874394    -0.000011942906    34.968852682000
         O            0.223483045198     1.533074725606     0.000013657094    15.994914619570
         C            1.051264045198    -0.749628274394     0.000040657094    12.000000000000
         C            2.469829045198    -0.197454274394    -0.000034342906    12.000000000000
         C            0.022274045198     0.348618725606     0.000007657094    12.000000000000
         H            0.857190045198    -1.380804274394     0.874402657094     1.007825032230
         H            0.857140045198    -1.380935274394    -0.874212342906     1.007825032230
         H            2.647532045198     0.419669725606    -0.882789342906     1.007825032230
         H            2.647584045198     0.419761725606     0.882644657094     1.007825032230
         H            3.189930045198    -1.019132274394    -0.000014342906     1.007825032230

  Basis Set: AUG-CC-PVTZ
    Blend: AUG-CC-PVTZ
  Basis Set: (AUG-CC-PVTZ AUX)
    Blend: AUG-CC-PVTZ-JKFIT
	 Reference Energy          =    -650.9744491590499820 [Eh]
	 Singles Energy            =      -0.0000000000000000 [Eh]
	 Same-Spin Energy          =      -0.2531773429965353 [Eh]
	 Opposite-Spin Energy      =      -0.8004447050985659 [Eh]
	 Correlation Energy        =      -1.0536220480951011 [Eh]
	 Total Energy              =    -652.0280712071451035 [Eh]

	 ================> DF-SCS-MP2 Energies <==================
	-----------------------------------------------------------
	 SCS Same-Spin Scale       =       0.3333333333333333 [-]
	 SCS Opposite-Spin Scale   =       1.2000000000000000 [-]
	 SCS Same-Spin Energy      =      -0.0843924476655118 [Eh]
	 SCS Opposite-Spin Energy  =      -0.9605336461182791 [Eh]
	 SCS Correlation Energy    =      -1.0449260937837908 [Eh]
	 SCS Total Energy          =    -652.0193752528338109 [Eh]
	-----------------------------------------------------------

  Dipole Moment: [D]
     X:     1.8736      Y:    -1.9584      Z:     0.0000     Total:     2.7103

*** Psi4 exiting successfully. Buy a developer a beer!
