                               Psi4 1.3.2 release

  ==> Input File <==

--------------------------------------------------------------------------
#psi4
#
memory 32 gb

molecule  {
0 1
 Cl       -1.7654740    -0.3100940    -0.0000140
  O        0.1191480     1.5182110     0.0000140
  C        0.9469290    -0.7644920     0.0000410
  C        2.3654940    -0.2123180    -0.0000340
  C       -0.1504333     0.4067292     0.0000058
  H        0.7528550    -1.3956680     0.8744030
  H        0.7528050    -1.3957990    -0.8742120
  H        2.5431970     0.4048060    -0.8827890
  H        2.5432490     0.4048980     0.8826450
  H        3.0855950    -1.0339960    -0.0000140
units angstrom
no_reorient  #important for SAPT in psi4, default
symmetry c1  #important for SAPT in psi4, default
}

set PROPERTIES_ORIGIN ["COM"]
properties('MP2/aug-cc-pvtz', properties = ['dipole'])
--------------------------------------------------------------------------

    Molecular point group: c1
  Charge       = 0
  Multiplicity = 1
  Basis Set: AUG-CC-PVTZ
    Blend: AUG-CC-PVTZ
  Basis Set: (AUG-CC-PVTZ AUX)
    Blend: AUG-CC-PVTZ-JKFIT

    Orbital Energies [Eh]
    ---------------------

    Doubly Occupied:

       1A   -104.851510     2A    -20.594989     3A    -11.401210
       4A    -11.267024     5A    -11.233031     6A    -10.576759
       7A     -8.043439     8A     -8.041665     9A     -8.041507
      10A     -1.477793    11A     -1.142631    12A     -1.055954
      13A     -0.892889    14A     -0.766459    15A     -0.689812
      16A     -0.666808    17A     -0.655528    18A     -0.588882
      19A     -0.564972    20A     -0.537255    21A     -0.514562
      22A     -0.472674    23A     -0.470200    24A     -0.433915

  @DF-RHF Final Energy:  -650.97201220530292

   => Energetics <=

    Nuclear Repulsion Energy =            213.1880169499666238
    One-Electron Energy =               -1318.3571211125379250
    Two-Electron Energy =                 454.1970919572683556
    Total Energy =                       -650.9720122053029172
  Basis Set: (AUG-CC-PVTZ AUX)
    Blend: AUG-CC-PVTZ-RI
    Molecular point group: c1

    Geometry (in Angstrom), charge = 0, multiplicity = 1:

       Center              X                  Y                   Z               Mass
    ------------   -----------------  -----------------  -----------------  -----------------
         CL          -1.633591924494    -0.348785141216    -0.000013143756    34.968852682000
         O            0.251030075506     1.479519858784     0.000014856244    15.994914619570
         C            1.078811075506    -0.803183141216     0.000041856244    12.000000000000
         C            2.497376075506    -0.251009141216    -0.000033143756    12.000000000000
         C           -0.018551224494     0.368038058784     0.000006656244    12.000000000000
         H            0.884737075506    -1.434359141216     0.874403856244     1.007825032230
         H            0.884687075506    -1.434490141216    -0.874211143756     1.007825032230
         H            2.675079075506     0.366114858784    -0.882788143756     1.007825032230
         H            2.675131075506     0.366206858784     0.882645856244     1.007825032230
         H            3.217477075506    -1.072687141216    -0.000013143756     1.007825032230

  Basis Set: AUG-CC-PVTZ
    Blend: AUG-CC-PVTZ
  Basis Set: (AUG-CC-PVTZ AUX)
    Blend: AUG-CC-PVTZ-JKFIT
	 Reference Energy          =    -650.9720122053029172 [Eh]
	 Singles Energy            =      -0.0000000000000000 [Eh]
	 Same-Spin Energy          =      -0.2510286699507464 [Eh]
	 Opposite-Spin Energy      =      -0.7962988870336947 [Eh]
	 Correlation Energy        =      -1.0473275569844409 [Eh]
	 Total Energy              =    -652.0193397622873590 [Eh]

	 ================> DF-SCS-MP2 Energies <==================
	-----------------------------------------------------------
	 SCS Same-Spin Scale       =       0.3333333333333333 [-]
	 SCS Opposite-Spin Scale   =       1.2000000000000000 [-]
	 SCS Same-Spin Energy      =      -0.0836762233169154 [Eh]
	 SCS Opposite-Spin Energy  =      -0.9555586644404336 [Eh]
	 SCS Correlation Energy    =      -1.0392348877573490 [Eh]
	 SCS Total Energy          =    -652.0112470930603195 [Eh]
	-----------------------------------------------------------

  Dipole Moment: [D]
     X:     1.5695      Y:    -1.7216      Z:     0.0000     Total:     2.3297

*** Psi4 exiting successfully. Buy a developer a beer!
