                               Psi4 1.3.2 release

  ==> Input File <==

--------------------------------------------------------------------------
#psi4
#
memory 32 gb

molecule  {
0 1
 Cl       -1.7419785    -0.3684521    -0.0000128
  O        0.1191480     1.5182110     0.0000140
  C        0.9469290    -0.7644920     0.0000410
  C        2.3654940    -0.2123180    -0.0000340
  C       -0.0820610     0.3337550     0.0000080
  H        0.7528550    -1.3956680     0.8744030
  H        0.7528050    -1.3957990    -0.8742120
  H        2.5431970     0.4048060    -0.8827890
  H        2.5432490     0.4048980     0.8826450
  H        3.0855950    -1.0339960    -0.0000140
units angstrom
no_reorient  #important for SAPT in psi4, default
symmetry c1  #important for SAPT in psi4, default
}

set PROPERTIES_ORIGIN ["COM"]
properties('MP2/aug-cc-pvtz', properties = ['dipole'])
--------------------------------------------------------------------------

    Molecular point group: c1
  Charge       = 0
  Multiplicity = 1
  Basis Set: AUG-CC-PVTZ
    Blend: AUG-CC-PVTZ
  Basis Set: (AUG-CC-PVTZ AUX)
    Blend: AUG-CC-PVTZ-JKFIT

    Orbital Energies [Eh]
    ---------------------

    Doubly Occupied:

       1A   -104.850121     2A    -20.594715     3A    -11.411585
       4A    -11.270116     5A    -11.237370     6A    -10.574684
       7A     -8.041309     8A     -8.039635     9A     -8.039488
      10A     -1.437155    11A     -1.139400    12A     -1.070884
      13A     -0.911872    14A     -0.764864    15A     -0.683233
      16A     -0.661443    17A     -0.656430    18A     -0.571320
      19A     -0.563820    20A     -0.540548    21A     -0.516984
      22A     -0.467696    23A     -0.466286    24A     -0.451075

  @DF-RHF Final Energy:  -650.97572337594659

   => Energetics <=

    Nuclear Repulsion Energy =            212.9159317043494468
    One-Electron Energy =               -1317.8592471562776609
    Two-Electron Energy =                 453.9675920759816563
    Total Energy =                       -650.9757233759464725
  Basis Set: (AUG-CC-PVTZ AUX)
    Blend: AUG-CC-PVTZ-RI
    Molecular point group: c1

    Geometry (in Angstrom), charge = 0, multiplicity = 1:

       Center              X                  Y                   Z               Mass
    ------------   -----------------  -----------------  -----------------  -----------------
         CL          -1.627944540289    -0.375444170419    -0.000012686805    34.968852682000
         O            0.233181959711     1.511218929581     0.000014113195    15.994914619570
         C            1.060962959711    -0.771484070419     0.000041113195    12.000000000000
         C            2.479527959711    -0.219310070419    -0.000033886805    12.000000000000
         C            0.031972959711     0.326762929581     0.000008113195    12.000000000000
         H            0.866888959711    -1.402660070419     0.874403113195     1.007825032230
         H            0.866838959711    -1.402791070419    -0.874211886805     1.007825032230
         H            2.657230959711     0.397813929581    -0.882788886805     1.007825032230
         H            2.657282959711     0.397905929581     0.882645113195     1.007825032230
         H            3.199628959711    -1.040988070419    -0.000013886805     1.007825032230

  Basis Set: AUG-CC-PVTZ
    Blend: AUG-CC-PVTZ
  Basis Set: (AUG-CC-PVTZ AUX)
    Blend: AUG-CC-PVTZ-JKFIT
	 Reference Energy          =    -650.9757233759465862 [Eh]
	 Singles Energy            =      -0.0000000000000000 [Eh]
	 Same-Spin Energy          =      -0.2529876587874164 [Eh]
	 Opposite-Spin Energy      =      -0.8001235495915180 [Eh]
	 Correlation Energy        =      -1.0531112083789345 [Eh]
	 Total Energy              =    -652.0288345843255229 [Eh]

	 ================> DF-SCS-MP2 Energies <==================
	-----------------------------------------------------------
	 SCS Same-Spin Scale       =       0.3333333333333333 [-]
	 SCS Opposite-Spin Scale   =       1.2000000000000000 [-]
	 SCS Same-Spin Energy      =      -0.0843292195958055 [Eh]
	 SCS Opposite-Spin Energy  =      -0.9601482595098215 [Eh]
	 SCS Correlation Energy    =      -1.0444774791056270 [Eh]
	 SCS Total Energy          =    -652.0202008550521668 [Eh]
	-----------------------------------------------------------

  Dipole Moment: [D]
     X:     1.9118      Y:    -1.9993      Z:     0.0000     Total:     2.7663

*** Psi4 exiting successfully. Buy a developer a beer!
