                               Psi4 1.3.2 release

  ==> Input File <==

--------------------------------------------------------------------------
#psi4
#
memory 32 gb

molecule  {
0 1
 Cl       -1.7654740    -0.3100940    -0.0000140
  O        0.1191480     1.5182110     0.0000140
  C        0.9469290    -0.7644920     0.0000410
  C        2.3654940    -0.2123180    -0.0000340
  C       -0.2688643     0.2623090     0.0000056
  H        0.7528550    -1.3956680     0.8744030
  H        0.7528050    -1.3957990    -0.8742120
  H        2.5431970     0.4048060    -0.8827890
  H        2.5432490     0.4048980     0.8826450
  H        3.0855950    -1.0339960    -0.0000140
units angstrom
no_reorient  #important for SAPT in psi4, default
symmetry c1  #important for SAPT in psi4, default
}

set PROPERTIES_ORIGIN ["COM"]
properties('MP2/aug-cc-pvtz', properties = ['dipole'])
--------------------------------------------------------------------------

    Molecular point group: c1
  Charge       = 0
  Multiplicity = 1
  Basis Set: AUG-CC-PVTZ
    Blend: AUG-CC-PVTZ
  Basis Set: (AUG-CC-PVTZ AUX)
    Blend: AUG-CC-PVTZ-JKFIT

    Orbital Energies [Eh]
    ---------------------

    Doubly Occupied:

       1A   -104.890593     2A    -20.564128     3A    -11.407997
       4A    -11.265942     5A    -11.229237     6A    -10.617995
       7A     -8.085121     8A     -8.082750     9A     -8.082418
      10A     -1.353514    11A     -1.207108    12A     -1.052658
      13A     -0.898173    14A     -0.769253    15A     -0.666112
      16A     -0.644788    17A     -0.632626    18A     -0.570171
      19A     -0.562879    20A     -0.526985    21A     -0.506730
      22A     -0.484115    23A     -0.454995    24A     -0.438058

  @DF-RHF Final Energy:  -650.92944908517177

   => Energetics <=

    Nuclear Repulsion Energy =            213.2904372418593368
    One-Electron Energy =               -1318.4510803567507082
    Two-Electron Energy =                 454.2311940297196315
    Total Energy =                       -650.9294490851717683
  Basis Set: (AUG-CC-PVTZ AUX)
    Blend: AUG-CC-PVTZ-RI
    Molecular point group: c1

    Geometry (in Angstrom), charge = 0, multiplicity = 1:

       Center              X                  Y                   Z               Mass
    ------------   -----------------  -----------------  -----------------  -----------------
         CL          -1.618144888406    -0.329948316051    -0.000013117670    34.968852682000
         O            0.266477111594     1.498356683949     0.000014882330    15.994914619570
         C            1.094258111594    -0.784346316051     0.000041882330    12.000000000000
         C            2.512823111594    -0.232172316051    -0.000033117670    12.000000000000
         C           -0.121535188406     0.242454683949     0.000006482330    12.000000000000
         H            0.900184111594    -1.415522316051     0.874403882330     1.007825032230
         H            0.900134111594    -1.415653316051    -0.874211117670     1.007825032230
         H            2.690526111594     0.384951683949    -0.882788117670     1.007825032230
         H            2.690578111594     0.385043683949     0.882645882330     1.007825032230
         H            3.232924111594    -1.053850316051    -0.000013117670     1.007825032230

  Basis Set: AUG-CC-PVTZ
    Blend: AUG-CC-PVTZ
  Basis Set: (AUG-CC-PVTZ AUX)
    Blend: AUG-CC-PVTZ-JKFIT
	 Reference Energy          =    -650.9294490851717683 [Eh]
	 Singles Energy            =      -0.0000000000000000 [Eh]
	 Same-Spin Energy          =      -0.2564401441835463 [Eh]
	 Opposite-Spin Energy      =      -0.8072780630569881 [Eh]
	 Correlation Energy        =      -1.0637182072405345 [Eh]
	 Total Energy              =    -651.9931672924122950 [Eh]

	 ================> DF-SCS-MP2 Energies <==================
	-----------------------------------------------------------
	 SCS Same-Spin Scale       =       0.3333333333333333 [-]
	 SCS Opposite-Spin Scale   =       1.2000000000000000 [-]
	 SCS Same-Spin Energy      =      -0.0854800480611821 [Eh]
	 SCS Opposite-Spin Energy  =      -0.9687336756683858 [Eh]
	 SCS Correlation Energy    =      -1.0542137237295679 [Eh]
	 SCS Total Energy          =    -651.9836628089013857 [Eh]
	-----------------------------------------------------------

  Dipole Moment: [D]
     X:     0.2067      Y:    -2.6762      Z:     0.0000     Total:     2.6842

*** Psi4 exiting successfully. Buy a developer a beer!
