                               Psi4 1.4a3.dev225

  ==> Input File <==

--------------------------------------------------------------------------
#psi4
#
memory 32 gb

molecule  {
0 1
 Cl       -1.7654670    -0.3100810     0.0000010
  O        0.1191580     1.5181910     0.0000000
  C        0.9469270    -0.7644920    -0.0000020
  C        2.3654840    -0.2123060     0.0000020
  C       -0.0787202     0.3534475    -0.0000010
  H        0.7528160    -1.3957640     0.8742890
  H        0.7528180    -1.3957580    -0.8742970
  H        2.5431990     0.4048750    -0.8827100
  H        2.5431990     0.4048640     0.8827220
  H        3.0856000    -1.0339670    -0.0000030
units angstrom
no_reorient  #important for SAPT in psi4, default
symmetry c1  #important for SAPT in psi4, default
}

set PROPERTIES_ORIGIN ["COM"]
properties('MP2/aug-cc-pvtz', properties = ['dipole'])
--------------------------------------------------------------------------

    Molecular point group: c1
  Charge       = 0
  Multiplicity = 1
  Basis Set: AUG-CC-PVTZ
    Blend: AUG-CC-PVTZ
  Basis Set: (AUG-CC-PVTZ AUX)
    Blend: AUG-CC-PVTZ-JKFIT

    Orbital Energies [Eh]
    ---------------------

    Doubly Occupied:

       1A   -104.845396     2A    -20.596272     3A    -11.409517
       4A    -11.271810     5A    -11.238277     6A    -10.569980
       7A     -8.036587     8A     -8.034942     9A     -8.034805
      10A     -1.452394    11A     -1.132629    12A     -1.070396
      13A     -0.910168    14A     -0.766030    15A     -0.687636
      16A     -0.662291    17A     -0.658601    18A     -0.577133
      19A     -0.565346    20A     -0.541693    21A     -0.518976
      22A     -0.465482    23A     -0.463403    24A     -0.448165

  @DF-RHF Final Energy:  -650.97814062288182

   => Energetics <=

    Nuclear Repulsion Energy =            212.8149945819320124
    One-Electron Energy =               -1317.6704173102039022
    Two-Electron Energy =                 453.8772821053900088
    Total Energy =                       -650.9781406228818241
  Basis Set: (AUG-CC-PVTZ AUX)
    Blend: AUG-CC-PVTZ-RI
    Molecular point group: c1

    Geometry (in Angstrom), charge = 0, multiplicity = 1:

       Center              X                  Y                   Z               Mass
    ------------   -----------------  -----------------  -----------------  -----------------
         CL          -1.642940591127    -0.341825700559     0.000000739392    34.968852682000
         O            0.241684408873     1.486446299441    -0.000000260608    15.994914619570
         C            1.069453408873    -0.796236700559    -0.000002260608    12.000000000000
         C            2.488010408873    -0.244050700559     0.000001739392    12.000000000000
         C            0.043806208873     0.321702799441    -0.000001260608    12.000000000000
         H            0.875342408873    -1.427508700559     0.874288739392     1.007825032230
         H            0.875344408873    -1.427502700559    -0.874297260608     1.007825032230
         H            2.665725408873     0.373130299441    -0.882710260608     1.007825032230
         H            2.665725408873     0.373119299441     0.882721739392     1.007825032230
         H            3.208126408873    -1.065711700559    -0.000003260608     1.007825032230

  Basis Set: AUG-CC-PVTZ
    Blend: AUG-CC-PVTZ
  Basis Set: (AUG-CC-PVTZ AUX)
    Blend: AUG-CC-PVTZ-JKFIT
	 Reference Energy          =    -650.9781406228818241 [Eh]
	 Singles Energy            =      -0.0000000000000000 [Eh]
	 Same-Spin Energy          =      -0.2522449725523137 [Eh]
	 Opposite-Spin Energy      =      -0.7986249420476019 [Eh]
	 Correlation Energy        =      -1.0508699145999156 [Eh]
	 Total Energy              =    -652.0290105374817813 [Eh]

	 ================> DF-SCS-MP2 Energies <==================
	-----------------------------------------------------------
	 SCS Same-Spin Scale       =       0.3333333333333333 [-]
	 SCS Opposite-Spin Scale   =       1.2000000000000000 [-]
	 SCS Same-Spin Energy      =      -0.0840816575174379 [Eh]
	 SCS Opposite-Spin Energy  =      -0.9583499304571222 [Eh]
	 SCS Correlation Energy    =      -1.0424315879745600 [Eh]
	 SCS Total Energy          =    -652.0205722108563577 [Eh]
	-----------------------------------------------------------

  Dipole Moment: [D]
     X:     2.0537      Y:    -1.9180      Z:    -0.0000     Total:     2.8100

*** Psi4 exiting successfully. Buy a developer a beer!
