                               Psi4 1.3.2 release

  ==> Input File <==

--------------------------------------------------------------------------
#psi4
#
memory 32 gb

molecule  {
0 1
 Cl       -1.7654740    -0.3100940    -0.0000140
  O        0.1191480     1.5182110     0.0000140
  C        0.9469290    -0.7644920     0.0000410
  C        2.3654940    -0.2123180    -0.0000340
  C       -0.2188056     0.4797033     0.0000036
  H        0.7528550    -1.3956680     0.8744030
  H        0.7528050    -1.3957990    -0.8742120
  H        2.5431970     0.4048060    -0.8827890
  H        2.5432490     0.4048980     0.8826450
  H        3.0855950    -1.0339960    -0.0000140
units angstrom
no_reorient  #important for SAPT in psi4, default
symmetry c1  #important for SAPT in psi4, default
}

set PROPERTIES_ORIGIN ["COM"]
properties('MP2/aug-cc-pvtz', properties = ['dipole'])
--------------------------------------------------------------------------

    Molecular point group: c1
  Charge       = 0
  Multiplicity = 1
  Basis Set: AUG-CC-PVTZ
    Blend: AUG-CC-PVTZ
  Basis Set: (AUG-CC-PVTZ AUX)
    Blend: AUG-CC-PVTZ-JKFIT

    Orbital Energies [Eh]
    ---------------------

    Doubly Occupied:

       1A   -104.854894     2A    -20.597959     3A    -11.393953
       4A    -11.259109     5A    -11.227718     6A    -10.580718
       7A     -8.047445     8A     -8.045531     9A     -8.045364
      10A     -1.518531    11A     -1.151344    12A     -1.041255
      13A     -0.874532    14A     -0.770533    15A     -0.701314
      16A     -0.676770    17A     -0.658744    18A     -0.601720
      19A     -0.563863    20A     -0.533761    21A     -0.509354
      22A     -0.478406    23A     -0.476348    24A     -0.406773

  @DF-RHF Final Energy:  -650.94418849934618

   => Energetics <=

    Nuclear Repulsion Energy =            213.6568870038132957
    One-Electron Energy =               -1319.1702771458878942
    Two-Electron Energy =                 454.5692016427283306
    Total Energy =                       -650.9441884993461827
  Basis Set: (AUG-CC-PVTZ AUX)
    Blend: AUG-CC-PVTZ-RI
    Molecular point group: c1

    Geometry (in Angstrom), charge = 0, multiplicity = 1:

       Center              X                  Y                   Z               Mass
    ------------   -----------------  -----------------  -----------------  -----------------
         CL          -1.624674078782    -0.358303202839    -0.000012856809    34.968852682000
         O            0.259947921218     1.470001797161     0.000015143191    15.994914619570
         C            1.087728921218    -0.812701202839     0.000042143191    12.000000000000
         C            2.506293921218    -0.260527202839    -0.000032856809    12.000000000000
         C           -0.078005678782     0.431494097161     0.000004743191    12.000000000000
         H            0.893654921218    -1.443877202839     0.874404143191     1.007825032230
         H            0.893604921218    -1.444008202839    -0.874210856809     1.007825032230
         H            2.683996921218     0.356596797161    -0.882787856809     1.007825032230
         H            2.684048921218     0.356688797161     0.882646143191     1.007825032230
         H            3.226394921218    -1.082205202839    -0.000012856809     1.007825032230

  Basis Set: AUG-CC-PVTZ
    Blend: AUG-CC-PVTZ
  Basis Set: (AUG-CC-PVTZ AUX)
    Blend: AUG-CC-PVTZ-JKFIT
	 Reference Energy          =    -650.9441884993461827 [Eh]
	 Singles Energy            =      -0.0000000000000000 [Eh]
	 Same-Spin Energy          =      -0.2501723926399589 [Eh]
	 Opposite-Spin Energy      =      -0.7945828529880080 [Eh]
	 Correlation Energy        =      -1.0447552456279670 [Eh]
	 Total Energy              =    -651.9889437449741081 [Eh]

	 ================> DF-SCS-MP2 Energies <==================
	-----------------------------------------------------------
	 SCS Same-Spin Scale       =       0.3333333333333333 [-]
	 SCS Opposite-Spin Scale   =       1.2000000000000000 [-]
	 SCS Same-Spin Energy      =      -0.0833907975466530 [Eh]
	 SCS Opposite-Spin Energy  =      -0.9534994235856096 [Eh]
	 SCS Correlation Energy    =      -1.0368902211322626 [Eh]
	 SCS Total Energy          =    -651.9810787204784219 [Eh]
	-----------------------------------------------------------

  Dipole Moment: [D]
     X:     1.1577      Y:    -1.3575      Z:     0.0000     Total:     1.7842

*** Psi4 exiting successfully. Buy a developer a beer!
