                               Psi4 1.3.2 release

  ==> Input File <==

--------------------------------------------------------------------------
#psi4
#
memory 32 gb

molecule  {
0 1
 Cl       -1.7539809    -0.3393755    -0.0000134
  O        0.1191480     1.5182110     0.0000140
  C        0.9469290    -0.7644920     0.0000410
  C        2.3654940    -0.2123180    -0.0000340
  C       -0.0820610     0.3337550     0.0000080
  H        0.7528550    -1.3956680     0.8744030
  H        0.7528050    -1.3957990    -0.8742120
  H        2.5431970     0.4048060    -0.8827890
  H        2.5432490     0.4048980     0.8826450
  H        3.0855950    -1.0339960    -0.0000140
units angstrom
no_reorient  #important for SAPT in psi4, default
symmetry c1  #important for SAPT in psi4, default
}

set PROPERTIES_ORIGIN ["COM"]
properties('MP2/aug-cc-pvtz', properties = ['dipole'])
--------------------------------------------------------------------------

    Molecular point group: c1
  Charge       = 0
  Multiplicity = 1
  Basis Set: AUG-CC-PVTZ
    Blend: AUG-CC-PVTZ
  Basis Set: (AUG-CC-PVTZ AUX)
    Blend: AUG-CC-PVTZ-JKFIT

    Orbital Energies [Eh]
    ---------------------

    Doubly Occupied:

       1A   -104.849770     2A    -20.593876     3A    -11.411263
       4A    -11.270771     5A    -11.237814     6A    -10.574308
       7A     -8.040936     8A     -8.039261     9A     -8.039114
      10A     -1.436872    11A     -1.138152    12A     -1.071593
      13A     -0.912247    14A     -0.764675    15A     -0.683599
      16A     -0.661550    17A     -0.655656    18A     -0.571276
      19A     -0.563984    20A     -0.540662    21A     -0.517200
      22A     -0.467105    23A     -0.466204    24A     -0.451059

  @DF-RHF Final Energy:  -650.97612534236714

   => Energetics <=

    Nuclear Repulsion Energy =            212.8285124519797478
    One-Electron Energy =               -1317.6913784799128280
    Two-Electron Energy =                 453.8867406855658828
    Total Energy =                       -650.9761253423671405
  Basis Set: (AUG-CC-PVTZ AUX)
    Blend: AUG-CC-PVTZ-RI
    Molecular point group: c1

    Geometry (in Angstrom), charge = 0, multiplicity = 1:

       Center              X                  Y                   Z               Mass
    ------------   -----------------  -----------------  -----------------  -----------------
         CL          -1.635385016787    -0.357419128850    -0.000013058754    34.968852682000
         O            0.237743883213     1.500167371150     0.000014341246    15.994914619570
         C            1.065524883213    -0.782535628850     0.000041341246    12.000000000000
         C            2.484089883213    -0.230361628850    -0.000033658754    12.000000000000
         C            0.036534883213     0.315711371150     0.000008341246    12.000000000000
         H            0.871450883213    -1.413711628850     0.874403341246     1.007825032230
         H            0.871400883213    -1.413842628850    -0.874211658754     1.007825032230
         H            2.661792883213     0.386762371150    -0.882788658754     1.007825032230
         H            2.661844883213     0.386854371150     0.882645341246     1.007825032230
         H            3.204190883213    -1.052039628850    -0.000013658754     1.007825032230

  Basis Set: AUG-CC-PVTZ
    Blend: AUG-CC-PVTZ
  Basis Set: (AUG-CC-PVTZ AUX)
    Blend: AUG-CC-PVTZ-JKFIT
	 Reference Energy          =    -650.9761253423671405 [Eh]
	 Singles Energy            =      -0.0000000000000000 [Eh]
	 Same-Spin Energy          =      -0.2529015827520020 [Eh]
	 Opposite-Spin Energy      =      -0.7999811176556819 [Eh]
	 Correlation Energy        =      -1.0528827004076839 [Eh]
	 Total Energy              =    -652.0290080427748762 [Eh]

	 ================> DF-SCS-MP2 Energies <==================
	-----------------------------------------------------------
	 SCS Same-Spin Scale       =       0.3333333333333333 [-]
	 SCS Opposite-Spin Scale   =       1.2000000000000000 [-]
	 SCS Same-Spin Energy      =      -0.0843005275840007 [Eh]
	 SCS Opposite-Spin Energy  =      -0.9599773411868182 [Eh]
	 SCS Correlation Energy    =      -1.0442778687708190 [Eh]
	 SCS Total Energy          =    -652.0204032111379320 [Eh]
	-----------------------------------------------------------

  Dipole Moment: [D]
     X:     1.9310      Y:    -2.0198      Z:     0.0000     Total:     2.7944

*** Psi4 exiting successfully. Buy a developer a beer!
