                               Psi4 1.4a3.dev225

  ==> Input File <==

--------------------------------------------------------------------------
#psi4
#
memory 32 gb

molecule  {
0 1
 Cl       -1.7654670    -0.3100810     0.0000010
  O        0.1191580     1.5181910     0.0000000
  C        0.9469270    -0.7644920    -0.0000020
  C        2.3654840    -0.2123060     0.0000020
  C       -0.0353689     0.3515907    -0.0000011
  H        0.7528160    -1.3957640     0.8742890
  H        0.7528180    -1.3957580    -0.8742970
  H        2.5431990     0.4048750    -0.8827100
  H        2.5431990     0.4048640     0.8827220
  H        3.0856000    -1.0339670    -0.0000030
units angstrom
no_reorient  #important for SAPT in psi4, default
symmetry c1  #important for SAPT in psi4, default
}

set PROPERTIES_ORIGIN ["COM"]
properties('MP2/aug-cc-pvtz', properties = ['dipole'])
--------------------------------------------------------------------------

    Molecular point group: c1
  Charge       = 0
  Multiplicity = 1
  Basis Set: AUG-CC-PVTZ
    Blend: AUG-CC-PVTZ
  Basis Set: (AUG-CC-PVTZ AUX)
    Blend: AUG-CC-PVTZ-JKFIT

    Orbital Energies [Eh]
    ---------------------

    Doubly Occupied:

       1A   -104.836368     2A    -20.601685     3A    -11.412781
       4A    -11.274499     5A    -11.241425     6A    -10.560744
       7A     -8.027287     8A     -8.025742     9A     -8.025626
      10A     -1.459666    11A     -1.125430    12A     -1.073808
      13A     -0.916370    14A     -0.768982    15A     -0.692960
      16A     -0.668320    17A     -0.658975    18A     -0.579406
      19A     -0.566895    20A     -0.545950    21A     -0.522864
      22A     -0.459369    23A     -0.457256    24A     -0.446857

  @DF-RHF Final Energy:  -650.97708092868891

   => Energetics <=

    Nuclear Repulsion Energy =            212.7196246107844786
    One-Electron Energy =               -1317.4948768686165295
    Two-Electron Energy =                 453.7981713291430879
    Total Energy =                       -650.9770809286890199
  Basis Set: (AUG-CC-PVTZ AUX)
    Blend: AUG-CC-PVTZ-RI
    Molecular point group: c1

    Geometry (in Angstrom), charge = 0, multiplicity = 1:

       Center              X                  Y                   Z               Mass
    ------------   -----------------  -----------------  -----------------  -----------------
         CL          -1.648594930747    -0.341583516869     0.000000752435    34.968852682000
         O            0.236030069253     1.486688483131    -0.000000247565    15.994914619570
         C            1.063799069253    -0.795994516869    -0.000002247565    12.000000000000
         C            2.482356069253    -0.243808516869     0.000001752435    12.000000000000
         C            0.081503169253     0.320088183131    -0.000001347565    12.000000000000
         H            0.869688069253    -1.427266516869     0.874288752435     1.007825032230
         H            0.869690069253    -1.427260516869    -0.874297247565     1.007825032230
         H            2.660071069253     0.373372483131    -0.882710247565     1.007825032230
         H            2.660071069253     0.373361483131     0.882721752435     1.007825032230
         H            3.202472069253    -1.065469516869    -0.000003247565     1.007825032230

  Basis Set: AUG-CC-PVTZ
    Blend: AUG-CC-PVTZ
  Basis Set: (AUG-CC-PVTZ AUX)
    Blend: AUG-CC-PVTZ-JKFIT
	 Reference Energy          =    -650.9770809286889062 [Eh]
	 Singles Energy            =      -0.0000000000000000 [Eh]
	 Same-Spin Energy          =      -0.2524349983751379 [Eh]
	 Opposite-Spin Energy      =      -0.7987931736414775 [Eh]
	 Correlation Energy        =      -1.0512281720166154 [Eh]
	 Total Energy              =    -652.0283091007055418 [Eh]

	 ================> DF-SCS-MP2 Energies <==================
	-----------------------------------------------------------
	 SCS Same-Spin Scale       =       0.3333333333333333 [-]
	 SCS Opposite-Spin Scale   =       1.2000000000000000 [-]
	 SCS Same-Spin Energy      =      -0.0841449994583793 [Eh]
	 SCS Opposite-Spin Energy  =      -0.9585518083697729 [Eh]
	 SCS Correlation Energy    =      -1.0426968078281522 [Eh]
	 SCS Total Energy          =    -652.0197777365170850 [Eh]
	-----------------------------------------------------------

  Dipole Moment: [D]
     X:     2.4660      Y:    -1.8506      Z:    -0.0000     Total:     3.0831

*** Psi4 exiting successfully. Buy a developer a beer!
