                               Psi4 1.3.2 release

  ==> Input File <==

--------------------------------------------------------------------------
#psi4
#
memory 32 gb

molecule  {
0 1
 Cl       -1.6889515    -0.4825315    -0.0000136
  O        0.1191480     1.5182110     0.0000140
  C        0.9469290    -0.7644920     0.0000410
  C        2.3654940    -0.2123180    -0.0000340
  C       -0.0820610     0.3337550     0.0000080
  H        0.7528550    -1.3956680     0.8744030
  H        0.7528050    -1.3957990    -0.8742120
  H        2.5431970     0.4048060    -0.8827890
  H        2.5432490     0.4048980     0.8826450
  H        3.0855950    -1.0339960    -0.0000140
units angstrom
no_reorient  #important for SAPT in psi4, default
symmetry c1  #important for SAPT in psi4, default
}

set PROPERTIES_ORIGIN ["COM"]
properties('MP2/aug-cc-pvtz', properties = ['dipole'])
--------------------------------------------------------------------------

    Molecular point group: c1
  Charge       = 0
  Multiplicity = 1
  Basis Set: AUG-CC-PVTZ
    Blend: AUG-CC-PVTZ
  Basis Set: (AUG-CC-PVTZ AUX)
    Blend: AUG-CC-PVTZ-JKFIT

    Orbital Energies [Eh]
    ---------------------

    Doubly Occupied:

       1A   -104.851290     2A    -20.598049     3A    -11.412895
       4A    -11.267469     5A    -11.235497     6A    -10.575983
       7A     -8.042598     8A     -8.040918     9A     -8.040773
      10A     -1.438408    11A     -1.144476    12A     -1.067900
      13A     -0.910307    14A     -0.765707    15A     -0.681739
      16A     -0.661128    17A     -0.659438    18A     -0.571477
      19A     -0.563310    20A     -0.540252    21A     -0.516261
      22A     -0.469724    23A     -0.467132    24A     -0.449591

  @DF-RHF Final Energy:  -650.97252931170988

   => Energetics <=

    Nuclear Repulsion Energy =            213.3533809552130549
    One-Electron Energy =               -1318.7071792612941863
    Two-Electron Energy =                 454.3812689943712826
    Total Energy =                       -650.9725293117098772
  Basis Set: (AUG-CC-PVTZ AUX)
    Blend: AUG-CC-PVTZ-RI
    Molecular point group: c1

    Geometry (in Angstrom), charge = 0, multiplicity = 1:

       Center              X                  Y                   Z               Mass
    ------------   -----------------  -----------------  -----------------  -----------------
         CL          -1.595072269141    -0.446163784375    -0.000013182737    34.968852682000
         O            0.213027230859     1.554578715625     0.000014417263    15.994914619570
         C            1.040808230859    -0.728124284375     0.000041417263    12.000000000000
         C            2.459373230859    -0.175950284375    -0.000033582737    12.000000000000
         C            0.011818230859     0.370122715625     0.000008417263    12.000000000000
         H            0.846734230859    -1.359300284375     0.874403417263     1.007825032230
         H            0.846684230859    -1.359431284375    -0.874211582737     1.007825032230
         H            2.637076230859     0.441173715625    -0.882788582737     1.007825032230
         H            2.637128230859     0.441265715625     0.882645417263     1.007825032230
         H            3.179474230859    -0.997628284375    -0.000013582737     1.007825032230

  Basis Set: AUG-CC-PVTZ
    Blend: AUG-CC-PVTZ
  Basis Set: (AUG-CC-PVTZ AUX)
    Blend: AUG-CC-PVTZ-JKFIT
	 Reference Energy          =    -650.9725293117098772 [Eh]
	 Singles Energy            =      -0.0000000000000000 [Eh]
	 Same-Spin Energy          =      -0.2533916554637610 [Eh]
	 Opposite-Spin Energy      =      -0.8008156413437767 [Eh]
	 Correlation Energy        =      -1.0542072968075376 [Eh]
	 Total Energy              =    -652.0267366085174672 [Eh]

	 ================> DF-SCS-MP2 Energies <==================
	-----------------------------------------------------------
	 SCS Same-Spin Scale       =       0.3333333333333333 [-]
	 SCS Opposite-Spin Scale   =       1.2000000000000000 [-]
	 SCS Same-Spin Energy      =      -0.0844638851545870 [Eh]
	 SCS Opposite-Spin Energy  =      -0.9609787696125320 [Eh]
	 SCS Correlation Energy    =      -1.0454426547671190 [Eh]
	 SCS Total Energy          =    -652.0179719664770346 [Eh]
	-----------------------------------------------------------

  Dipole Moment: [D]
     X:     1.8357      Y:    -1.9176      Z:     0.0000     Total:     2.6546

*** Psi4 exiting successfully. Buy a developer a beer!
