                               Psi4 1.3.2 release

  ==> Input File <==

--------------------------------------------------------------------------
#psi4
#
memory 32 gb

molecule  {
0 1
 Cl       -1.7654740    -0.3100940    -0.0000140
  O        0.1191480     1.5182110     0.0000140
  C        0.9469290    -0.7644920     0.0000410
  C        2.3749147    -0.2371595    -0.0000328
  C       -0.0820610     0.3337550     0.0000080
  H        0.7528550    -1.3956680     0.8744030
  H        0.7528050    -1.3957990    -0.8742120
  H        2.5431970     0.4048060    -0.8827890
  H        2.5432490     0.4048980     0.8826450
  H        3.0855950    -1.0339960    -0.0000140
units angstrom
no_reorient  #important for SAPT in psi4, default
symmetry c1  #important for SAPT in psi4, default
}

set PROPERTIES_ORIGIN ["COM"]
properties('MP2/aug-cc-pvtz', properties = ['dipole'])
--------------------------------------------------------------------------

    Molecular point group: c1
  Charge       = 0
  Multiplicity = 1
  Basis Set: AUG-CC-PVTZ
    Blend: AUG-CC-PVTZ
  Basis Set: (AUG-CC-PVTZ AUX)
    Blend: AUG-CC-PVTZ-JKFIT

    Orbital Energies [Eh]
    ---------------------

    Doubly Occupied:

       1A   -104.849828     2A    -20.593148     3A    -11.411390
       4A    -11.271251     5A    -11.238280     6A    -10.574321
       7A     -8.040951     8A     -8.039271     9A     -8.039126
      10A     -1.436628    11A     -1.137112    12A     -1.072108
      13A     -0.913124    14A     -0.764341    15A     -0.684696
      16A     -0.660206    17A     -0.654848    18A     -0.572051
      19A     -0.569011    20A     -0.538953    21A     -0.513110
      22A     -0.466913    23A     -0.466655    24A     -0.451429

  @DF-RHF Final Energy:  -650.97561373559950

   => Energetics <=

    Nuclear Repulsion Energy =            212.6152950119212051
    One-Electron Energy =               -1317.2643147441506244
    Two-Electron Energy =                 453.6734059966298105
    Total Energy =                       -650.9756137355996088
  Basis Set: (AUG-CC-PVTZ AUX)
    Blend: AUG-CC-PVTZ-RI
    Molecular point group: c1

    Geometry (in Angstrom), charge = 0, multiplicity = 1:

       Center              X                  Y                   Z               Mass
    ------------   -----------------  -----------------  -----------------  -----------------
         CL          -1.643738518530    -0.336026972765    -0.000013587221    34.968852682000
         O            0.240883481470     1.492278027235     0.000014412779    15.994914619570
         C            1.068664481470    -0.790424972765     0.000041412779    12.000000000000
         C            2.496650181470    -0.263092472765    -0.000032387221    12.000000000000
         C            0.039674481470     0.307822027235     0.000008412779    12.000000000000
         H            0.874590481470    -1.421600972765     0.874403412779     1.007825032230
         H            0.874540481470    -1.421731972765    -0.874211587221     1.007825032230
         H            2.664932481470     0.378873027235    -0.882788587221     1.007825032230
         H            2.664984481470     0.378965027235     0.882645412779     1.007825032230
         H            3.207330481470    -1.059928972765    -0.000013587221     1.007825032230

  Basis Set: AUG-CC-PVTZ
    Blend: AUG-CC-PVTZ
  Basis Set: (AUG-CC-PVTZ AUX)
    Blend: AUG-CC-PVTZ-JKFIT
	 Reference Energy          =    -650.9756137355994952 [Eh]
	 Singles Energy            =      -0.0000000000000000 [Eh]
	 Same-Spin Energy          =      -0.2528144478895997 [Eh]
	 Opposite-Spin Energy      =      -0.7998956987951706 [Eh]
	 Correlation Energy        =      -1.0527101466847704 [Eh]
	 Total Energy              =    -652.0283238822842122 [Eh]

	 ================> DF-SCS-MP2 Energies <==================
	-----------------------------------------------------------
	 SCS Same-Spin Scale       =       0.3333333333333333 [-]
	 SCS Opposite-Spin Scale   =       1.2000000000000000 [-]
	 SCS Same-Spin Energy      =      -0.0842714826298666 [Eh]
	 SCS Opposite-Spin Energy  =      -0.9598748385542047 [Eh]
	 SCS Correlation Energy    =      -1.0441463211840714 [Eh]
	 SCS Total Energy          =    -652.0197600567835252 [Eh]
	-----------------------------------------------------------

  Dipole Moment: [D]
     X:     1.9417      Y:    -2.0484      Z:     0.0000     Total:     2.8224

*** Psi4 exiting successfully. Buy a developer a beer!
