                               Psi4 1.4a3.dev225

  ==> Input File <==

--------------------------------------------------------------------------
#psi4
#
memory 32 gb

molecule  {
0 1
 Cl       -1.7654670    -0.3100810     0.0000010
  O        0.1191580     1.5181910     0.0000000
  C        0.9469270    -0.7644920    -0.0000020
  C        2.3654840    -0.2123060     0.0000020
  C       -0.0633896     0.3408743    -0.0000010
  H        0.7528160    -1.3957640     0.8742890
  H        0.7528180    -1.3957580    -0.8742970
  H        2.5431990     0.4048750    -0.8827100
  H        2.5431990     0.4048640     0.8827220
  H        3.0856000    -1.0339670    -0.0000030
units angstrom
no_reorient  #important for SAPT in psi4, default
symmetry c1  #important for SAPT in psi4, default
}

set PROPERTIES_ORIGIN ["COM"]
properties('MP2/aug-cc-pvtz', properties = ['dipole'])
--------------------------------------------------------------------------

    Molecular point group: c1
  Charge       = 0
  Multiplicity = 1
  Basis Set: AUG-CC-PVTZ
    Blend: AUG-CC-PVTZ
  Basis Set: (AUG-CC-PVTZ AUX)
    Blend: AUG-CC-PVTZ-JKFIT

    Orbital Energies [Eh]
    ---------------------

    Doubly Occupied:

       1A   -104.844333     2A    -20.596380     3A    -11.411588
       4A    -11.272561     5A    -11.239464     6A    -10.568771
       7A     -8.035363     8A     -8.033741     9A     -8.033607
      10A     -1.445762    11A     -1.131699    12A     -1.073375
      13A     -0.914111    14A     -0.766054    15A     -0.687273
      16A     -0.664194    17A     -0.656584    18A     -0.574195
      19A     -0.565141    20A     -0.542770    21A     -0.519557
      22A     -0.463981    23A     -0.462772    24A     -0.449638

  @DF-RHF Final Energy:  -650.97711340319654

   => Energetics <=

    Nuclear Repulsion Energy =            212.7349394094643458
    One-Electron Energy =               -1317.5182764252808738
    Two-Electron Energy =                 453.8062236126199309
    Total Energy =                       -650.9771134031964266
  Basis Set: (AUG-CC-PVTZ AUX)
    Blend: AUG-CC-PVTZ-RI
    Molecular point group: c1

    Geometry (in Angstrom), charge = 0, multiplicity = 1:

       Center              X                  Y                   Z               Mass
    ------------   -----------------  -----------------  -----------------  -----------------
         CL          -1.644940171739    -0.340185769509     0.000000739392    34.968852682000
         O            0.239684828261     1.488086230491    -0.000000260608    15.994914619570
         C            1.067453828261    -0.794596769509    -0.000002260608    12.000000000000
         C            2.486010828261    -0.242410769509     0.000001739392    12.000000000000
         C            0.057137228261     0.310769530491    -0.000001260608    12.000000000000
         H            0.873342828261    -1.425868769509     0.874288739392     1.007825032230
         H            0.873344828261    -1.425862769509    -0.874297260608     1.007825032230
         H            2.663725828261     0.374770230491    -0.882710260608     1.007825032230
         H            2.663725828261     0.374759230491     0.882721739392     1.007825032230
         H            3.206126828261    -1.064071769509    -0.000003260608     1.007825032230

  Basis Set: AUG-CC-PVTZ
    Blend: AUG-CC-PVTZ
  Basis Set: (AUG-CC-PVTZ AUX)
    Blend: AUG-CC-PVTZ-JKFIT
	 Reference Energy          =    -650.9771134031965403 [Eh]
	 Singles Energy            =      -0.0000000000000000 [Eh]
	 Same-Spin Energy          =      -0.2526485547604601 [Eh]
	 Opposite-Spin Energy      =      -0.7994007238618802 [Eh]
	 Correlation Energy        =      -1.0520492786223403 [Eh]
	 Total Energy              =    -652.0291626818188888 [Eh]

	 ================> DF-SCS-MP2 Energies <==================
	-----------------------------------------------------------
	 SCS Same-Spin Scale       =       0.3333333333333333 [-]
	 SCS Opposite-Spin Scale   =       1.2000000000000000 [-]
	 SCS Same-Spin Energy      =      -0.0842161849201534 [Eh]
	 SCS Opposite-Spin Energy  =      -0.9592808686342562 [Eh]
	 SCS Correlation Energy    =      -1.0434970535544095 [Eh]
	 SCS Total Energy          =    -652.0206104567510010 [Eh]
	-----------------------------------------------------------

  Dipole Moment: [D]
     X:     2.1526      Y:    -1.9659      Z:    -0.0000     Total:     2.9152

*** Psi4 exiting successfully. Buy a developer a beer!
