                               Psi4 1.3.2 release

  ==> Input File <==

--------------------------------------------------------------------------
#psi4
#
memory 32 gb

molecule  {
0 1
 Cl       -1.7654740    -0.3100940    -0.0000140
  O        0.0984457     1.5215422     0.0000133
  C        0.9469290    -0.7644920     0.0000410
  C        2.3654940    -0.2123180    -0.0000340
  C       -0.0820610     0.3337550     0.0000080
  H        0.7528550    -1.3956680     0.8744030
  H        0.7528050    -1.3957990    -0.8742120
  H        2.5431970     0.4048060    -0.8827890
  H        2.5432490     0.4048980     0.8826450
  H        3.0855950    -1.0339960    -0.0000140
units angstrom
no_reorient  #important for SAPT in psi4, default
symmetry c1  #important for SAPT in psi4, default
}

set PROPERTIES_ORIGIN ["COM"]
properties('MP2/aug-cc-pvtz', properties = ['dipole'])
--------------------------------------------------------------------------

    Molecular point group: c1
  Charge       = 0
  Multiplicity = 1
  Basis Set: AUG-CC-PVTZ
    Blend: AUG-CC-PVTZ
  Basis Set: (AUG-CC-PVTZ AUX)
    Blend: AUG-CC-PVTZ-JKFIT

    Orbital Energies [Eh]
    ---------------------

    Doubly Occupied:

       1A   -104.847997     2A    -20.593073     3A    -11.411116
       4A    -11.272410     5A    -11.238929     6A    -10.572589
       7A     -8.039215     8A     -8.037543     9A     -8.037399
      10A     -1.436664    11A     -1.136182    12A     -1.072846
      13A     -0.913176    14A     -0.764771    15A     -0.684059
      16A     -0.662104    17A     -0.654566    18A     -0.571698
      19A     -0.565108    20A     -0.541526    21A     -0.517981
      22A     -0.465459    23A     -0.465431    24A     -0.450365

  @DF-RHF Final Energy:  -650.97643101737754

   => Energetics <=

    Nuclear Repulsion Energy =            212.7469385567115410
    One-Electron Energy =               -1317.5423238226701415
    Two-Electron Energy =                 453.8189542485810648
    Total Energy =                       -650.9764310173775357
  Basis Set: (AUG-CC-PVTZ AUX)
    Blend: AUG-CC-PVTZ-RI
    Molecular point group: c1

    Geometry (in Angstrom), charge = 0, multiplicity = 1:

       Center              X                  Y                   Z               Mass
    ------------   -----------------  -----------------  -----------------  -----------------
         CL          -1.638910627699    -0.339846203337    -0.000013309007    34.968852682000
         O            0.225009072301     1.491789996663     0.000013990993    15.994914619570
         C            1.073492372301    -0.794244203337     0.000041690993    12.000000000000
         C            2.492057372301    -0.242070203337    -0.000033309007    12.000000000000
         C            0.044502372301     0.304002796663     0.000008690993    12.000000000000
         H            0.879418372301    -1.425420203337     0.874403690993     1.007825032230
         H            0.879368372301    -1.425551203337    -0.874211309007     1.007825032230
         H            2.669760372301     0.375053796663    -0.882788309007     1.007825032230
         H            2.669812372301     0.375145796663     0.882645690993     1.007825032230
         H            3.212158372301    -1.063748203337    -0.000013309007     1.007825032230

  Basis Set: AUG-CC-PVTZ
    Blend: AUG-CC-PVTZ
  Basis Set: (AUG-CC-PVTZ AUX)
    Blend: AUG-CC-PVTZ-JKFIT
	 Reference Energy          =    -650.9764310173775357 [Eh]
	 Singles Energy            =      -0.0000000000000000 [Eh]
	 Same-Spin Energy          =      -0.2527917542491392 [Eh]
	 Opposite-Spin Energy      =      -0.7997849448991408 [Eh]
	 Correlation Energy        =      -1.0525766991482799 [Eh]
	 Total Energy              =    -652.0290077165258253 [Eh]

	 ================> DF-SCS-MP2 Energies <==================
	-----------------------------------------------------------
	 SCS Same-Spin Scale       =       0.3333333333333333 [-]
	 SCS Opposite-Spin Scale   =       1.2000000000000000 [-]
	 SCS Same-Spin Energy      =      -0.0842639180830464 [Eh]
	 SCS Opposite-Spin Energy  =      -0.9597419338789689 [Eh]
	 SCS Correlation Energy    =      -1.0440058519620152 [Eh]
	 SCS Total Energy          =    -652.0204368693395054 [Eh]
	-----------------------------------------------------------

  Dipole Moment: [D]
     X:     2.0102      Y:    -2.0459      Z:     0.0000     Total:     2.8682

*** Psi4 exiting successfully. Buy a developer a beer!
