                               Psi4 1.3.2 release

  ==> Input File <==

--------------------------------------------------------------------------
#psi4
#
memory 32 gb

molecule  {
0 1
 Cl       -1.7654740    -0.3100940    -0.0000140
  O        0.2012813     1.5012901     0.0000166
  C        0.9469290    -0.7644920     0.0000410
  C        2.3654940    -0.2123180    -0.0000340
  C       -0.0820610     0.3337550     0.0000080
  H        0.7528550    -1.3956680     0.8744030
  H        0.7528050    -1.3957990    -0.8742120
  H        2.5431970     0.4048060    -0.8827890
  H        2.5432490     0.4048980     0.8826450
  H        3.0855950    -1.0339960    -0.0000140
units angstrom
no_reorient  #important for SAPT in psi4, default
symmetry c1  #important for SAPT in psi4, default
}

set PROPERTIES_ORIGIN ["COM"]
properties('MP2/aug-cc-pvtz', properties = ['dipole'])
--------------------------------------------------------------------------

    Molecular point group: c1
  Charge       = 0
  Multiplicity = 1
  Basis Set: AUG-CC-PVTZ
    Blend: AUG-CC-PVTZ
  Basis Set: (AUG-CC-PVTZ AUX)
    Blend: AUG-CC-PVTZ-JKFIT

    Orbital Energies [Eh]
    ---------------------

    Doubly Occupied:

       1A   -104.854827     2A    -20.592777     3A    -11.410314
       4A    -11.267458     5A    -11.235465     6A    -10.579060
       7A     -8.045696     8A     -8.044001     9A     -8.043850
      10A     -1.436588    11A     -1.139818    12A     -1.069782
      13A     -0.910390    14A     -0.763343    15A     -0.683835
      16A     -0.660006    17A     -0.656018    18A     -0.569323
      19A     -0.560340    20A     -0.537786    21A     -0.515199
      22A     -0.470410    23A     -0.469747    24A     -0.451508

  @DF-RHF Final Energy:  -650.97457501574490

   => Energetics <=

    Nuclear Repulsion Energy =            212.8226661160577748
    One-Electron Energy =               -1317.6594025071744909
    Two-Electron Energy =                 453.8621613753718975
    Total Energy =                       -650.9745750157449038
  Basis Set: (AUG-CC-PVTZ AUX)
    Blend: AUG-CC-PVTZ-RI
    Molecular point group: c1

    Geometry (in Angstrom), charge = 0, multiplicity = 1:

       Center              X                  Y                   Z               Mass
    ------------   -----------------  -----------------  -----------------  -----------------
         CL          -1.656788833458    -0.336325329137    -0.000013882720    34.968852682000
         O            0.309966466542     1.475058770863     0.000016717280    15.994914619570
         C            1.055614166542    -0.790723329137     0.000041117280    12.000000000000
         C            2.474179166542    -0.238549329137    -0.000033882720    12.000000000000
         C            0.026624166542     0.307523670863     0.000008117280    12.000000000000
         H            0.861540166542    -1.421899329137     0.874403117280     1.007825032230
         H            0.861490166542    -1.422030329137    -0.874211882720     1.007825032230
         H            2.651882166542     0.378574670863    -0.882788882720     1.007825032230
         H            2.651934166542     0.378666670863     0.882645117280     1.007825032230
         H            3.194280166542    -1.060227329137    -0.000013882720     1.007825032230

  Basis Set: AUG-CC-PVTZ
    Blend: AUG-CC-PVTZ
  Basis Set: (AUG-CC-PVTZ AUX)
    Blend: AUG-CC-PVTZ-JKFIT
	 Reference Energy          =    -650.9745750157449038 [Eh]
	 Singles Energy            =      -0.0000000000000000 [Eh]
	 Same-Spin Energy          =      -0.2529979434175328 [Eh]
	 Opposite-Spin Energy      =      -0.8002345459266704 [Eh]
	 Correlation Energy        =      -1.0532324893442033 [Eh]
	 Total Energy              =    -652.0278075050890720 [Eh]

	 ================> DF-SCS-MP2 Energies <==================
	-----------------------------------------------------------
	 SCS Same-Spin Scale       =       0.3333333333333333 [-]
	 SCS Opposite-Spin Scale   =       1.2000000000000000 [-]
	 SCS Same-Spin Energy      =      -0.0843326478058443 [Eh]
	 SCS Opposite-Spin Energy  =      -0.9602814551120045 [Eh]
	 SCS Correlation Energy    =      -1.0446141029178486 [Eh]
	 SCS Total Energy          =    -652.0191891186627799 [Eh]
	-----------------------------------------------------------

  Dipole Moment: [D]
     X:     1.7141      Y:    -2.0071      Z:     0.0000     Total:     2.6395

*** Psi4 exiting successfully. Buy a developer a beer!
