                               Psi4 1.3.2 release

  ==> Input File <==

--------------------------------------------------------------------------
#psi4
#
memory 32 gb

molecule  {
0 1
 Cl       -1.7654740    -0.3100940    -0.0000140
  O        0.1191480     1.5182110     0.0000140
  C        0.9469290    -0.7644920     0.0000410
  C        2.3654940    -0.2123180    -0.0000340
  C       -0.1393735     0.2687550    -0.1315432
  H        0.7528550    -1.3956680     0.8744030
  H        0.7528050    -1.3957990    -0.8742120
  H        2.5431970     0.4048060    -0.8827890
  H        2.5432490     0.4048980     0.8826450
  H        3.0855950    -1.0339960    -0.0000140
units angstrom
no_reorient  #important for SAPT in psi4, default
symmetry c1  #important for SAPT in psi4, default
}

set PROPERTIES_ORIGIN ["COM"]
properties('MP2/aug-cc-pvtz', properties = ['dipole'])
--------------------------------------------------------------------------

    Molecular point group: c1
  Charge       = 0
  Multiplicity = 1
  Basis Set: AUG-CC-PVTZ
    Blend: AUG-CC-PVTZ
  Basis Set: (AUG-CC-PVTZ AUX)
    Blend: AUG-CC-PVTZ-JKFIT

    Orbital Energies [Eh]
    ---------------------

    Doubly Occupied:

       1A   -104.869484     2A    -20.579581     3A    -11.414344
       4A    -11.269652     5A    -11.235606     6A    -10.594276
       7A     -8.061055     8A     -8.059160     9A     -8.058956
      10A     -1.377930    11A     -1.160855    12A     -1.071255
      13A     -0.913918    14A     -0.761551    15A     -0.672584
      16A     -0.655781    17A     -0.636793    18A     -0.560773
      19A     -0.558395    20A     -0.533601    21A     -0.510067
      22A     -0.478395    23A     -0.463514    24A     -0.453218

  @DF-RHF Final Energy:  -650.95152483963875

   => Energetics <=

    Nuclear Repulsion Energy =            212.4891111464705773
    One-Electron Energy =               -1316.9797789068575185
    Two-Electron Energy =                 453.5391429207480769
    Total Energy =                       -650.9515248396388643
  Basis Set: (AUG-CC-PVTZ AUX)
    Blend: AUG-CC-PVTZ-RI
    Molecular point group: c1

    Geometry (in Angstrom), charge = 0, multiplicity = 1:

       Center              X                  Y                   Z               Mass
    ------------   -----------------  -----------------  -----------------  -----------------
         CL          -1.635034461749    -0.330789072226     0.017144882016    34.968852682000
         O            0.249587538251     1.497515927774     0.017172882016    15.994914619570
         C            1.077368538251    -0.785187072226     0.017199882016    12.000000000000
         C            2.495933538251    -0.233013072226     0.017124882016    12.000000000000
         C           -0.008933961749     0.248059927774    -0.114384317984    12.000000000000
         H            0.883294538251    -1.416363072226     0.891561882016     1.007825032230
         H            0.883244538251    -1.416494072226    -0.857053117984     1.007825032230
         H            2.673636538251     0.384110927774    -0.865630117984     1.007825032230
         H            2.673688538251     0.384202927774     0.899803882016     1.007825032230
         H            3.216034538251    -1.054691072226     0.017144882016     1.007825032230

  Basis Set: AUG-CC-PVTZ
    Blend: AUG-CC-PVTZ
  Basis Set: (AUG-CC-PVTZ AUX)
    Blend: AUG-CC-PVTZ-JKFIT
	 Reference Energy          =    -650.9515248396387506 [Eh]
	 Singles Energy            =      -0.0000000000000000 [Eh]
	 Same-Spin Energy          =      -0.2552654028792748 [Eh]
	 Opposite-Spin Energy      =      -0.8056133393591898 [Eh]
	 Correlation Energy        =      -1.0608787422384647 [Eh]
	 Total Energy              =    -652.0124035818772654 [Eh]

	 ================> DF-SCS-MP2 Energies <==================
	-----------------------------------------------------------
	 SCS Same-Spin Scale       =       0.3333333333333333 [-]
	 SCS Opposite-Spin Scale   =       1.2000000000000000 [-]
	 SCS Same-Spin Energy      =      -0.0850884676264249 [Eh]
	 SCS Opposite-Spin Energy  =      -0.9667360072310277 [Eh]
	 SCS Correlation Energy    =      -1.0518244748574526 [Eh]
	 SCS Total Energy          =    -652.0033493144961767 [Eh]
	-----------------------------------------------------------

  Dipole Moment: [D]
     X:     1.2577      Y:    -2.4413      Z:    -0.0558     Total:     2.7467

*** Psi4 exiting successfully. Buy a developer a beer!
