                               Psi4 1.3.2 release

  ==> Input File <==

--------------------------------------------------------------------------
#psi4
#
memory 32 gb

molecule  {
0 1
 Cl       -1.7654740    -0.3100940    -0.0000140
  O        0.1191480     1.5182110     0.0000140
  C        0.9469290    -0.7644920     0.0000410
  C        2.3654940    -0.2123180    -0.0000340
  C       -0.0653135     0.4323426     0.0000085
  H        0.7528550    -1.3956680     0.8744030
  H        0.7528050    -1.3957990    -0.8742120
  H        2.5431970     0.4048060    -0.8827890
  H        2.5432490     0.4048980     0.8826450
  H        3.0855950    -1.0339960    -0.0000140
units angstrom
no_reorient  #important for SAPT in psi4, default
symmetry c1  #important for SAPT in psi4, default
}

set PROPERTIES_ORIGIN ["COM"]
properties('MP2/aug-cc-pvtz', properties = ['dipole'])
--------------------------------------------------------------------------

    Molecular point group: c1
  Charge       = 0
  Multiplicity = 1
  Basis Set: AUG-CC-PVTZ
    Blend: AUG-CC-PVTZ
  Basis Set: (AUG-CC-PVTZ AUX)
    Blend: AUG-CC-PVTZ-JKFIT

    Orbital Energies [Eh]
    ---------------------

    Doubly Occupied:

       1A   -104.827620     2A    -20.609921     3A    -11.402693
       4A    -11.273909     5A    -11.238909     6A    -10.552574
       7A     -8.019090     8A     -8.017578     9A     -8.017472
      10A     -1.521093    11A     -1.114555    12A     -1.063430
      13A     -0.900772    14A     -0.775958    15A     -0.708203
      16A     -0.671884    17A     -0.671637    18A     -0.605419
      19A     -0.570269    20A     -0.544864    21A     -0.522782
      22A     -0.456877    23A     -0.452997    24A     -0.431591

  @DF-RHF Final Energy:  -650.96909340710306

   => Energetics <=

    Nuclear Repulsion Energy =            213.1932914759209439
    One-Electron Energy =               -1318.3805751677261924
    Two-Electron Energy =                 454.2181902847023025
    Total Energy =                       -650.9690934071029460
  Basis Set: (AUG-CC-PVTZ AUX)
    Blend: AUG-CC-PVTZ-RI
    Molecular point group: c1

    Geometry (in Angstrom), charge = 0, multiplicity = 1:

       Center              X                  Y                   Z               Mass
    ------------   -----------------  -----------------  -----------------  -----------------
         CL          -1.644694158050    -0.352125914443    -0.000013495919    34.968852682000
         O            0.239927841950     1.476179085557     0.000014504081    15.994914619570
         C            1.067708841950    -0.806523914443     0.000041504081    12.000000000000
         C            2.486273841950    -0.254349914443    -0.000033495919    12.000000000000
         C            0.055466341950     0.390310685557     0.000009004081    12.000000000000
         H            0.873634841950    -1.437699914443     0.874403504081     1.007825032230
         H            0.873584841950    -1.437830914443    -0.874211495919     1.007825032230
         H            2.663976841950     0.362774085557    -0.882788495919     1.007825032230
         H            2.664028841950     0.362866085557     0.882645504081     1.007825032230
         H            3.206374841950    -1.076027914443    -0.000013495919     1.007825032230

  Basis Set: AUG-CC-PVTZ
    Blend: AUG-CC-PVTZ
  Basis Set: (AUG-CC-PVTZ AUX)
    Blend: AUG-CC-PVTZ-JKFIT
	 Reference Energy          =    -650.9690934071030597 [Eh]
	 Singles Energy            =      -0.0000000000000000 [Eh]
	 Same-Spin Energy          =      -0.2500334755275147 [Eh]
	 Opposite-Spin Energy      =      -0.7939269066123759 [Eh]
	 Correlation Energy        =      -1.0439603821398906 [Eh]
	 Total Energy              =    -652.0130537892429174 [Eh]

	 ================> DF-SCS-MP2 Energies <==================
	-----------------------------------------------------------
	 SCS Same-Spin Scale       =       0.3333333333333333 [-]
	 SCS Opposite-Spin Scale   =       1.2000000000000000 [-]
	 SCS Same-Spin Energy      =      -0.0833444918425049 [Eh]
	 SCS Opposite-Spin Energy  =      -0.9527122879348510 [Eh]
	 SCS Correlation Energy    =      -1.0360567797773559 [Eh]
	 SCS Total Energy          =    -652.0051501868804280 [Eh]
	-----------------------------------------------------------

  Dipole Moment: [D]
     X:     2.5142      Y:    -1.3855      Z:     0.0000     Total:     2.8707

*** Psi4 exiting successfully. Buy a developer a beer!
