                               Psi4 1.4a3.dev225

  ==> Input File <==

--------------------------------------------------------------------------
#psi4
#
memory 32 gb

molecule  {
0 1
 Cl       -1.7654670    -0.3100810     0.0000010
  O        0.1191580     1.5181910     0.0000000
  C        0.9469270    -0.7644920    -0.0000020
  C        2.3654840    -0.2123060     0.0000020
  C       -0.1287711     0.3158693    -0.0000009
  H        0.7528160    -1.3957640     0.8742890
  H        0.7528180    -1.3957580    -0.8742970
  H        2.5431990     0.4048750    -0.8827100
  H        2.5431990     0.4048640     0.8827220
  H        3.0856000    -1.0339670    -0.0000030
units angstrom
no_reorient  #important for SAPT in psi4, default
symmetry c1  #important for SAPT in psi4, default
}

set PROPERTIES_ORIGIN ["COM"]
properties('MP2/aug-cc-pvtz', properties = ['dipole'])
--------------------------------------------------------------------------

    Molecular point group: c1
  Charge       = 0
  Multiplicity = 1
  Basis Set: AUG-CC-PVTZ
    Blend: AUG-CC-PVTZ
  Basis Set: (AUG-CC-PVTZ AUX)
    Blend: AUG-CC-PVTZ-JKFIT

    Orbital Energies [Eh]
    ---------------------

    Doubly Occupied:

       1A   -104.861234     2A    -20.585206     3A    -11.409757
       4A    -11.269096     5A    -11.235501     6A    -10.586097
       7A     -8.052825     8A     -8.051009     9A     -8.050828
      10A     -1.414120    11A     -1.152320    12A     -1.068069
      13A     -0.908932    14A     -0.762110    15A     -0.677550
      16A     -0.656047    17A     -0.649762    18A     -0.565943
      19A     -0.562469    20A     -0.536313    21A     -0.512661
      22A     -0.473802    23A     -0.470148    24A     -0.451743

  @DF-RHF Final Energy:  -650.97165858257517

   => Energetics <=

    Nuclear Repulsion Energy =            212.8147515127038787
    One-Electron Energy =               -1317.6457363578203967
    Two-Electron Energy =                 453.8593262625414013
    Total Energy =                       -650.9716585825751736
  Basis Set: (AUG-CC-PVTZ AUX)
    Blend: AUG-CC-PVTZ-RI
    Molecular point group: c1

    Geometry (in Angstrom), charge = 0, multiplicity = 1:

       Center              X                  Y                   Z               Mass
    ------------   -----------------  -----------------  -----------------  -----------------
         CL          -1.636412418111    -0.336924350308     0.000000726349    34.968852682000
         O            0.248212581889     1.491347649692    -0.000000273651    15.994914619570
         C            1.075981581889    -0.791335350308    -0.000002273651    12.000000000000
         C            2.494538581889    -0.239149350308     0.000001726349    12.000000000000
         C            0.000283481889     0.289025949692    -0.000001173651    12.000000000000
         H            0.881870581889    -1.422607350308     0.874288726349     1.007825032230
         H            0.881872581889    -1.422601350308    -0.874297273651     1.007825032230
         H            2.672253581889     0.378031649692    -0.882710273651     1.007825032230
         H            2.672253581889     0.378020649692     0.882721726349     1.007825032230
         H            3.214654581889    -1.060810350308    -0.000003273651     1.007825032230

  Basis Set: AUG-CC-PVTZ
    Blend: AUG-CC-PVTZ
  Basis Set: (AUG-CC-PVTZ AUX)
    Blend: AUG-CC-PVTZ-JKFIT
	 Reference Energy          =    -650.9716585825751736 [Eh]
	 Singles Energy            =      -0.0000000000000000 [Eh]
	 Same-Spin Energy          =      -0.2533848249453263 [Eh]
	 Opposite-Spin Energy      =      -0.8011755465034942 [Eh]
	 Correlation Energy        =      -1.0545603714488205 [Eh]
	 Total Energy              =    -652.0262189540239888 [Eh]

	 ================> DF-SCS-MP2 Energies <==================
	-----------------------------------------------------------
	 SCS Same-Spin Scale       =       0.3333333333333333 [-]
	 SCS Opposite-Spin Scale   =       1.2000000000000000 [-]
	 SCS Same-Spin Energy      =      -0.0844616083151088 [Eh]
	 SCS Opposite-Spin Energy  =      -0.9614106558041930 [Eh]
	 SCS Correlation Energy    =      -1.0458722641193019 [Eh]
	 SCS Total Energy          =    -652.0175308466945125 [Eh]
	-----------------------------------------------------------

  Dipole Moment: [D]
     X:     1.4664      Y:    -2.2183      Z:    -0.0000     Total:     2.6591

*** Psi4 exiting successfully. Buy a developer a beer!
