                               Psi4 1.3.2 release

  ==> Input File <==

--------------------------------------------------------------------------
#psi4
#
memory 32 gb

molecule  {
0 1
 Cl       -1.7654740    -0.3100940    -0.0000140
  O        0.1191480     1.5182110     0.0000140
  C        0.9469290    -0.7644920     0.0000410
  C        2.3654940    -0.2123180    -0.0000340
  C       -0.0136887     0.2607808     0.0000102
  H        0.7528550    -1.3956680     0.8744030
  H        0.7528050    -1.3957990    -0.8742120
  H        2.5431970     0.4048060    -0.8827890
  H        2.5432490     0.4048980     0.8826450
  H        3.0855950    -1.0339960    -0.0000140
units angstrom
no_reorient  #important for SAPT in psi4, default
symmetry c1  #important for SAPT in psi4, default
}

set PROPERTIES_ORIGIN ["COM"]
properties('MP2/aug-cc-pvtz', properties = ['dipole'])
--------------------------------------------------------------------------

    Molecular point group: c1
  Charge       = 0
  Multiplicity = 1
  Basis Set: AUG-CC-PVTZ
    Blend: AUG-CC-PVTZ
  Basis Set: (AUG-CC-PVTZ AUX)
    Blend: AUG-CC-PVTZ-JKFIT

    Orbital Energies [Eh]
    ---------------------

    Doubly Occupied:

       1A   -104.847228     2A    -20.590088     3A    -11.420592
       4A    -11.273492     5A    -11.244181     6A    -10.570968
       7A     -8.037543     8A     -8.035931     9A     -8.035801
      10A     -1.395772    11A     -1.140111    12A     -1.085962
      13A     -0.932677    14A     -0.764627    15A     -0.681022
      16A     -0.673119    17A     -0.643811    18A     -0.560585
      19A     -0.558823    20A     -0.544775    21A     -0.513952
      22A     -0.470998    23A     -0.459059    24A     -0.449057

  @DF-RHF Final Energy:  -650.95485631761187

   => Energetics <=

    Nuclear Repulsion Energy =            212.4074343734978072
    One-Electron Energy =               -1316.8642363009753353
    Two-Electron Energy =                 453.5019456098655724
    Total Energy =                       -650.9548563176119842
  Basis Set: (AUG-CC-PVTZ AUX)
    Blend: AUG-CC-PVTZ-RI
    Molecular point group: c1

    Geometry (in Angstrom), charge = 0, multiplicity = 1:

       Center              X                  Y                   Z               Mass
    ------------   -----------------  -----------------  -----------------  -----------------
         CL          -1.651427615917    -0.329748991883    -0.000013717651    34.968852682000
         O            0.233194384083     1.498556008117     0.000014282349    15.994914619570
         C            1.060975384083    -0.784146991883     0.000041282349    12.000000000000
         C            2.479540384083    -0.231972991883    -0.000033717651    12.000000000000
         C            0.100357684083     0.241125808117     0.000010482349    12.000000000000
         H            0.866901384083    -1.415322991883     0.874403282349     1.007825032230
         H            0.866851384083    -1.415453991883    -0.874211717651     1.007825032230
         H            2.657243384083     0.385151008117    -0.882788717651     1.007825032230
         H            2.657295384083     0.385243008117     0.882645282349     1.007825032230
         H            3.199641384083    -1.053650991883    -0.000013717651     1.007825032230

  Basis Set: AUG-CC-PVTZ
    Blend: AUG-CC-PVTZ
  Basis Set: (AUG-CC-PVTZ AUX)
    Blend: AUG-CC-PVTZ-JKFIT
	 Reference Energy          =    -650.9548563176118705 [Eh]
	 Singles Energy            =      -0.0000000000000000 [Eh]
	 Same-Spin Energy          =      -0.2555794499143498 [Eh]
	 Opposite-Spin Energy      =      -0.8052391194633779 [Eh]
	 Correlation Energy        =      -1.0608185693777277 [Eh]
	 Total Energy              =    -652.0156748869895864 [Eh]

	 ================> DF-SCS-MP2 Energies <==================
	-----------------------------------------------------------
	 SCS Same-Spin Scale       =       0.3333333333333333 [-]
	 SCS Opposite-Spin Scale   =       1.2000000000000000 [-]
	 SCS Same-Spin Energy      =      -0.0851931499714499 [Eh]
	 SCS Opposite-Spin Energy  =      -0.9662869433560535 [Eh]
	 SCS Correlation Energy    =      -1.0514800933275035 [Eh]
	 SCS Total Energy          =    -652.0063364109394115 [Eh]
	-----------------------------------------------------------

  Dipole Moment: [D]
     X:     2.3479      Y:    -2.3393      Z:     0.0001     Total:     3.3144

*** Psi4 exiting successfully. Buy a developer a beer!
