                               Psi4 1.3.2 release

  ==> Input File <==

--------------------------------------------------------------------------
#psi4
#
memory 32 gb

molecule  {
0 1
 Cl       -1.7654740    -0.3100940    -0.0000140
  O        0.1191480     1.5182110     0.0000140
  C        0.9469290    -0.7644920     0.0000410
  C        2.3654940    -0.2123180    -0.0000340
  C       -0.0604169     0.3527792     0.0439298
  H        0.7528550    -1.3956680     0.8744030
  H        0.7528050    -1.3957990    -0.8742120
  H        2.5431970     0.4048060    -0.8827890
  H        2.5432490     0.4048980     0.8826450
  H        3.0855950    -1.0339960    -0.0000140
units angstrom
no_reorient  #important for SAPT in psi4, default
symmetry c1  #important for SAPT in psi4, default
}

set PROPERTIES_ORIGIN ["COM"]
properties('MP2/aug-cc-pvtz', properties = ['dipole'])
--------------------------------------------------------------------------

    Molecular point group: c1
  Charge       = 0
  Multiplicity = 1
  Basis Set: AUG-CC-PVTZ
    Blend: AUG-CC-PVTZ
  Basis Set: (AUG-CC-PVTZ AUX)
    Blend: AUG-CC-PVTZ-JKFIT

    Orbital Energies [Eh]
    ---------------------

    Doubly Occupied:

       1A   -104.841655     2A    -20.598677     3A    -11.411035
       4A    -11.273015     5A    -11.239561     6A    -10.566128
       7A     -8.032706     8A     -8.031104     9A     -8.030976
      10A     -1.455155    11A     -1.128829    12A     -1.072145
      13A     -0.912699    14A     -0.767228    15A     -0.689638
      16A     -0.664815    17A     -0.658355    18A     -0.577863
      19A     -0.565930    20A     -0.543416    21A     -0.520485
      22A     -0.462971    23A     -0.460730    24A     -0.447815

  @DF-RHF Final Energy:  -650.97718924481501

   => Energetics <=

    Nuclear Repulsion Energy =            212.7425631917951421
    One-Electron Energy =               -1317.5336463692342477
    Two-Electron Energy =                 453.8138939326241825
    Total Energy =                       -650.9771892448148947
  Basis Set: (AUG-CC-PVTZ AUX)
    Blend: AUG-CC-PVTZ-RI
    Molecular point group: c1

    Geometry (in Angstrom), charge = 0, multiplicity = 1:

       Center              X                  Y                   Z               Mass
    ------------   -----------------  -----------------  -----------------  -----------------
         CL          -1.645332824927    -0.341748405928    -0.005742181028    34.968852682000
         O            0.239289175073     1.486556594072    -0.005714181028    15.994914619570
         C            1.067070175073    -0.796146405928    -0.005687181028    12.000000000000
         C            2.485635175073    -0.243972405928    -0.005762181028    12.000000000000
         C            0.059724275073     0.321124794072     0.038201618972    12.000000000000
         H            0.872996175073    -1.427322405928     0.868674818972     1.007825032230
         H            0.872946175073    -1.427453405928    -0.879940181028     1.007825032230
         H            2.663338175073     0.373151594072    -0.888517181028     1.007825032230
         H            2.663390175073     0.373243594072     0.876916818972     1.007825032230
         H            3.205736175073    -1.065650405928    -0.005742181028     1.007825032230

  Basis Set: AUG-CC-PVTZ
    Blend: AUG-CC-PVTZ
  Basis Set: (AUG-CC-PVTZ AUX)
    Blend: AUG-CC-PVTZ-JKFIT
	 Reference Energy          =    -650.9771892448150084 [Eh]
	 Singles Energy            =      -0.0000000000000000 [Eh]
	 Same-Spin Energy          =      -0.2523457162192070 [Eh]
	 Opposite-Spin Energy      =      -0.7988030320396835 [Eh]
	 Correlation Energy        =      -1.0511487482588906 [Eh]
	 Total Energy              =    -652.0283379930739329 [Eh]

	 ================> DF-SCS-MP2 Energies <==================
	-----------------------------------------------------------
	 SCS Same-Spin Scale       =       0.3333333333333333 [-]
	 SCS Opposite-Spin Scale   =       1.2000000000000000 [-]
	 SCS Same-Spin Energy      =      -0.0841152387397357 [Eh]
	 SCS Opposite-Spin Energy  =      -0.9585636384476202 [Eh]
	 SCS Correlation Energy    =      -1.0426788771873559 [Eh]
	 SCS Total Energy          =    -652.0198681220023218 [Eh]
	-----------------------------------------------------------

  Dipole Moment: [D]
     X:     2.2266      Y:    -1.8871      Z:     0.0319     Total:     2.9189

*** Psi4 exiting successfully. Buy a developer a beer!
