                               Psi4 1.3.2 release

  ==> Input File <==

--------------------------------------------------------------------------
#psi4
#
memory 32 gb

molecule  {
0 1
 Cl       -1.7869185    -0.2509515    -0.0000141
  O        0.1191480     1.5182110     0.0000140
  C        0.9469290    -0.7644920     0.0000410
  C        2.3654940    -0.2123180    -0.0000340
  C       -0.0820610     0.3337550     0.0000080
  H        0.7528550    -1.3956680     0.8744030
  H        0.7528050    -1.3957990    -0.8742120
  H        2.5431970     0.4048060    -0.8827890
  H        2.5432490     0.4048980     0.8826450
  H        3.0855950    -1.0339960    -0.0000140
units angstrom
no_reorient  #important for SAPT in psi4, default
symmetry c1  #important for SAPT in psi4, default
}

set PROPERTIES_ORIGIN ["COM"]
properties('MP2/aug-cc-pvtz', properties = ['dipole'])
--------------------------------------------------------------------------

    Molecular point group: c1
  Charge       = 0
  Multiplicity = 1
  Basis Set: AUG-CC-PVTZ
    Blend: AUG-CC-PVTZ
  Basis Set: (AUG-CC-PVTZ AUX)
    Blend: AUG-CC-PVTZ-JKFIT

    Orbital Energies [Eh]
    ---------------------

    Doubly Occupied:

       1A   -104.848581     2A    -20.591344     3A    -11.410310
       4A    -11.272721     5A    -11.239093     6A    -10.573064
       7A     -8.039695     8A     -8.038014     9A     -8.037871
      10A     -1.436105    11A     -1.134428    12A     -1.073642
      13A     -0.913340    14A     -0.764155    15A     -0.684678
      16A     -0.661928    17A     -0.653283    18A     -0.571147
      19A     -0.564552    20A     -0.541075    21A     -0.517904
      22A     -0.466445    23A     -0.465157    24A     -0.449963

  @DF-RHF Final Energy:  -650.97641372046837

   => Energetics <=

    Nuclear Repulsion Energy =            212.6179688452513687
    One-Electron Energy =               -1317.2917812994433007
    Two-Electron Energy =                 453.6973987337235599
    Total Energy =                       -650.9764137204683720
  Basis Set: (AUG-CC-PVTZ AUX)
    Blend: AUG-CC-PVTZ-RI
    Molecular point group: c1

    Geometry (in Angstrom), charge = 0, multiplicity = 1:

       Center              X                  Y                   Z               Mass
    ------------   -----------------  -----------------  -----------------  -----------------
         CL          -1.655803552969    -0.302603700785    -0.000013492695    34.968852682000
         O            0.250262947031     1.466558799215     0.000014607305    15.994914619570
         C            1.078043947031    -0.816144200785     0.000041607305    12.000000000000
         C            2.496608947031    -0.263970200785    -0.000033392695    12.000000000000
         C            0.049053947031     0.282102799215     0.000008607305    12.000000000000
         H            0.883969947031    -1.447320200785     0.874403607305     1.007825032230
         H            0.883919947031    -1.447451200785    -0.874211392695     1.007825032230
         H            2.674311947031     0.353153799215    -0.882788392695     1.007825032230
         H            2.674363947031     0.353245799215     0.882645607305     1.007825032230
         H            3.216709947031    -1.085648200785    -0.000013392695     1.007825032230

  Basis Set: AUG-CC-PVTZ
    Blend: AUG-CC-PVTZ
  Basis Set: (AUG-CC-PVTZ AUX)
    Blend: AUG-CC-PVTZ-JKFIT
	 Reference Energy          =    -650.9764137204683720 [Eh]
	 Singles Energy            =      -0.0000000000000000 [Eh]
	 Same-Spin Energy          =      -0.2526764812641396 [Eh]
	 Opposite-Spin Energy      =      -0.7996243770068422 [Eh]
	 Correlation Energy        =      -1.0523008582709816 [Eh]
	 Total Energy              =    -652.0287145787393683 [Eh]

	 ================> DF-SCS-MP2 Energies <==================
	-----------------------------------------------------------
	 SCS Same-Spin Scale       =       0.3333333333333333 [-]
	 SCS Opposite-Spin Scale   =       1.2000000000000000 [-]
	 SCS Same-Spin Energy      =      -0.0842254937547132 [Eh]
	 SCS Opposite-Spin Energy  =      -0.9595492524082105 [Eh]
	 SCS Correlation Energy    =      -1.0437747461629237 [Eh]
	 SCS Total Energy          =    -652.0201884666313390 [Eh]
	-----------------------------------------------------------

  Dipole Moment: [D]
     X:     1.9891      Y:    -2.0814      Z:     0.0000     Total:     2.8790

*** Psi4 exiting successfully. Buy a developer a beer!
