                               Psi4 1.3.2 release

  ==> Input File <==

--------------------------------------------------------------------------
#psi4
#
memory 32 gb

molecule  {
0 1
 Cl       -1.7654740    -0.3100940    -0.0000140
  O        0.1191480     1.5182110     0.0000140
  C        0.9469290    -0.7644920     0.0000410
  C        2.3654940    -0.2123180    -0.0000340
  C        0.0113406     0.3694780     0.0000092
  H        0.7528550    -1.3956680     0.8744030
  H        0.7528050    -1.3957990    -0.8742120
  H        2.5431970     0.4048060    -0.8827890
  H        2.5432490     0.4048980     0.8826450
  H        3.0855950    -1.0339960    -0.0000140
units angstrom
no_reorient  #important for SAPT in psi4, default
symmetry c1  #important for SAPT in psi4, default
}

set PROPERTIES_ORIGIN ["COM"]
properties('MP2/aug-cc-pvtz', properties = ['dipole'])
--------------------------------------------------------------------------

    Molecular point group: c1
  Charge       = 0
  Multiplicity = 1
  Basis Set: AUG-CC-PVTZ
    Blend: AUG-CC-PVTZ
  Basis Set: (AUG-CC-PVTZ AUX)
    Blend: AUG-CC-PVTZ-JKFIT

    Orbital Energies [Eh]
    ---------------------

    Doubly Occupied:

       1A   -104.822150     2A    -20.611348     3A    -11.415415
       4A    -11.278351     5A    -11.245075     6A    -10.546561
       7A     -8.013028     8A     -8.011611     9A     -8.011519
      10A     -1.483136    11A     -1.120629    12A     -1.069813
      13A     -0.920177    14A     -0.775251    15A     -0.703919
      16A     -0.676130    17A     -0.663154    18A     -0.589662
      19A     -0.570439    20A     -0.551754    21A     -0.528457
      22A     -0.449938    23A     -0.447192    24A     -0.439943

  @DF-RHF Final Energy:  -650.97421651630668

   => Energetics <=

    Nuclear Repulsion Energy =            212.7110301137765305
    One-Electron Energy =               -1317.4811900435543066
    Two-Electron Energy =                 453.7959434134709795
    Total Energy =                       -650.9742165163067966
  Basis Set: (AUG-CC-PVTZ AUX)
    Blend: AUG-CC-PVTZ-RI
    Molecular point group: c1

    Geometry (in Angstrom), charge = 0, multiplicity = 1:

       Center              X                  Y                   Z               Mass
    ------------   -----------------  -----------------  -----------------  -----------------
         CL          -1.654692204583    -0.343926441799    -0.000013587221    34.968852682000
         O            0.229929795417     1.484378558201     0.000014412779    15.994914619570
         C            1.057710795417    -0.798324441799     0.000041412779    12.000000000000
         C            2.476275795417    -0.246150441799    -0.000033587221    12.000000000000
         C            0.122122395417     0.335645558201     0.000009612779    12.000000000000
         H            0.863636795417    -1.429500441799     0.874403412779     1.007825032230
         H            0.863586795417    -1.429631441799    -0.874211587221     1.007825032230
         H            2.653978795417     0.370973558201    -0.882788587221     1.007825032230
         H            2.654030795417     0.371065558201     0.882645412779     1.007825032230
         H            3.196376795417    -1.067828441799    -0.000013587221     1.007825032230

  Basis Set: AUG-CC-PVTZ
    Blend: AUG-CC-PVTZ
  Basis Set: (AUG-CC-PVTZ AUX)
    Blend: AUG-CC-PVTZ-JKFIT
	 Reference Energy          =    -650.9742165163066829 [Eh]
	 Singles Energy            =      -0.0000000000000000 [Eh]
	 Same-Spin Energy          =      -0.2521683460960356 [Eh]
	 Opposite-Spin Energy      =      -0.7979031502605621 [Eh]
	 Correlation Energy        =      -1.0500714963565976 [Eh]
	 Total Energy              =    -652.0242880126633054 [Eh]

	 ================> DF-SCS-MP2 Energies <==================
	-----------------------------------------------------------
	 SCS Same-Spin Scale       =       0.3333333333333333 [-]
	 SCS Opposite-Spin Scale   =       1.2000000000000000 [-]
	 SCS Same-Spin Energy      =      -0.0840561153653452 [Eh]
	 SCS Opposite-Spin Energy  =      -0.9574837803126746 [Eh]
	 SCS Correlation Energy    =      -1.0415398956780197 [Eh]
	 SCS Total Energy          =    -652.0157564119847393 [Eh]
	-----------------------------------------------------------

  Dipole Moment: [D]
     X:     3.0124      Y:    -1.6503      Z:     0.0001     Total:     3.4348

*** Psi4 exiting successfully. Buy a developer a beer!
