                               Psi4 1.3.2 release

  ==> Input File <==

--------------------------------------------------------------------------
#psi4
#
memory 32 gb

molecule  {
0 1
 Cl       -1.7654740    -0.3100940    -0.0000140
  O        0.1191480     1.5182110     0.0000140
  C        0.9469290    -0.7644920     0.0000410
  C        2.4154409    -0.3636233    -0.0000267
  C       -0.0820610     0.3337550     0.0000080
  H        0.7528550    -1.3956680     0.8744030
  H        0.7528050    -1.3957990    -0.8742120
  H        2.5431970     0.4048060    -0.8827890
  H        2.5432490     0.4048980     0.8826450
  H        3.0855950    -1.0339960    -0.0000140
units angstrom
no_reorient  #important for SAPT in psi4, default
symmetry c1  #important for SAPT in psi4, default
}

set PROPERTIES_ORIGIN ["COM"]
properties('MP2/aug-cc-pvtz', properties = ['dipole'])
--------------------------------------------------------------------------

    Molecular point group: c1
  Charge       = 0
  Multiplicity = 1
  Basis Set: AUG-CC-PVTZ
    Blend: AUG-CC-PVTZ
  Basis Set: (AUG-CC-PVTZ AUX)
    Blend: AUG-CC-PVTZ-JKFIT

    Orbital Energies [Eh]
    ---------------------

    Doubly Occupied:

       1A   -104.852518     2A    -20.594361     3A    -11.414355
       4A    -11.272210     5A    -11.241788     6A    -10.576879
       7A     -8.043517     8A     -8.041814     9A     -8.041672
      10A     -1.437515    11A     -1.138754    12A     -1.072691
      13A     -0.920255    14A     -0.764971    15A     -0.689343
      16A     -0.656838    17A     -0.655621    18A     -0.612093
      19A     -0.562150    20A     -0.523503    21A     -0.487092
      22A     -0.470642    23A     -0.467229    24A     -0.454025

  @DF-RHF Final Energy:  -650.94424778019686

   => Energetics <=

    Nuclear Repulsion Energy =            212.0183369189936116
    One-Electron Energy =               -1315.9415001600746109
    Two-Electron Energy =                 452.9789154608841386
    Total Energy =                       -650.9442477801969744
  Basis Set: (AUG-CC-PVTZ AUX)
    Blend: AUG-CC-PVTZ-RI
    Molecular point group: c1

    Geometry (in Angstrom), charge = 0, multiplicity = 1:

       Center              X                  Y                   Z               Mass
    ------------   -----------------  -----------------  -----------------  -----------------
         CL          -1.649024378431    -0.319532213096    -0.000014382848    34.968852682000
         O            0.235597621569     1.508772786904     0.000013617152    15.994914619570
         C            1.063378621569    -0.773930213096     0.000040617152    12.000000000000
         C            2.531890521569    -0.373061513096    -0.000027082848    12.000000000000
         C            0.034388621569     0.324316786904     0.000007617152    12.000000000000
         H            0.869304621569    -1.405106213096     0.874402617152     1.007825032230
         H            0.869254621569    -1.405237213096    -0.874212382848     1.007825032230
         H            2.659646621569     0.395367786904    -0.882789382848     1.007825032230
         H            2.659698621569     0.395459786904     0.882644617152     1.007825032230
         H            3.202044621569    -1.043434213096    -0.000014382848     1.007825032230

  Basis Set: AUG-CC-PVTZ
    Blend: AUG-CC-PVTZ
  Basis Set: (AUG-CC-PVTZ AUX)
    Blend: AUG-CC-PVTZ-JKFIT
	 Reference Energy          =    -650.9442477801968607 [Eh]
	 Singles Energy            =      -0.0000000000000000 [Eh]
	 Same-Spin Energy          =      -0.2531561351121963 [Eh]
	 Opposite-Spin Energy      =      -0.8013141745994268 [Eh]
	 Correlation Energy        =      -1.0544703097116230 [Eh]
	 Total Energy              =    -651.9987180899084933 [Eh]

	 ================> DF-SCS-MP2 Energies <==================
	-----------------------------------------------------------
	 SCS Same-Spin Scale       =       0.3333333333333333 [-]
	 SCS Opposite-Spin Scale   =       1.2000000000000000 [-]
	 SCS Same-Spin Energy      =      -0.0843853783707321 [Eh]
	 SCS Opposite-Spin Energy  =      -0.9615770095193121 [Eh]
	 SCS Correlation Energy    =      -1.0459623878900441 [Eh]
	 SCS Total Energy          =    -651.9902101680869464 [Eh]
	-----------------------------------------------------------

  Dipole Moment: [D]
     X:     1.8451      Y:    -2.0750      Z:     0.0000     Total:     2.7767

*** Psi4 exiting successfully. Buy a developer a beer!
