                               Psi4 1.3.2 release

  ==> Input File <==

--------------------------------------------------------------------------
#psi4
#
memory 32 gb

molecule  {
0 1
 Cl       -1.7654740    -0.3100940    -0.0000140
  O        0.2418551     1.4906904     0.0000179
  C        0.9469290    -0.7644920     0.0000410
  C        2.3654940    -0.2123180    -0.0000340
  C       -0.0820610     0.3337550     0.0000080
  H        0.7528550    -1.3956680     0.8744030
  H        0.7528050    -1.3957990    -0.8742120
  H        2.5431970     0.4048060    -0.8827890
  H        2.5432490     0.4048980     0.8826450
  H        3.0855950    -1.0339960    -0.0000140
units angstrom
no_reorient  #important for SAPT in psi4, default
symmetry c1  #important for SAPT in psi4, default
}

set PROPERTIES_ORIGIN ["COM"]
properties('MP2/aug-cc-pvtz', properties = ['dipole'])
--------------------------------------------------------------------------

    Molecular point group: c1
  Charge       = 0
  Multiplicity = 1
  Basis Set: AUG-CC-PVTZ
    Blend: AUG-CC-PVTZ
  Basis Set: (AUG-CC-PVTZ AUX)
    Blend: AUG-CC-PVTZ-JKFIT

    Orbital Energies [Eh]
    ---------------------

    Doubly Occupied:

       1A   -104.857444     2A    -20.592585     3A    -11.410038
       4A    -11.265465     5A    -11.234034     6A    -10.581543
       7A     -8.048183     8A     -8.046476     9A     -8.046322
      10A     -1.436724    11A     -1.141263    12A     -1.068376
      13A     -0.909293    14A     -0.762734    15A     -0.683936
      16A     -0.659239    17A     -0.656545    18A     -0.568331
      19A     -0.558422    20A     -0.536252    21A     -0.514087
      22A     -0.472267    23A     -0.471624    24A     -0.451150

  @DF-RHF Final Energy:  -650.97272225006304

   => Energetics <=

    Nuclear Repulsion Energy =            212.8961103531737535
    One-Electron Energy =               -1317.7929969376539248
    Two-Electron Energy =                 453.9241643344170711
    Total Energy =                       -650.9727222500630432
  Basis Set: (AUG-CC-PVTZ AUX)
    Blend: AUG-CC-PVTZ-RI
    Molecular point group: c1

    Geometry (in Angstrom), charge = 0, multiplicity = 1:

       Center              X                  Y                   Z               Mass
    ------------   -----------------  -----------------  -----------------  -----------------
         CL          -1.663842681978    -0.334482546895    -0.000014108728    34.968852682000
         O            0.343486418022     1.466301853105     0.000017791272    15.994914619570
         C            1.048560318022    -0.788880546895     0.000040891272    12.000000000000
         C            2.467125318022    -0.236706546895    -0.000034108728    12.000000000000
         C            0.019570318022     0.309366453105     0.000007891272    12.000000000000
         H            0.854486318022    -1.420056546895     0.874402891272     1.007825032230
         H            0.854436318022    -1.420187546895    -0.874212108728     1.007825032230
         H            2.644828318022     0.380417453105    -0.882789108728     1.007825032230
         H            2.644880318022     0.380509453105     0.882644891272     1.007825032230
         H            3.187226318022    -1.058384546895    -0.000014108728     1.007825032230

  Basis Set: AUG-CC-PVTZ
    Blend: AUG-CC-PVTZ
  Basis Set: (AUG-CC-PVTZ AUX)
    Blend: AUG-CC-PVTZ-JKFIT
	 Reference Energy          =    -650.9727222500630432 [Eh]
	 Singles Energy            =      -0.0000000000000000 [Eh]
	 Same-Spin Energy          =      -0.2531236474576953 [Eh]
	 Opposite-Spin Energy      =      -0.8005024285515059 [Eh]
	 Correlation Energy        =      -1.0536260760092011 [Eh]
	 Total Energy              =    -652.0263483260722523 [Eh]

	 ================> DF-SCS-MP2 Energies <==================
	-----------------------------------------------------------
	 SCS Same-Spin Scale       =       0.3333333333333333 [-]
	 SCS Opposite-Spin Scale   =       1.2000000000000000 [-]
	 SCS Same-Spin Energy      =      -0.0843745491525651 [Eh]
	 SCS Opposite-Spin Energy  =      -0.9606029142618070 [Eh]
	 SCS Correlation Energy    =      -1.0449774634143720 [Eh]
	 SCS Total Energy          =    -652.0176997134774410 [Eh]
	-----------------------------------------------------------

  Dipole Moment: [D]
     X:     1.5984      Y:    -1.9841      Z:     0.0000     Total:     2.5478

*** Psi4 exiting successfully. Buy a developer a beer!
