                               Psi4 1.3.2 release

  ==> Input File <==

--------------------------------------------------------------------------
#psi4
#
memory 32 gb

molecule  {
0 1
 Cl       -1.7654740    -0.3100940    -0.0000140
  O        0.1191480     1.5182110     0.0000140
  C        0.9469290    -0.7644920     0.0000410
  C        2.3654940    -0.2123180    -0.0000340
  C       -0.0924145     0.3237396    -0.0219562
  H        0.7528550    -1.3956680     0.8744030
  H        0.7528050    -1.3957990    -0.8742120
  H        2.5431970     0.4048060    -0.8827890
  H        2.5432490     0.4048980     0.8826450
  H        3.0855950    -1.0339960    -0.0000140
units angstrom
no_reorient  #important for SAPT in psi4, default
symmetry c1  #important for SAPT in psi4, default
}

set PROPERTIES_ORIGIN ["COM"]
properties('MP2/aug-cc-pvtz', properties = ['dipole'])
--------------------------------------------------------------------------

    Molecular point group: c1
  Charge       = 0
  Multiplicity = 1
  Basis Set: AUG-CC-PVTZ
    Blend: AUG-CC-PVTZ
  Basis Set: (AUG-CC-PVTZ AUX)
    Blend: AUG-CC-PVTZ-JKFIT

    Orbital Energies [Eh]
    ---------------------

    Doubly Occupied:

       1A   -104.853088     2A    -20.590430     3A    -11.411159
       4A    -11.270830     5A    -11.237678     6A    -10.577636
       7A     -8.044291     8A     -8.042578     9A     -8.042423
      10A     -1.426992    11A     -1.141068    12A     -1.072190
      13A     -0.912675    14A     -0.763464    15A     -0.681450
      16A     -0.660395    17A     -0.652566    18A     -0.568256
      19A     -0.563380    20A     -0.539538    21A     -0.515830
      22A     -0.468731    23A     -0.467597    24A     -0.451951

  @DF-RHF Final Energy:  -650.97460689350032

   => Energetics <=

    Nuclear Repulsion Energy =            212.7343881079145831
    One-Electron Energy =               -1317.5056024869213616
    Two-Electron Energy =                 453.7966074855065131
    Total Energy =                       -650.9746068935003223
  Basis Set: (AUG-CC-PVTZ AUX)
    Blend: AUG-CC-PVTZ-RI
    Molecular point group: c1

    Geometry (in Angstrom), charge = 0, multiplicity = 1:

       Center              X                  Y                   Z               Mass
    ------------   -----------------  -----------------  -----------------  -----------------
         CL          -1.641159356140    -0.337960751098     0.002851374880    34.968852682000
         O            0.243462643860     1.490344248902     0.002879374880    15.994914619570
         C            1.071243643860    -0.792358751098     0.002906374880    12.000000000000
         C            2.489808643860    -0.240184751098     0.002831374880    12.000000000000
         C            0.031900143860     0.295872848902    -0.019090825120    12.000000000000
         H            0.877169643860    -1.423534751098     0.877268374880     1.007825032230
         H            0.877119643860    -1.423665751098    -0.871346625120     1.007825032230
         H            2.667511643860     0.376939248902    -0.879923625120     1.007825032230
         H            2.667563643860     0.377031248902     0.885510374880     1.007825032230
         H            3.209909643860    -1.061862751098     0.002851374880     1.007825032230

  Basis Set: AUG-CC-PVTZ
    Blend: AUG-CC-PVTZ
  Basis Set: (AUG-CC-PVTZ AUX)
    Blend: AUG-CC-PVTZ-JKFIT
	 Reference Energy          =    -650.9746068935003223 [Eh]
	 Singles Energy            =      -0.0000000000000000 [Eh]
	 Same-Spin Energy          =      -0.2531212601250108 [Eh]
	 Opposite-Spin Energy      =      -0.8005351019696934 [Eh]
	 Correlation Energy        =      -1.0536563620947041 [Eh]
	 Total Energy              =    -652.0282632555949931 [Eh]

	 ================> DF-SCS-MP2 Energies <==================
	-----------------------------------------------------------
	 SCS Same-Spin Scale       =       0.3333333333333333 [-]
	 SCS Opposite-Spin Scale   =       1.2000000000000000 [-]
	 SCS Same-Spin Energy      =      -0.0843737533750036 [Eh]
	 SCS Opposite-Spin Energy  =      -0.9606421223636320 [Eh]
	 SCS Correlation Energy    =      -1.0450158757386356 [Eh]
	 SCS Total Energy          =    -652.0196227692389357 [Eh]
	-----------------------------------------------------------

  Dipole Moment: [D]
     X:     1.8198      Y:    -2.1146      Z:    -0.0136     Total:     2.7898

*** Psi4 exiting successfully. Buy a developer a beer!
