                               Psi4 1.4a3.dev225

  ==> Input File <==

--------------------------------------------------------------------------
#psi4
#
memory 32 gb

molecule  {
0 1
 Cl       -1.7654670    -0.3100810     0.0000010
  O        0.1191580     1.5181910     0.0000000
  C        0.9469270    -0.7644920    -0.0000020
  C        2.3654840    -0.2123060     0.0000020
  C       -0.0957447     0.3483246    -0.0000010
  H        0.7528160    -1.3957640     0.8742890
  H        0.7528180    -1.3957580    -0.8742970
  H        2.5431990     0.4048750    -0.8827100
  H        2.5431990     0.4048640     0.8827220
  H        3.0856000    -1.0339670    -0.0000030
units angstrom
no_reorient  #important for SAPT in psi4, default
symmetry c1  #important for SAPT in psi4, default
}

set PROPERTIES_ORIGIN ["COM"]
properties('MP2/aug-cc-pvtz', properties = ['dipole'])
--------------------------------------------------------------------------

    Molecular point group: c1
  Charge       = 0
  Multiplicity = 1
  Basis Set: AUG-CC-PVTZ
    Blend: AUG-CC-PVTZ
  Basis Set: (AUG-CC-PVTZ AUX)
    Blend: AUG-CC-PVTZ-JKFIT

    Orbital Energies [Eh]
    ---------------------

    Doubly Occupied:

       1A   -104.849786     2A    -20.593436     3A    -11.408919
       4A    -11.270767     5A    -11.237173     6A    -10.574457
       7A     -8.041096     8A     -8.039403     9A     -8.039255
      10A     -1.444832    11A     -1.137653    12A     -1.068971
      13A     -0.908603    14A     -0.764730    15A     -0.684776
      16A     -0.659948    17A     -0.657332    18A     -0.574659
      19A     -0.564518    20A     -0.540031    21A     -0.517172
      22A     -0.467791    23A     -0.466420    24A     -0.448815

  @DF-RHF Final Energy:  -650.97749607023002

   => Energetics <=

    Nuclear Repulsion Energy =            212.8328365787048426
    One-Electron Energy =               -1317.6995811607271207
    Two-Electron Energy =                 453.8892485117921751
    Total Energy =                       -650.9774960702300177
  Basis Set: (AUG-CC-PVTZ AUX)
    Blend: AUG-CC-PVTZ-RI
    Molecular point group: c1

    Geometry (in Angstrom), charge = 0, multiplicity = 1:

       Center              X                  Y                   Z               Mass
    ------------   -----------------  -----------------  -----------------  -----------------
         CL          -1.640720073983    -0.341157517218     0.000000739392    34.968852682000
         O            0.243904926017     1.487114482782    -0.000000260608    15.994914619570
         C            1.071673926017    -0.795568517218    -0.000002260608    12.000000000000
         C            2.490230926017    -0.243382517218     0.000001739392    12.000000000000
         C            0.029002226017     0.317248082782    -0.000001260608    12.000000000000
         H            0.877562926017    -1.426840517218     0.874288739392     1.007825032230
         H            0.877564926017    -1.426834517218    -0.874297260608     1.007825032230
         H            2.667945926017     0.373798482782    -0.882710260608     1.007825032230
         H            2.667945926017     0.373787482782     0.882721739392     1.007825032230
         H            3.210346926017    -1.065043517218    -0.000003260608     1.007825032230

  Basis Set: AUG-CC-PVTZ
    Blend: AUG-CC-PVTZ
  Basis Set: (AUG-CC-PVTZ AUX)
    Blend: AUG-CC-PVTZ-JKFIT
	 Reference Energy          =    -650.9774960702300177 [Eh]
	 Singles Energy            =      -0.0000000000000000 [Eh]
	 Same-Spin Energy          =      -0.2523855509807267 [Eh]
	 Opposite-Spin Energy      =      -0.7989897741361249 [Eh]
	 Correlation Energy        =      -1.0513753251168516 [Eh]
	 Total Energy              =    -652.0288713953468687 [Eh]

	 ================> DF-SCS-MP2 Energies <==================
	-----------------------------------------------------------
	 SCS Same-Spin Scale       =       0.3333333333333333 [-]
	 SCS Opposite-Spin Scale   =       1.2000000000000000 [-]
	 SCS Same-Spin Energy      =      -0.0841285169935756 [Eh]
	 SCS Opposite-Spin Energy  =      -0.9587877289633499 [Eh]
	 SCS Correlation Energy    =      -1.0429162459569254 [Eh]
	 SCS Total Energy          =    -652.0204123161869347 [Eh]
	-----------------------------------------------------------

  Dipole Moment: [D]
     X:     1.8741      Y:    -1.9791      Z:    -0.0000     Total:     2.7256

*** Psi4 exiting successfully. Buy a developer a beer!
