                               Psi4 1.3.2 release

  ==> Input File <==

--------------------------------------------------------------------------
#psi4
#
memory 32 gb

molecule  {
0 1
 Cl       -1.7764543    -0.2806163    -0.0000146
  O        0.1191480     1.5182110     0.0000140
  C        0.9469290    -0.7644920     0.0000410
  C        2.3654940    -0.2123180    -0.0000340
  C       -0.0820610     0.3337550     0.0000080
  H        0.7528550    -1.3956680     0.8744030
  H        0.7528050    -1.3957990    -0.8742120
  H        2.5431970     0.4048060    -0.8827890
  H        2.5432490     0.4048980     0.8826450
  H        3.0855950    -1.0339960    -0.0000140
units angstrom
no_reorient  #important for SAPT in psi4, default
symmetry c1  #important for SAPT in psi4, default
}

set PROPERTIES_ORIGIN ["COM"]
properties('MP2/aug-cc-pvtz', properties = ['dipole'])
--------------------------------------------------------------------------

    Molecular point group: c1
  Charge       = 0
  Multiplicity = 1
  Basis Set: AUG-CC-PVTZ
    Blend: AUG-CC-PVTZ
  Basis Set: (AUG-CC-PVTZ AUX)
    Blend: AUG-CC-PVTZ-JKFIT

    Orbital Energies [Eh]
    ---------------------

    Doubly Occupied:

       1A   -104.848999     2A    -20.592191     3A    -11.410625
       4A    -11.272074     5A    -11.238675     6A    -10.573498
       7A     -8.040128     8A     -8.038450     9A     -8.038306
      10A     -1.436346    11A     -1.135667    12A     -1.072972
      13A     -0.912981    14A     -0.764321    15A     -0.684321
      16A     -0.661793    17A     -0.654082    18A     -0.571189
      19A     -0.564351    20A     -0.540927    21A     -0.517661
      22A     -0.466282    23A     -0.465834    24A     -0.450503

  @DF-RHF Final Energy:  -650.97646910034507

   => Energetics <=

    Nuclear Repulsion Energy =            212.6795794153692896
    One-Electron Energy =               -1317.4077424853626326
    Two-Electron Energy =                 453.7516939696482723
    Total Energy =                       -650.9764691003450707
  Basis Set: (AUG-CC-PVTZ AUX)
    Blend: AUG-CC-PVTZ-RI
    Molecular point group: c1

    Geometry (in Angstrom), charge = 0, multiplicity = 1:

       Center              X                  Y                   Z               Mass
    ------------   -----------------  -----------------  -----------------  -----------------
         CL          -1.649316630840    -0.320993376783    -0.000013802653    34.968852682000
         O            0.246285669160     1.477833923217     0.000014797347    15.994914619570
         C            1.074066669160    -0.804869076783     0.000041797347    12.000000000000
         C            2.492631669160    -0.252695076783    -0.000033202653    12.000000000000
         C            0.045076669160     0.293377923217     0.000008797347    12.000000000000
         H            0.879992669160    -1.436045076783     0.874403797347     1.007825032230
         H            0.879942669160    -1.436176076783    -0.874211202653     1.007825032230
         H            2.670334669160     0.364428923217    -0.882788202653     1.007825032230
         H            2.670386669160     0.364520923217     0.882645797347     1.007825032230
         H            3.212732669160    -1.074373076783    -0.000013202653     1.007825032230

  Basis Set: AUG-CC-PVTZ
    Blend: AUG-CC-PVTZ
  Basis Set: (AUG-CC-PVTZ AUX)
    Blend: AUG-CC-PVTZ-JKFIT
	 Reference Energy          =    -650.9764691003450707 [Eh]
	 Singles Energy            =      -0.0000000000000000 [Eh]
	 Same-Spin Energy          =      -0.2527461393615814 [Eh]
	 Opposite-Spin Energy      =      -0.7997316819923002 [Eh]
	 Correlation Energy        =      -1.0524778213538815 [Eh]
	 Total Energy              =    -652.0289469216990028 [Eh]

	 ================> DF-SCS-MP2 Energies <==================
	-----------------------------------------------------------
	 SCS Same-Spin Scale       =       0.3333333333333333 [-]
	 SCS Opposite-Spin Scale   =       1.2000000000000000 [-]
	 SCS Same-Spin Energy      =      -0.0842487131205271 [Eh]
	 SCS Opposite-Spin Energy  =      -0.9596780183907602 [Eh]
	 SCS Correlation Energy    =      -1.0439267315112872 [Eh]
	 SCS Total Energy          =    -652.0203958318563764 [Eh]
	-----------------------------------------------------------

  Dipole Moment: [D]
     X:     1.9697      Y:    -2.0609      Z:     0.0000     Total:     2.8507

*** Psi4 exiting successfully. Buy a developer a beer!
