                               Psi4 1.3.2 release

  ==> Input File <==

--------------------------------------------------------------------------
#psi4
#
memory 32 gb

molecule  {
0 1
 Cl       -1.7654740    -0.3100940    -0.0000140
  O        0.1191480     1.5182110     0.0000140
  C        0.9469290    -0.7644920     0.0000410
  C        2.3654940    -0.2123180    -0.0000340
  C        0.1047423     0.4052010     0.0000104
  H        0.7528550    -1.3956680     0.8744030
  H        0.7528050    -1.3957990    -0.8742120
  H        2.5431970     0.4048060    -0.8827890
  H        2.5432490     0.4048980     0.8826450
  H        3.0855950    -1.0339960    -0.0000140
units angstrom
no_reorient  #important for SAPT in psi4, default
symmetry c1  #important for SAPT in psi4, default
}

set PROPERTIES_ORIGIN ["COM"]
properties('MP2/aug-cc-pvtz', properties = ['dipole'])
--------------------------------------------------------------------------

    Molecular point group: c1
  Charge       = 0
  Multiplicity = 1
  Basis Set: AUG-CC-PVTZ
    Blend: AUG-CC-PVTZ
  Basis Set: (AUG-CC-PVTZ AUX)
    Blend: AUG-CC-PVTZ-JKFIT

    Orbital Energies [Eh]
    ---------------------

    Doubly Occupied:

       1A   -104.790841     2A    -20.633783     3A    -11.423135
       4A    -11.288204     5A    -11.253796     6A    -10.515710
       7A     -7.982054     8A     -7.980893     9A     -7.980838
      10A     -1.530170    11A     -1.129170    12A     -1.047081
      13A     -0.927722    14A     -0.791822    15A     -0.728729
      16A     -0.695426    17A     -0.675375    18A     -0.612942
      19A     -0.578705    20A     -0.564555    21A     -0.539688
      22A     -0.427028    23A     -0.424416    24A     -0.419961

  @DF-RHF Final Energy:  -650.95975258546684

   => Energetics <=

    Nuclear Repulsion Energy =            212.7311329562727735
    One-Electron Energy =               -1317.4976784800587666
    Two-Electron Energy =                 453.8067929383191199
    Total Energy =                       -650.9597525854667310
  Basis Set: (AUG-CC-PVTZ AUX)
    Blend: AUG-CC-PVTZ-RI
    Molecular point group: c1

    Geometry (in Angstrom), charge = 0, multiplicity = 1:

       Center              X                  Y                   Z               Mass
    ------------   -----------------  -----------------  -----------------  -----------------
         CL          -1.666874652004    -0.348585817048    -0.000013743737    34.968852682000
         O            0.217747347996     1.479719182952     0.000014256263    15.994914619570
         C            1.045528347996    -0.802983817048     0.000041256263    12.000000000000
         C            2.464093347996    -0.250809817048    -0.000033743737    12.000000000000
         C            0.203341647996     0.366709182952     0.000010656263    12.000000000000
         H            0.851454347996    -1.434159817048     0.874403256263     1.007825032230
         H            0.851404347996    -1.434290817048    -0.874211743737     1.007825032230
         H            2.641796347996     0.366314182952    -0.882788743737     1.007825032230
         H            2.641848347996     0.366406182952     0.882645256263     1.007825032230
         H            3.184194347996    -1.072487817048    -0.000013743737     1.007825032230

  Basis Set: AUG-CC-PVTZ
    Blend: AUG-CC-PVTZ
  Basis Set: (AUG-CC-PVTZ AUX)
    Blend: AUG-CC-PVTZ-JKFIT
	 Reference Energy          =    -650.9597525854668447 [Eh]
	 Singles Energy            =      -0.0000000000000000 [Eh]
	 Same-Spin Energy          =      -0.2517330407807169 [Eh]
	 Opposite-Spin Energy      =      -0.7961785560858841 [Eh]
	 Correlation Energy        =      -1.0479115968666011 [Eh]
	 Total Energy              =    -652.0076641823334285 [Eh]

	 ================> DF-SCS-MP2 Energies <==================
	-----------------------------------------------------------
	 SCS Same-Spin Scale       =       0.3333333333333333 [-]
	 SCS Opposite-Spin Scale   =       1.2000000000000000 [-]
	 SCS Same-Spin Energy      =      -0.0839110135935723 [Eh]
	 SCS Opposite-Spin Energy  =      -0.9554142673030608 [Eh]
	 SCS Correlation Energy    =      -1.0393252808966331 [Eh]
	 SCS Total Energy          =    -651.9990778663634501 [Eh]
	-----------------------------------------------------------

  Dipole Moment: [D]
     X:     4.1869      Y:    -1.2280      Z:     0.0001     Total:     4.3632

*** Psi4 exiting successfully. Buy a developer a beer!
