                               Psi4 1.3.2 release

  ==> Input File <==

--------------------------------------------------------------------------
#psi4
#
memory 32 gb

molecule  {
0 1
 Cl       -1.7654740    -0.3100940    -0.0000140
  O        0.1191480     1.5182110     0.0000140
  C        0.9469290    -0.7644920     0.0000410
  C        2.3235207    -0.1147090    -0.0000384
  C       -0.0820610     0.3337550     0.0000080
  H        0.7528550    -1.3956680     0.8744030
  H        0.7528050    -1.3957990    -0.8742120
  H        2.5431970     0.4048060    -0.8827890
  H        2.5432490     0.4048980     0.8826450
  H        3.0855950    -1.0339960    -0.0000140
units angstrom
no_reorient  #important for SAPT in psi4, default
symmetry c1  #important for SAPT in psi4, default
}

set PROPERTIES_ORIGIN ["COM"]
properties('MP2/aug-cc-pvtz', properties = ['dipole'])
--------------------------------------------------------------------------

    Molecular point group: c1
  Charge       = 0
  Multiplicity = 1
  Basis Set: AUG-CC-PVTZ
    Blend: AUG-CC-PVTZ
  Basis Set: (AUG-CC-PVTZ AUX)
    Blend: AUG-CC-PVTZ-JKFIT

    Orbital Energies [Eh]
    ---------------------

    Doubly Occupied:

       1A   -104.848037     2A    -20.593064     3A    -11.409684
       4A    -11.273225     5A    -11.240472     6A    -10.572641
       7A     -8.039265     8A     -8.037603     9A     -8.037456
      10A     -1.437073    11A     -1.136527    12A     -1.073940
      13A     -0.912750    14A     -0.765491    15A     -0.682032
      16A     -0.669509    17A     -0.655562    18A     -0.582445
      19A     -0.558473    20A     -0.530448    21A     -0.521828
      22A     -0.466022    23A     -0.463312    24A     -0.448026

  @DF-RHF Final Energy:  -650.96503283209199

   => Energetics <=

    Nuclear Repulsion Energy =            213.3279689255514313
    One-Electron Energy =               -1318.6762340350671820
    Two-Electron Energy =                 454.3832322774238150
    Total Energy =                       -650.9650328320919925
  Basis Set: (AUG-CC-PVTZ AUX)
    Blend: AUG-CC-PVTZ-RI
    Molecular point group: c1

    Geometry (in Angstrom), charge = 0, multiplicity = 1:

       Center              X                  Y                   Z               Mass
    ------------   -----------------  -----------------  -----------------  -----------------
         CL          -1.637035164065    -0.351998274978    -0.000012856809    34.968852682000
         O            0.247586835935     1.476306725022     0.000015143191    15.994914619570
         C            1.075367835935    -0.806396274978     0.000042143191    12.000000000000
         C            2.451959535935    -0.156613274978    -0.000037256809    12.000000000000
         C            0.046377835935     0.291850725022     0.000009143191    12.000000000000
         H            0.881293835935    -1.437572274978     0.874404143191     1.007825032230
         H            0.881243835935    -1.437703274978    -0.874210856809     1.007825032230
         H            2.671635835935     0.362901725022    -0.882787856809     1.007825032230
         H            2.671687835935     0.362993725022     0.882646143191     1.007825032230
         H            3.214033835935    -1.075900274978    -0.000012856809     1.007825032230

  Basis Set: AUG-CC-PVTZ
    Blend: AUG-CC-PVTZ
  Basis Set: (AUG-CC-PVTZ AUX)
    Blend: AUG-CC-PVTZ-JKFIT
	 Reference Energy          =    -650.9650328320919925 [Eh]
	 Singles Energy            =      -0.0000000000000000 [Eh]
	 Same-Spin Energy          =      -0.2530822449806029 [Eh]
	 Opposite-Spin Energy      =      -0.8003665461855957 [Eh]
	 Correlation Energy        =      -1.0534487911661987 [Eh]
	 Total Energy              =    -652.0184816232581397 [Eh]

	 ================> DF-SCS-MP2 Energies <==================
	-----------------------------------------------------------
	 SCS Same-Spin Scale       =       0.3333333333333333 [-]
	 SCS Opposite-Spin Scale   =       1.2000000000000000 [-]
	 SCS Same-Spin Energy      =      -0.0843607483268676 [Eh]
	 SCS Opposite-Spin Energy  =      -0.9604398554227147 [Eh]
	 SCS Correlation Energy    =      -1.0448006037495823 [Eh]
	 SCS Total Energy          =    -652.0098334358415286 [Eh]
	-----------------------------------------------------------

  Dipole Moment: [D]
     X:     1.9507      Y:    -1.9977      Z:     0.0000     Total:     2.7922

*** Psi4 exiting successfully. Buy a developer a beer!
