                               Psi4 1.4a3.dev225

  ==> Input File <==

--------------------------------------------------------------------------
#psi4
#
memory 32 gb

molecule  {
0 1
 Cl       -1.7654670    -0.3100810     0.0000010
  O        0.1191580     1.5181910     0.0000000
  C        0.9469270    -0.7644920    -0.0000020
  C        2.3654840    -0.2123060     0.0000020
  C       -0.1162567     0.3702166    -0.0000010
  H        0.7528160    -1.3957640     0.8742890
  H        0.7528180    -1.3957580    -0.8742970
  H        2.5431990     0.4048750    -0.8827100
  H        2.5431990     0.4048640     0.8827220
  H        3.0856000    -1.0339670    -0.0000030
units angstrom
no_reorient  #important for SAPT in psi4, default
symmetry c1  #important for SAPT in psi4, default
}

set PROPERTIES_ORIGIN ["COM"]
properties('MP2/aug-cc-pvtz', properties = ['dipole'])
--------------------------------------------------------------------------

    Molecular point group: c1
  Charge       = 0
  Multiplicity = 1
  Basis Set: AUG-CC-PVTZ
    Blend: AUG-CC-PVTZ
  Basis Set: (AUG-CC-PVTZ AUX)
    Blend: AUG-CC-PVTZ-JKFIT

    Orbital Energies [Eh]
    ---------------------

    Doubly Occupied:

       1A   -104.850383     2A    -20.594005     3A    -11.405925
       4A    -11.269589     5A    -11.235601     6A    -10.575279
       7A     -8.041933     8A     -8.040213     9A     -8.040061
      10A     -1.457200    11A     -1.139213    12A     -1.063991
      13A     -0.902631    14A     -0.765232    15A     -0.686283
      16A     -0.661002    17A     -0.657788    18A     -0.580019
      19A     -0.564855    20A     -0.538952    21A     -0.516443
      22A     -0.469675    23A     -0.467493    24A     -0.444253

  @DF-RHF Final Energy:  -650.97728309249112

   => Energetics <=

    Nuclear Repulsion Energy =            212.9619372713810890
    One-Electron Energy =               -1317.9424050967597850
    Two-Electron Energy =                 454.0031847328874619
    Total Energy =                       -650.9772830924911204
  Basis Set: (AUG-CC-PVTZ AUX)
    Blend: AUG-CC-PVTZ-RI
    Molecular point group: c1

    Geometry (in Angstrom), charge = 0, multiplicity = 1:

       Center              X                  Y                   Z               Mass
    ------------   -----------------  -----------------  -----------------  -----------------
         CL          -1.638044679836    -0.344012905706     0.000000739392    34.968852682000
         O            0.246580320164     1.484259094294    -0.000000260608    15.994914619570
         C            1.074349320164    -0.798423905706    -0.000002260608    12.000000000000
         C            2.492906320164    -0.246237905706     0.000001739392    12.000000000000
         C            0.011165620164     0.336284694294    -0.000001260608    12.000000000000
         H            0.880238320164    -1.429695905706     0.874288739392     1.007825032230
         H            0.880240320164    -1.429689905706    -0.874297260608     1.007825032230
         H            2.670621320164     0.370943094294    -0.882710260608     1.007825032230
         H            2.670621320164     0.370932094294     0.882721739392     1.007825032230
         H            3.213022320164    -1.067898905706    -0.000003260608     1.007825032230

  Basis Set: AUG-CC-PVTZ
    Blend: AUG-CC-PVTZ
  Basis Set: (AUG-CC-PVTZ AUX)
    Blend: AUG-CC-PVTZ-JKFIT
	 Reference Energy          =    -650.9772830924911204 [Eh]
	 Singles Energy            =      -0.0000000000000000 [Eh]
	 Same-Spin Energy          =      -0.2518045874219790 [Eh]
	 Opposite-Spin Energy      =      -0.7978396140933204 [Eh]
	 Correlation Energy        =      -1.0496442015152994 [Eh]
	 Total Energy              =    -652.0269272940064411 [Eh]

	 ================> DF-SCS-MP2 Energies <==================
	-----------------------------------------------------------
	 SCS Same-Spin Scale       =       0.3333333333333333 [-]
	 SCS Opposite-Spin Scale   =       1.2000000000000000 [-]
	 SCS Same-Spin Energy      =      -0.0839348624739930 [Eh]
	 SCS Opposite-Spin Energy  =      -0.9574075369119844 [Eh]
	 SCS Correlation Energy    =      -1.0413423993859774 [Eh]
	 SCS Total Energy          =    -652.0186254918770601 [Eh]
	-----------------------------------------------------------

  Dipole Moment: [D]
     X:     1.7606      Y:    -1.8852      Z:    -0.0000     Total:     2.5795

*** Psi4 exiting successfully. Buy a developer a beer!
