                               Psi4 1.3.2 release

  ==> Input File <==

--------------------------------------------------------------------------
#psi4
#
memory 32 gb

molecule  {
0 1
 Cl       -1.7654740    -0.3100940    -0.0000140
  O        0.1191480     1.5182110     0.0000140
  C        0.9469290    -0.7644920     0.0000410
  C        2.3556412    -0.1876447    -0.0000351
  C       -0.0820610     0.3337550     0.0000080
  H        0.7528550    -1.3956680     0.8744030
  H        0.7528050    -1.3957990    -0.8742120
  H        2.5431970     0.4048060    -0.8827890
  H        2.5432490     0.4048980     0.8826450
  H        3.0855950    -1.0339960    -0.0000140
units angstrom
no_reorient  #important for SAPT in psi4, default
symmetry c1  #important for SAPT in psi4, default
}

set PROPERTIES_ORIGIN ["COM"]
properties('MP2/aug-cc-pvtz', properties = ['dipole'])
--------------------------------------------------------------------------

    Molecular point group: c1
  Charge       = 0
  Multiplicity = 1
  Basis Set: AUG-CC-PVTZ
    Blend: AUG-CC-PVTZ
  Basis Set: (AUG-CC-PVTZ AUX)
    Blend: AUG-CC-PVTZ-JKFIT

    Orbital Energies [Eh]
    ---------------------

    Doubly Occupied:

       1A   -104.849001     2A    -20.592969     3A    -11.410547
       4A    -11.271713     5A    -11.238449     6A    -10.573541
       7A     -8.040168     8A     -8.038496     9A     -8.038350
      10A     -1.436631    11A     -1.136747    12A     -1.072565
      13A     -0.912354    14A     -0.764696    15A     -0.683318
      16A     -0.663328    17A     -0.654970    18A     -0.573736
      19A     -0.558108    20A     -0.540653    21A     -0.521314
      22A     -0.466331    23A     -0.465492    24A     -0.450274

  @DF-RHF Final Energy:  -650.97557043401116

   => Energetics <=

    Nuclear Repulsion Energy =            212.8885642154911011
    One-Electron Energy =               -1317.8207662075622011
    Two-Electron Energy =                 453.9566315580597688
    Total Energy =                       -650.9755704340111606
  Basis Set: (AUG-CC-PVTZ AUX)
    Blend: AUG-CC-PVTZ-RI
    Molecular point group: c1

    Geometry (in Angstrom), charge = 0, multiplicity = 1:

       Center              X                  Y                   Z               Mass
    ------------   -----------------  -----------------  -----------------  -----------------
         CL          -1.641224662783    -0.342485221893    -0.000013287230    34.968852682000
         O            0.243397337217     1.485819778107     0.000014712770    15.994914619570
         C            1.071178337217    -0.796883221893     0.000041712770    12.000000000000
         C            2.479890537217    -0.220035921893    -0.000034387230    12.000000000000
         C            0.042188337217     0.301363778107     0.000008712770    12.000000000000
         H            0.877104337217    -1.428059221893     0.874403712770     1.007825032230
         H            0.877054337217    -1.428190221893    -0.874211287230     1.007825032230
         H            2.667446337217     0.372414778107    -0.882788287230     1.007825032230
         H            2.667498337217     0.372506778107     0.882645712770     1.007825032230
         H            3.209844337217    -1.066387221893    -0.000013287230     1.007825032230

  Basis Set: AUG-CC-PVTZ
    Blend: AUG-CC-PVTZ
  Basis Set: (AUG-CC-PVTZ AUX)
    Blend: AUG-CC-PVTZ-JKFIT
	 Reference Energy          =    -650.9755704340111606 [Eh]
	 Singles Energy            =      -0.0000000000000000 [Eh]
	 Same-Spin Energy          =      -0.2528516448362043 [Eh]
	 Opposite-Spin Energy      =      -0.7998773709309803 [Eh]
	 Correlation Energy        =      -1.0527290157671847 [Eh]
	 Total Energy              =    -652.0282994497783875 [Eh]

	 ================> DF-SCS-MP2 Energies <==================
	-----------------------------------------------------------
	 SCS Same-Spin Scale       =       0.3333333333333333 [-]
	 SCS Opposite-Spin Scale   =       1.2000000000000000 [-]
	 SCS Same-Spin Energy      =      -0.0842838816120681 [Eh]
	 SCS Opposite-Spin Energy  =      -0.9598528451171764 [Eh]
	 SCS Correlation Energy    =      -1.0441367267292445 [Eh]
	 SCS Total Energy          =    -652.0197071607403814 [Eh]
	-----------------------------------------------------------

  Dipole Moment: [D]
     X:     1.9554      Y:    -2.0312      Z:     0.0000     Total:     2.8195

*** Psi4 exiting successfully. Buy a developer a beer!
