                               Psi4 1.4a3.dev225

  ==> Input File <==

--------------------------------------------------------------------------
#psi4
#
memory 32 gb

molecule  {
0 1
 Cl       -1.7654670    -0.3100810     0.0000010
  O        0.1191580     1.5181910     0.0000000
  C        0.9469270    -0.7644920    -0.0000020
  C        2.3654840    -0.2123060     0.0000020
  C       -0.0854198     0.3140125    -0.0000010
  H        0.7528160    -1.3957640     0.8742890
  H        0.7528180    -1.3957580    -0.8742970
  H        2.5431990     0.4048750    -0.8827100
  H        2.5431990     0.4048640     0.8827220
  H        3.0856000    -1.0339670    -0.0000030
units angstrom
no_reorient  #important for SAPT in psi4, default
symmetry c1  #important for SAPT in psi4, default
}

set PROPERTIES_ORIGIN ["COM"]
properties('MP2/aug-cc-pvtz', properties = ['dipole'])
--------------------------------------------------------------------------

    Molecular point group: c1
  Charge       = 0
  Multiplicity = 1
  Basis Set: AUG-CC-PVTZ
    Blend: AUG-CC-PVTZ
  Basis Set: (AUG-CC-PVTZ AUX)
    Blend: AUG-CC-PVTZ-JKFIT

    Orbital Energies [Eh]
    ---------------------

    Doubly Occupied:

       1A   -104.853233     2A    -20.589834     3A    -11.412258
       4A    -11.271084     5A    -11.238266     6A    -10.577693
       7A     -8.044345     8A     -8.042637     9A     -8.042483
      10A     -1.421393    11A     -1.141073    12A     -1.074260
      13A     -0.915090    14A     -0.763247    15A     -0.680911
      16A     -0.661427    17A     -0.650969    18A     -0.566249
      19A     -0.563042    20A     -0.539818    21A     -0.515654
      22A     -0.469220    23A     -0.466833    24A     -0.452802

  @DF-RHF Final Energy:  -650.97332491406144

   => Energetics <=

    Nuclear Repulsion Energy =            212.6973818786025276
    One-Electron Energy =               -1317.4337757713433348
    Two-Electron Energy =                 453.7630689786792573
    Total Energy =                       -650.9733249140615499
  Basis Set: (AUG-CC-PVTZ AUX)
    Blend: AUG-CC-PVTZ-RI
    Molecular point group: c1

    Geometry (in Angstrom), charge = 0, multiplicity = 1:

       Center              X                  Y                   Z               Mass
    ------------   -----------------  -----------------  -----------------  -----------------
         CL          -1.642066757731    -0.336682166618     0.000000739392    34.968852682000
         O            0.242558242269     1.491589833382    -0.000000260608    15.994914619570
         C            1.070327242269    -0.791093166618    -0.000002260608    12.000000000000
         C            2.488884242269    -0.238907166618     0.000001739392    12.000000000000
         C            0.037980442269     0.287411333382    -0.000001260608    12.000000000000
         H            0.876216242269    -1.422365166618     0.874288739392     1.007825032230
         H            0.876218242269    -1.422359166618    -0.874297260608     1.007825032230
         H            2.666599242269     0.378273833382    -0.882710260608     1.007825032230
         H            2.666599242269     0.378262833382     0.882721739392     1.007825032230
         H            3.209000242269    -1.060568166618    -0.000003260608     1.007825032230

  Basis Set: AUG-CC-PVTZ
    Blend: AUG-CC-PVTZ
  Basis Set: (AUG-CC-PVTZ AUX)
    Blend: AUG-CC-PVTZ-JKFIT
	 Reference Energy          =    -650.9733249140614362 [Eh]
	 Singles Energy            =      -0.0000000000000000 [Eh]
	 Same-Spin Energy          =      -0.2534140516181641 [Eh]
	 Opposite-Spin Energy      =      -0.8011068814923439 [Eh]
	 Correlation Energy        =      -1.0545209331105081 [Eh]
	 Total Energy              =    -652.0278458471719887 [Eh]

	 ================> DF-SCS-MP2 Energies <==================
	-----------------------------------------------------------
	 SCS Same-Spin Scale       =       0.3333333333333333 [-]
	 SCS Opposite-Spin Scale   =       1.2000000000000000 [-]
	 SCS Same-Spin Energy      =      -0.0844713505393880 [Eh]
	 SCS Opposite-Spin Energy  =      -0.9613282577908127 [Eh]
	 SCS Correlation Energy    =      -1.0457996083302006 [Eh]
	 SCS Total Energy          =    -652.0191245223916212 [Eh]
	-----------------------------------------------------------

  Dipole Moment: [D]
     X:     1.8514      Y:    -2.1579      Z:    -0.0000     Total:     2.8433

*** Psi4 exiting successfully. Buy a developer a beer!
