                               Psi4 1.4a3.dev225

  ==> Input File <==

--------------------------------------------------------------------------
#psi4
#
memory 32 gb

molecule  {
0 1
 Cl       -1.7654670    -0.3100810     0.0000010
  O        0.1191580     1.5181910     0.0000000
  C        0.9469270    -0.7644920    -0.0000020
  C        2.3654840    -0.2123060     0.0000020
  C       -0.0904445     0.2844363    -0.0000010
  H        0.7528160    -1.3957640     0.8742890
  H        0.7528180    -1.3957580    -0.8742970
  H        2.5431990     0.4048750    -0.8827100
  H        2.5431990     0.4048640     0.8827220
  H        3.0856000    -1.0339670    -0.0000030
units angstrom
no_reorient  #important for SAPT in psi4, default
symmetry c1  #important for SAPT in psi4, default
}

set PROPERTIES_ORIGIN ["COM"]
properties('MP2/aug-cc-pvtz', properties = ['dipole'])
--------------------------------------------------------------------------

    Molecular point group: c1
  Charge       = 0
  Multiplicity = 1
  Basis Set: AUG-CC-PVTZ
    Blend: AUG-CC-PVTZ
  Basis Set: (AUG-CC-PVTZ AUX)
    Blend: AUG-CC-PVTZ-JKFIT

    Orbital Energies [Eh]
    ---------------------

    Doubly Occupied:

       1A   -104.858670     2A    -20.585102     3A    -11.414053
       4A    -11.270666     5A    -11.238379     6A    -10.583065
       7A     -8.049748     8A     -8.047995     9A     -8.047827
      10A     -1.399749    11A     -1.147030    12A     -1.077366
      13A     -0.918824    14A     -0.761831    15A     -0.677488
      16A     -0.661637    17A     -0.644860    18A     -0.561516
      19A     -0.560628    20A     -0.538203    21A     -0.512913
      22A     -0.474005    23A     -0.465851    24A     -0.454311

  @DF-RHF Final Energy:  -650.96663602928447

   => Energetics <=

    Nuclear Repulsion Energy =            212.6355826209717179
    One-Electron Energy =               -1317.3010085222188081
    Two-Electron Energy =                 453.6987898719627310
    Total Energy =                       -650.9666360292843592
  Basis Set: (AUG-CC-PVTZ AUX)
    Blend: AUG-CC-PVTZ-RI
    Molecular point group: c1

    Geometry (in Angstrom), charge = 0, multiplicity = 1:

       Center              X                  Y                   Z               Mass
    ------------   -----------------  -----------------  -----------------  -----------------
         CL          -1.641411382683    -0.332824522684     0.000000739392    34.968852682000
         O            0.243213617317     1.495447477316    -0.000000260608    15.994914619570
         C            1.070982617317    -0.787235522684    -0.000002260608    12.000000000000
         C            2.489539617317    -0.235049522684     0.000001739392    12.000000000000
         C            0.033611117317     0.261692777316    -0.000001260608    12.000000000000
         H            0.876871617317    -1.418507522684     0.874288739392     1.007825032230
         H            0.876873617317    -1.418501522684    -0.874297260608     1.007825032230
         H            2.667254617317     0.382131477316    -0.882710260608     1.007825032230
         H            2.667254617317     0.382120477316     0.882721739392     1.007825032230
         H            3.209655617317    -1.056710522684    -0.000003260608     1.007825032230

  Basis Set: AUG-CC-PVTZ
    Blend: AUG-CC-PVTZ
  Basis Set: (AUG-CC-PVTZ AUX)
    Blend: AUG-CC-PVTZ-JKFIT
	 Reference Energy          =    -650.9666360292844729 [Eh]
	 Singles Energy            =      -0.0000000000000000 [Eh]
	 Same-Spin Energy          =      -0.2543377189811528 [Eh]
	 Opposite-Spin Energy      =      -0.8030524537103152 [Eh]
	 Correlation Energy        =      -1.0573901726914681 [Eh]
	 Total Energy              =    -652.0240262019759712 [Eh]

	 ================> DF-SCS-MP2 Energies <==================
	-----------------------------------------------------------
	 SCS Same-Spin Scale       =       0.3333333333333333 [-]
	 SCS Opposite-Spin Scale   =       1.2000000000000000 [-]
	 SCS Same-Spin Energy      =      -0.0847792396603843 [Eh]
	 SCS Opposite-Spin Energy  =      -0.9636629444523782 [Eh]
	 SCS Correlation Energy    =      -1.0484421841127625 [Eh]
	 SCS Total Energy          =    -652.0150782133972598 [Eh]
	-----------------------------------------------------------

  Dipole Moment: [D]
     X:     1.7130      Y:    -2.3241      Z:    -0.0000     Total:     2.8872

*** Psi4 exiting successfully. Buy a developer a beer!
