                               Psi4 1.3.2 release

  ==> Input File <==

--------------------------------------------------------------------------
#psi4
#
memory 32 gb

molecule  {
0 1
 Cl       -1.7654740    -0.3100940    -0.0000140
  O        0.0360344     1.5293614     0.0000114
  C        0.9469290    -0.7644920     0.0000410
  C        2.3654940    -0.2123180    -0.0000340
  C       -0.0820610     0.3337550     0.0000080
  H        0.7528550    -1.3956680     0.8744030
  H        0.7528050    -1.3957990    -0.8742120
  H        2.5431970     0.4048060    -0.8827890
  H        2.5432490     0.4048980     0.8826450
  H        3.0855950    -1.0339960    -0.0000140
units angstrom
no_reorient  #important for SAPT in psi4, default
symmetry c1  #important for SAPT in psi4, default
}

set PROPERTIES_ORIGIN ["COM"]
properties('MP2/aug-cc-pvtz', properties = ['dipole'])
--------------------------------------------------------------------------

    Molecular point group: c1
  Charge       = 0
  Multiplicity = 1
  Basis Set: AUG-CC-PVTZ
    Blend: AUG-CC-PVTZ
  Basis Set: (AUG-CC-PVTZ AUX)
    Blend: AUG-CC-PVTZ-JKFIT

    Orbital Energies [Eh]
    ---------------------

    Doubly Occupied:

       1A   -104.843702     2A    -20.593124     3A    -11.411680
       4A    -11.275347     5A    -11.240924     6A    -10.568526
       7A     -8.035145     8A     -8.033481     9A     -8.033345
      10A     -1.436990    11A     -1.134027    12A     -1.074331
      13A     -0.914851    14A     -0.765580    15A     -0.684497
      16A     -0.663459    17A     -0.653591    18A     -0.573074
      19A     -0.567915    20A     -0.543703    21A     -0.519639
      22A     -0.463547    23A     -0.462281    24A     -0.447899

  @DF-RHF Final Energy:  -650.97566623903492

   => Energetics <=

    Nuclear Repulsion Energy =            212.7757087177050721
    One-Electron Energy =               -1317.6214347410693790
    Two-Electron Energy =                 453.8700597843293281
    Total Energy =                       -650.9756662390349220
  Basis Set: (AUG-CC-PVTZ AUX)
    Blend: AUG-CC-PVTZ-RI
    Molecular point group: c1

    Geometry (in Angstrom), charge = 0, multiplicity = 1:

       Center              X                  Y                   Z               Mass
    ------------   -----------------  -----------------  -----------------  -----------------
         CL          -1.628060279541    -0.341205589254    -0.000012978688    34.968852682000
         O            0.173448120459     1.498249810746     0.000012421312    15.994914619570
         C            1.084342720459    -0.795603589254     0.000042021312    12.000000000000
         C            2.502907720459    -0.243429589254    -0.000032978688    12.000000000000
         C            0.055352720459     0.302643410746     0.000009021312    12.000000000000
         H            0.890268720459    -1.426779589254     0.874404021312     1.007825032230
         H            0.890218720459    -1.426910589254    -0.874210978688     1.007825032230
         H            2.680610720459     0.373694410746    -0.882787978688     1.007825032230
         H            2.680662720459     0.373786410746     0.882646021312     1.007825032230
         H            3.223008720459    -1.065107589254    -0.000012978688     1.007825032230

  Basis Set: AUG-CC-PVTZ
    Blend: AUG-CC-PVTZ
  Basis Set: (AUG-CC-PVTZ AUX)
    Blend: AUG-CC-PVTZ-JKFIT
	 Reference Energy          =    -650.9756662390349220 [Eh]
	 Singles Energy            =      -0.0000000000000000 [Eh]
	 Same-Spin Energy          =      -0.2527378004252205 [Eh]
	 Opposite-Spin Energy      =      -0.7996574718481992 [Eh]
	 Correlation Energy        =      -1.0523952722734198 [Eh]
	 Total Energy              =    -652.0280615113083513 [Eh]

	 ================> DF-SCS-MP2 Energies <==================
	-----------------------------------------------------------
	 SCS Same-Spin Scale       =       0.3333333333333333 [-]
	 SCS Opposite-Spin Scale   =       1.2000000000000000 [-]
	 SCS Same-Spin Energy      =      -0.0842459334750735 [Eh]
	 SCS Opposite-Spin Energy  =      -0.9595889662178391 [Eh]
	 SCS Correlation Energy    =      -1.0438348996929125 [Eh]
	 SCS Total Energy          =    -652.0195011387278328 [Eh]
	-----------------------------------------------------------

  Dipole Moment: [D]
     X:     2.1916      Y:    -2.0562      Z:     0.0000     Total:     3.0051

*** Psi4 exiting successfully. Buy a developer a beer!
