                               Psi4 1.3.2 release

  ==> Input File <==

--------------------------------------------------------------------------
#psi4
#
memory 32 gb

molecule  {
0 1
 Cl       -1.7654740    -0.3100940    -0.0000140
  O        0.1191480     1.5182110     0.0000140
  C        0.9469290    -0.7644920     0.0000410
  C        2.3654940    -0.2123180    -0.0000340
  C       -0.1754626     0.2980320     0.0000068
  H        0.7528550    -1.3956680     0.8744030
  H        0.7528050    -1.3957990    -0.8742120
  H        2.5431970     0.4048060    -0.8827890
  H        2.5432490     0.4048980     0.8826450
  H        3.0855950    -1.0339960    -0.0000140
units angstrom
no_reorient  #important for SAPT in psi4, default
symmetry c1  #important for SAPT in psi4, default
}

set PROPERTIES_ORIGIN ["COM"]
properties('MP2/aug-cc-pvtz', properties = ['dipole'])
--------------------------------------------------------------------------

    Molecular point group: c1
  Charge       = 0
  Multiplicity = 1
  Basis Set: AUG-CC-PVTZ
    Blend: AUG-CC-PVTZ
  Basis Set: (AUG-CC-PVTZ AUX)
    Blend: AUG-CC-PVTZ-JKFIT

    Orbital Energies [Eh]
    ---------------------

    Doubly Occupied:

       1A   -104.871940     2A    -20.577979     3A    -11.409040
       4A    -11.267463     5A    -11.233130     6A    -10.597380
       7A     -8.064223     8A     -8.062250     9A     -8.062028
      10A     -1.392479    11A     -1.169789    12A     -1.062965
      13A     -0.905305    14A     -0.762099    15A     -0.673284
      16A     -0.651387    17A     -0.643604    18A     -0.564066
      19A     -0.561864    20A     -0.532474    21A     -0.509416
      22A     -0.479688    23A     -0.469192    24A     -0.449612

  @DF-RHF Final Energy:  -650.96253962726621

   => Energetics <=

    Nuclear Repulsion Energy =            212.9191004634439253
    One-Electron Energy =               -1317.8179701324534108
    Two-Electron Energy =                 453.9363300417432470
    Total Energy =                       -650.9625396272660964
  Basis Set: (AUG-CC-PVTZ AUX)
    Blend: AUG-CC-PVTZ-RI
    Molecular point group: c1

    Geometry (in Angstrom), charge = 0, multiplicity = 1:

       Center              X                  Y                   Z               Mass
    ------------   -----------------  -----------------  -----------------  -----------------
         CL          -1.630327335827    -0.334607691300    -0.000013274187    34.968852682000
         O            0.254294664173     1.493697308700     0.000014725813    15.994914619570
         C            1.082075664173    -0.789005691300     0.000041725813    12.000000000000
         C            2.500640664173    -0.236831691300    -0.000033274187    12.000000000000
         C           -0.040315935827     0.273518308700     0.000007525813    12.000000000000
         H            0.888001664173    -1.420181691300     0.874403725813     1.007825032230
         H            0.887951664173    -1.420312691300    -0.874211274187     1.007825032230
         H            2.678343664173     0.380292308700    -0.882788274187     1.007825032230
         H            2.678395664173     0.380384308700     0.882645725813     1.007825032230
         H            3.220741664173    -1.058509691300    -0.000013274187     1.007825032230

  Basis Set: AUG-CC-PVTZ
    Blend: AUG-CC-PVTZ
  Basis Set: (AUG-CC-PVTZ AUX)
    Blend: AUG-CC-PVTZ-JKFIT
	 Reference Energy          =    -650.9625396272662101 [Eh]
	 Singles Energy            =      -0.0000000000000000 [Eh]
	 Same-Spin Energy          =      -0.2541651309422734 [Eh]
	 Opposite-Spin Energy      =      -0.8028377810573104 [Eh]
	 Correlation Energy        =      -1.0570029119995838 [Eh]
	 Total Energy              =    -652.0195425392657853 [Eh]

	 ================> DF-SCS-MP2 Energies <==================
	-----------------------------------------------------------
	 SCS Same-Spin Scale       =       0.3333333333333333 [-]
	 SCS Opposite-Spin Scale   =       1.2000000000000000 [-]
	 SCS Same-Spin Energy      =      -0.0847217103140911 [Eh]
	 SCS Opposite-Spin Energy  =      -0.9634053372687724 [Eh]
	 SCS Correlation Energy    =      -1.0481270475828635 [Eh]
	 SCS Total Energy          =    -652.0106666748490625 [Eh]
	-----------------------------------------------------------

  Dipole Moment: [D]
     X:     1.0157      Y:    -2.3831      Z:     0.0000     Total:     2.5905

*** Psi4 exiting successfully. Buy a developer a beer!
