                               Psi4 1.3.2 release

  ==> Input File <==

--------------------------------------------------------------------------
#psi4
#
memory 32 gb

molecule  {
0 1
 Cl       -1.7654740    -0.3100940    -0.0000140
  O        0.0776885     1.5245116     0.0000127
  C        0.9469290    -0.7644920     0.0000410
  C        2.3654940    -0.2123180    -0.0000340
  C       -0.0820610     0.3337550     0.0000080
  H        0.7528550    -1.3956680     0.8744030
  H        0.7528050    -1.3957990    -0.8742120
  H        2.5431970     0.4048060    -0.8827890
  H        2.5432490     0.4048980     0.8826450
  H        3.0855950    -1.0339960    -0.0000140
units angstrom
no_reorient  #important for SAPT in psi4, default
symmetry c1  #important for SAPT in psi4, default
}

set PROPERTIES_ORIGIN ["COM"]
properties('MP2/aug-cc-pvtz', properties = ['dipole'])
--------------------------------------------------------------------------

    Molecular point group: c1
  Charge       = 0
  Multiplicity = 1
  Basis Set: AUG-CC-PVTZ
    Blend: AUG-CC-PVTZ
  Basis Set: (AUG-CC-PVTZ AUX)
    Blend: AUG-CC-PVTZ-JKFIT

    Orbital Energies [Eh]
    ---------------------

    Doubly Occupied:

       1A   -104.846582     2A    -20.593100     3A    -11.411297
       4A    -11.273392     5A    -11.239601     6A    -10.571249
       7A     -8.037874     8A     -8.036205     9A     -8.036063
      10A     -1.436749    11A     -1.135459    12A     -1.073373
      13A     -0.913735    14A     -0.765044    15A     -0.684182
      16A     -0.662549    17A     -0.654249    18A     -0.572160
      19A     -0.566049    20A     -0.542257    21A     -0.518535
      22A     -0.464729    23A     -0.464417    24A     -0.449704

  @DF-RHF Final Energy:  -650.97633253538015

   => Energetics <=

    Nuclear Repulsion Energy =            212.7503194382068159
    One-Electron Energy =               -1317.5561936352728480
    Two-Electron Energy =                 453.8295416616857665
    Total Energy =                       -650.9763325353802657
  Basis Set: (AUG-CC-PVTZ AUX)
    Blend: AUG-CC-PVTZ-RI
    Molecular point group: c1

    Geometry (in Angstrom), charge = 0, multiplicity = 1:

       Center              X                  Y                   Z               Mass
    ------------   -----------------  -----------------  -----------------  -----------------
         CL          -1.635301940702    -0.340362440362    -0.000013204696    34.968852682000
         O            0.207860559298     1.494243159638     0.000013495304    15.994914619570
         C            1.077101059298    -0.794760440362     0.000041795304    12.000000000000
         C            2.495666059298    -0.242586440362    -0.000033204696    12.000000000000
         C            0.048111059298     0.303486559638     0.000008795304    12.000000000000
         H            0.883027059298    -1.425936440362     0.874403795304     1.007825032230
         H            0.882977059298    -1.426067440362    -0.874211204696     1.007825032230
         H            2.673369059298     0.374537559638    -0.882788204696     1.007825032230
         H            2.673421059298     0.374629559638     0.882645795304     1.007825032230
         H            3.215767059298    -1.064264440362    -0.000013204696     1.007825032230

  Basis Set: AUG-CC-PVTZ
    Blend: AUG-CC-PVTZ
  Basis Set: (AUG-CC-PVTZ AUX)
    Blend: AUG-CC-PVTZ-JKFIT
	 Reference Energy          =    -650.9763325353801520 [Eh]
	 Singles Energy            =      -0.0000000000000000 [Eh]
	 Same-Spin Energy          =      -0.2527681221892264 [Eh]
	 Opposite-Spin Energy      =      -0.7997310526170278 [Eh]
	 Correlation Energy        =      -1.0524991748062542 [Eh]
	 Total Energy              =    -652.0288317101864095 [Eh]

	 ================> DF-SCS-MP2 Energies <==================
	-----------------------------------------------------------
	 SCS Same-Spin Scale       =       0.3333333333333333 [-]
	 SCS Opposite-Spin Scale   =       1.2000000000000000 [-]
	 SCS Same-Spin Energy      =      -0.0842560407297421 [Eh]
	 SCS Opposite-Spin Energy  =      -0.9596772631404333 [Eh]
	 SCS Correlation Energy    =      -1.0439333038701755 [Eh]
	 SCS Total Energy          =    -652.0202658392503281 [Eh]
	-----------------------------------------------------------

  Dipole Moment: [D]
     X:     2.0704      Y:    -2.0504      Z:     0.0000     Total:     2.9139

*** Psi4 exiting successfully. Buy a developer a beer!
