                               Psi4 1.4a3.dev225

  ==> Input File <==

--------------------------------------------------------------------------
#psi4
#
memory 32 gb

molecule  {
0 1
 Cl       -1.7654670    -0.3100810     0.0000010
  O        0.1191580     1.5181910     0.0000000
  C        0.9469270    -0.7644920    -0.0000020
  C        2.3654840    -0.2123060     0.0000020
  C       -0.1007504     0.3265857    -0.0000010
  H        0.7528160    -1.3957640     0.8742890
  H        0.7528180    -1.3957580    -0.8742970
  H        2.5431990     0.4048750    -0.8827100
  H        2.5431990     0.4048640     0.8827220
  H        3.0856000    -1.0339670    -0.0000030
units angstrom
no_reorient  #important for SAPT in psi4, default
symmetry c1  #important for SAPT in psi4, default
}

set PROPERTIES_ORIGIN ["COM"]
properties('MP2/aug-cc-pvtz', properties = ['dipole'])
--------------------------------------------------------------------------

    Molecular point group: c1
  Charge       = 0
  Multiplicity = 1
  Basis Set: AUG-CC-PVTZ
    Blend: AUG-CC-PVTZ
  Basis Set: (AUG-CC-PVTZ AUX)
    Blend: AUG-CC-PVTZ-JKFIT

    Orbital Energies [Eh]
    ---------------------

    Doubly Occupied:

       1A   -104.854276     2A    -20.589812     3A    -11.410397
       4A    -11.270404     5A    -11.237100     6A    -10.578905
       7A     -8.045572     8A     -8.043841     9A     -8.043682
      10A     -1.427521    11A     -1.142741    12A     -1.070791
      13A     -0.911135    14A     -0.763270    15A     -0.681080
      16A     -0.659296    17A     -0.652985    18A     -0.568730
      19A     -0.563352    20A     -0.538918    21A     -0.515387
      22A     -0.469423    23A     -0.468440    24A     -0.451598

  @DF-RHF Final Energy:  -650.97499079962927

   => Energetics <=

    Nuclear Repulsion Energy =            212.7719895673048427
    One-Electron Energy =               -1317.5766485983112943
    Two-Electron Energy =                 453.8296682313771271
    Total Energy =                       -650.9749907996292677
  Basis Set: (AUG-CC-PVTZ AUX)
    Blend: AUG-CC-PVTZ-RI
    Molecular point group: c1

    Geometry (in Angstrom), charge = 0, multiplicity = 1:

       Center              X                  Y                   Z               Mass
    ------------   -----------------  -----------------  -----------------  -----------------
         CL          -1.640067177119    -0.338322097668     0.000000739392    34.968852682000
         O            0.244557822881     1.489949902332    -0.000000260608    15.994914619570
         C            1.072326822881    -0.792733097668    -0.000002260608    12.000000000000
         C            2.490883822881    -0.240547097668     0.000001739392    12.000000000000
         C            0.024649422881     0.298344602332    -0.000001260608    12.000000000000
         H            0.878215822881    -1.424005097668     0.874288739392     1.007825032230
         H            0.878217822881    -1.423999097668    -0.874297260608     1.007825032230
         H            2.668598822881     0.376633902332    -0.882710260608     1.007825032230
         H            2.668598822881     0.376622902332     0.882721739392     1.007825032230
         H            3.210999822881    -1.062208097668    -0.000003260608     1.007825032230

  Basis Set: AUG-CC-PVTZ
    Blend: AUG-CC-PVTZ
  Basis Set: (AUG-CC-PVTZ AUX)
    Blend: AUG-CC-PVTZ-JKFIT
	 Reference Energy          =    -650.9749907996292677 [Eh]
	 Singles Energy            =      -0.0000000000000000 [Eh]
	 Same-Spin Energy          =      -0.2530229339264874 [Eh]
	 Opposite-Spin Energy      =      -0.8003439470927498 [Eh]
	 Correlation Energy        =      -1.0533668810192371 [Eh]
	 Total Energy              =    -652.0283576806484689 [Eh]

	 ================> DF-SCS-MP2 Energies <==================
	-----------------------------------------------------------
	 SCS Same-Spin Scale       =       0.3333333333333333 [-]
	 SCS Opposite-Spin Scale   =       1.2000000000000000 [-]
	 SCS Same-Spin Energy      =      -0.0843409779754958 [Eh]
	 SCS Opposite-Spin Energy  =      -0.9604127365112998 [Eh]
	 SCS Correlation Energy    =      -1.0447537144867955 [Eh]
	 SCS Total Energy          =    -652.0197445141160415 [Eh]
	-----------------------------------------------------------

  Dipole Moment: [D]
     X:     1.7527      Y:    -2.1131      Z:    -0.0000     Total:     2.7454

*** Psi4 exiting successfully. Buy a developer a beer!
