                               Psi4 1.3.2 release

  ==> Input File <==

--------------------------------------------------------------------------
#psi4
#
memory 32 gb

molecule  {
0 1
 Cl       -1.7654740    -0.3100940    -0.0000140
  O        0.1191480     1.5182110     0.0000140
  C        0.9469290    -0.7644920     0.0000410
  C        2.3654940    -0.2123180    -0.0000340
  C       -0.1215634     0.2917173    -0.0877820
  H        0.7528550    -1.3956680     0.8744030
  H        0.7528050    -1.3957990    -0.8742120
  H        2.5431970     0.4048060    -0.8827890
  H        2.5432490     0.4048980     0.8826450
  H        3.0855950    -1.0339960    -0.0000140
units angstrom
no_reorient  #important for SAPT in psi4, default
symmetry c1  #important for SAPT in psi4, default
}

set PROPERTIES_ORIGIN ["COM"]
properties('MP2/aug-cc-pvtz', properties = ['dipole'])
--------------------------------------------------------------------------

    Molecular point group: c1
  Charge       = 0
  Multiplicity = 1
  Basis Set: AUG-CC-PVTZ
    Blend: AUG-CC-PVTZ
  Basis Set: (AUG-CC-PVTZ AUX)
    Blend: AUG-CC-PVTZ-JKFIT

    Orbital Energies [Eh]
    ---------------------

    Doubly Occupied:

       1A   -104.863357     2A    -20.583489     3A    -11.412704
       4A    -11.269791     5A    -11.236284     6A    -10.588038
       7A     -8.054769     8A     -8.052945     9A     -8.052761
      10A     -1.397521    11A     -1.153326    12A     -1.071636
      13A     -0.913238    14A     -0.761710    15A     -0.675430
      16A     -0.657421    17A     -0.643691    18A     -0.561716
      19A     -0.561122    20A     -0.535945    21A     -0.511607
      22A     -0.475238    23A     -0.467306    24A     -0.453473

  @DF-RHF Final Energy:  -650.96361252688018

   => Energetics <=

    Nuclear Repulsion Energy =            212.6190534392947029
    One-Electron Energy =               -1317.2562936764354617
    Two-Electron Energy =                 453.6736277102606323
    Total Energy =                       -650.9636125268800697
  Basis Set: (AUG-CC-PVTZ AUX)
    Blend: AUG-CC-PVTZ-RI
    Molecular point group: c1

    Geometry (in Angstrom), charge = 0, multiplicity = 1:

       Center              X                  Y                   Z               Mass
    ------------   -----------------  -----------------  -----------------  -----------------
         CL          -1.637357445237    -0.333784060673     0.011437078860    34.968852682000
         O            0.247264554763     1.494520939327     0.011465078860    15.994914619570
         C            1.075045554763    -0.788182060673     0.011492078860    12.000000000000
         C            2.493610554763    -0.236008060673     0.011417078860    12.000000000000
         C            0.006553154763     0.268027239327    -0.076330921140    12.000000000000
         H            0.880971554763    -1.419358060673     0.885854078860     1.007825032230
         H            0.880921554763    -1.419489060673    -0.862760921140     1.007825032230
         H            2.671313554763     0.381115939327    -0.871337921140     1.007825032230
         H            2.671365554763     0.381207939327     0.894096078860     1.007825032230
         H            3.213711554763    -1.057686060673     0.011437078860     1.007825032230

  Basis Set: AUG-CC-PVTZ
    Blend: AUG-CC-PVTZ
  Basis Set: (AUG-CC-PVTZ AUX)
    Blend: AUG-CC-PVTZ-JKFIT
	 Reference Energy          =    -650.9636125268801834 [Eh]
	 Singles Energy            =      -0.0000000000000000 [Eh]
	 Same-Spin Energy          =      -0.2542782873226428 [Eh]
	 Opposite-Spin Energy      =      -0.8032494806651692 [Eh]
	 Correlation Energy        =      -1.0575277679878119 [Eh]
	 Total Energy              =    -652.0211402948680188 [Eh]

	 ================> DF-SCS-MP2 Energies <==================
	-----------------------------------------------------------
	 SCS Same-Spin Scale       =       0.3333333333333333 [-]
	 SCS Opposite-Spin Scale   =       1.2000000000000000 [-]
	 SCS Same-Spin Energy      =      -0.0847594291075476 [Eh]
	 SCS Opposite-Spin Energy  =      -0.9638993767982030 [Eh]
	 SCS Correlation Energy    =      -1.0486588059057507 [Eh]
	 SCS Total Energy          =    -652.0122713327859856 [Eh]
	-----------------------------------------------------------

  Dipole Moment: [D]
     X:     1.4634      Y:    -2.3215      Z:    -0.0445     Total:     2.7446

*** Psi4 exiting successfully. Buy a developer a beer!
