                               Psi4 1.3.2 release

  ==> Input File <==

--------------------------------------------------------------------------
#psi4
#
memory 32 gb

molecule  {
0 1
 Cl       -1.7654740    -0.3100940    -0.0000140
  O       -0.0057636     1.5327545     0.0000100
  C        0.9469290    -0.7644920     0.0000410
  C        2.3654940    -0.2123180    -0.0000340
  C       -0.0820610     0.3337550     0.0000080
  H        0.7528550    -1.3956680     0.8744030
  H        0.7528050    -1.3957990    -0.8742120
  H        2.5431970     0.4048060    -0.8827890
  H        2.5432490     0.4048980     0.8826450
  H        3.0855950    -1.0339960    -0.0000140
units angstrom
no_reorient  #important for SAPT in psi4, default
symmetry c1  #important for SAPT in psi4, default
}

set PROPERTIES_ORIGIN ["COM"]
properties('MP2/aug-cc-pvtz', properties = ['dipole'])
--------------------------------------------------------------------------

    Molecular point group: c1
  Charge       = 0
  Multiplicity = 1
  Basis Set: AUG-CC-PVTZ
    Blend: AUG-CC-PVTZ
  Basis Set: (AUG-CC-PVTZ AUX)
    Blend: AUG-CC-PVTZ-JKFIT

    Orbital Energies [Eh]
    ---------------------

    Doubly Occupied:

       1A   -104.840755     2A    -20.593108     3A    -11.412091
       4A    -11.277287     5A    -11.242219     6A    -10.565744
       7A     -8.032357     8A     -8.030696     9A     -8.030566
      10A     -1.437326    11A     -1.132623    12A     -1.075152
      13A     -0.915962    14A     -0.766106    15A     -0.684900
      16A     -0.664391    17A     -0.652900    18A     -0.573980
      19A     -0.569756    20A     -0.545127    21A     -0.520735
      22A     -0.462638    23A     -0.460076    24A     -0.445474

  @DF-RHF Final Energy:  -650.97436959835579

   => Energetics <=

    Nuclear Repulsion Energy =            212.8260715003534074
    One-Electron Energy =               -1317.7369432099148980
    Two-Electron Energy =                 453.9365021112055842
    Total Energy =                       -650.9743695983559064
  Basis Set: (AUG-CC-PVTZ AUX)
    Blend: AUG-CC-PVTZ-RI
    Molecular point group: c1

    Geometry (in Angstrom), charge = 0, multiplicity = 1:

       Center              X                  Y                   Z               Mass
    ------------   -----------------  -----------------  -----------------  -----------------
         CL          -1.620793601034    -0.341795487499    -0.000012735294    34.968852682000
         O            0.138916798966     1.501053012501     0.000011264706    15.994914619570
         C            1.091609398966    -0.796193487499     0.000042264706    12.000000000000
         C            2.510174398966    -0.244019487499    -0.000032735294    12.000000000000
         C            0.062619398966     0.302053512501     0.000009264706    12.000000000000
         H            0.897535398966    -1.427369487499     0.874404264706     1.007825032230
         H            0.897485398966    -1.427500487499    -0.874210735294     1.007825032230
         H            2.687877398966     0.373104512501    -0.882787735294     1.007825032230
         H            2.687929398966     0.373196512501     0.882646264706     1.007825032230
         H            3.230275398966    -1.065697487499    -0.000012735294     1.007825032230

  Basis Set: AUG-CC-PVTZ
    Blend: AUG-CC-PVTZ
  Basis Set: (AUG-CC-PVTZ AUX)
    Blend: AUG-CC-PVTZ-JKFIT
	 Reference Energy          =    -650.9743695983557927 [Eh]
	 Singles Energy            =      -0.0000000000000000 [Eh]
	 Same-Spin Energy          =      -0.2527297596689889 [Eh]
	 Opposite-Spin Energy      =      -0.7996280449993578 [Eh]
	 Correlation Energy        =      -1.0523578046683466 [Eh]
	 Total Energy              =    -652.0267274030240969 [Eh]

	 ================> DF-SCS-MP2 Energies <==================
	-----------------------------------------------------------
	 SCS Same-Spin Scale       =       0.3333333333333333 [-]
	 SCS Opposite-Spin Scale   =       1.2000000000000000 [-]
	 SCS Same-Spin Energy      =      -0.0842432532229963 [Eh]
	 SCS Opposite-Spin Energy  =      -0.9595536539992293 [Eh]
	 SCS Correlation Energy    =      -1.0437969072222255 [Eh]
	 SCS Total Energy          =    -652.0181665055780513 [Eh]
	-----------------------------------------------------------

  Dipole Moment: [D]
     X:     2.3137      Y:    -2.0575      Z:     0.0001     Total:     3.0962

*** Psi4 exiting successfully. Buy a developer a beer!
