                               Psi4 1.3.2 release

  ==> Input File <==

--------------------------------------------------------------------------
#psi4
#
memory 32 gb

molecule  {
0 1
 Cl       -1.7654740    -0.3100940    -0.0000140
  O        0.1191480     1.5182110     0.0000140
  C        0.9469290    -0.7644920     0.0000410
  C        2.3453593    -0.1631472    -0.0000363
  C       -0.0820610     0.3337550     0.0000080
  H        0.7528550    -1.3956680     0.8744030
  H        0.7528050    -1.3957990    -0.8742120
  H        2.5431970     0.4048060    -0.8827890
  H        2.5432490     0.4048980     0.8826450
  H        3.0855950    -1.0339960    -0.0000140
units angstrom
no_reorient  #important for SAPT in psi4, default
symmetry c1  #important for SAPT in psi4, default
}

set PROPERTIES_ORIGIN ["COM"]
properties('MP2/aug-cc-pvtz', properties = ['dipole'])
--------------------------------------------------------------------------

    Molecular point group: c1
  Charge       = 0
  Multiplicity = 1
  Basis Set: AUG-CC-PVTZ
    Blend: AUG-CC-PVTZ
  Basis Set: (AUG-CC-PVTZ AUX)
    Blend: AUG-CC-PVTZ-JKFIT

    Orbital Energies [Eh]
    ---------------------

    Doubly Occupied:

       1A   -104.848642     2A    -20.592950     3A    -11.410205
       4A    -11.272112     5A    -11.238885     6A    -10.573205
       7A     -8.039831     8A     -8.038162     9A     -8.038016
      10A     -1.436718    11A     -1.136629    12A     -1.072934
      13A     -0.912307    14A     -0.764934    15A     -0.682775
      16A     -0.665191    17A     -0.655125    18A     -0.576482
      19A     -0.555843    20A     -0.536683    21A     -0.524767
      22A     -0.466202    23A     -0.464778    24A     -0.449624

  @DF-RHF Final Energy:  -650.97332864842463

   => Energetics <=

    Nuclear Repulsion Energy =            213.0314317079738942
    One-Electron Energy =               -1318.1035183571450489
    Two-Electron Energy =                 454.0987580007463862
    Total Energy =                       -650.9733286484247401
  Basis Set: (AUG-CC-PVTZ AUX)
    Blend: AUG-CC-PVTZ-RI
    Molecular point group: c1

    Geometry (in Angstrom), charge = 0, multiplicity = 1:

       Center              X                  Y                   Z               Mass
    ------------   -----------------  -----------------  -----------------  -----------------
         CL          -1.639883587555    -0.345680447523    -0.000013130713    34.968852682000
         O            0.244738412445     1.482624552477     0.000014869287    15.994914619570
         C            1.072519412445    -0.800078447523     0.000041869287    12.000000000000
         C            2.470949712445    -0.198733647523    -0.000035430713    12.000000000000
         C            0.043529412445     0.298168552477     0.000008869287    12.000000000000
         H            0.878445412445    -1.431254447523     0.874403869287     1.007825032230
         H            0.878395412445    -1.431385447523    -0.874211130713     1.007825032230
         H            2.668787412445     0.369219552477    -0.882788130713     1.007825032230
         H            2.668839412445     0.369311552477     0.882645869287     1.007825032230
         H            3.211185412445    -1.069582447523    -0.000013130713     1.007825032230

  Basis Set: AUG-CC-PVTZ
    Blend: AUG-CC-PVTZ
  Basis Set: (AUG-CC-PVTZ AUX)
    Blend: AUG-CC-PVTZ-JKFIT
	 Reference Energy          =    -650.9733286484246264 [Eh]
	 Singles Energy            =      -0.0000000000000000 [Eh]
	 Same-Spin Energy          =      -0.2529055594867920 [Eh]
	 Opposite-Spin Energy      =      -0.7999736175123986 [Eh]
	 Correlation Energy        =      -1.0528791769991905 [Eh]
	 Total Energy              =    -652.0262078254238531 [Eh]

	 ================> DF-SCS-MP2 Energies <==================
	-----------------------------------------------------------
	 SCS Same-Spin Scale       =       0.3333333333333333 [-]
	 SCS Opposite-Spin Scale   =       1.2000000000000000 [-]
	 SCS Same-Spin Energy      =      -0.0843018531622640 [Eh]
	 SCS Opposite-Spin Energy  =      -0.9599683410148783 [Eh]
	 SCS Correlation Energy    =      -1.0442701941771422 [Eh]
	 SCS Total Energy          =    -652.0175988426017284 [Eh]
	-----------------------------------------------------------

  Dipole Moment: [D]
     X:     1.9571      Y:    -2.0211      Z:     0.0000     Total:     2.8134

*** Psi4 exiting successfully. Buy a developer a beer!
