                               Psi4 1.3.2 release

  ==> Input File <==

--------------------------------------------------------------------------
#psi4
#
memory 32 gb

molecule  {
0 1
 Cl       -1.7654740    -0.3100940    -0.0000140
  O        0.1191480     1.5182110     0.0000140
  C        0.9469290    -0.7644920     0.0000410
  C        2.3654940    -0.2123180    -0.0000340
  C       -0.0134747     0.3867224     0.1315596
  H        0.7528550    -1.3956680     0.8744030
  H        0.7528050    -1.3957990    -0.8742120
  H        2.5431970     0.4048060    -0.8827890
  H        2.5432490     0.4048980     0.8826450
  H        3.0855950    -1.0339960    -0.0000140
units angstrom
no_reorient  #important for SAPT in psi4, default
symmetry c1  #important for SAPT in psi4, default
}

set PROPERTIES_ORIGIN ["COM"]
properties('MP2/aug-cc-pvtz', properties = ['dipole'])
--------------------------------------------------------------------------

    Molecular point group: c1
  Charge       = 0
  Multiplicity = 1
  Basis Set: AUG-CC-PVTZ
    Blend: AUG-CC-PVTZ
  Basis Set: (AUG-CC-PVTZ AUX)
    Blend: AUG-CC-PVTZ-JKFIT

    Orbital Energies [Eh]
    ---------------------

    Doubly Occupied:

       1A   -104.825038     2A    -20.611605     3A    -11.413593
       4A    -11.277841     5A    -11.242861     6A    -10.549506
       7A     -8.015985     8A     -8.014529     9A     -8.014432
      10A     -1.488096    11A     -1.115945    12A     -1.068776
      13A     -0.913667    14A     -0.775083    15A     -0.702269
      16A     -0.672629    17A     -0.662687    18A     -0.591618
      19A     -0.569955    20A     -0.549244    21A     -0.525570
      22A     -0.452639    23A     -0.448545    24A     -0.438473

  @DF-RHF Final Energy:  -650.96919275039511

   => Energetics <=

    Nuclear Repulsion Energy =            212.5602292041874080
    One-Electron Energy =               -1317.1776701830640377
    Two-Electron Energy =                 453.6482482284815205
    Total Energy =                       -650.9691927503951092
  Basis Set: (AUG-CC-PVTZ AUX)
    Blend: AUG-CC-PVTZ-RI
    Molecular point group: c1

    Geometry (in Angstrom), charge = 0, multiplicity = 1:

       Center              X                  Y                   Z               Mass
    ------------   -----------------  -----------------  -----------------  -----------------
         CL          -1.651455528083    -0.346175640649    -0.017171795596    34.968852682000
         O            0.233166471917     1.482129359351    -0.017143795596    15.994914619570
         C            1.060947471917    -0.800573640649    -0.017116795596    12.000000000000
         C            2.479512471917    -0.248399640649    -0.017191795596    12.000000000000
         C            0.100543771917     0.350640759351     0.114401804404    12.000000000000
         H            0.866873471917    -1.431749640649     0.857245204404     1.007825032230
         H            0.866823471917    -1.431880640649    -0.891369795596     1.007825032230
         H            2.657215471917     0.368724359351    -0.899946795596     1.007825032230
         H            2.657267471917     0.368816359351     0.865487204404     1.007825032230
         H            3.199613471917    -1.070077640649    -0.017171795596     1.007825032230

  Basis Set: AUG-CC-PVTZ
    Blend: AUG-CC-PVTZ
  Basis Set: (AUG-CC-PVTZ AUX)
    Blend: AUG-CC-PVTZ-JKFIT
	 Reference Energy          =    -650.9691927503951092 [Eh]
	 Singles Energy            =      -0.0000000000000000 [Eh]
	 Same-Spin Energy          =      -0.2518746123570182 [Eh]
	 Opposite-Spin Energy      =      -0.7979347951349000 [Eh]
	 Correlation Energy        =      -1.0498094074919182 [Eh]
	 Total Energy              =    -652.0190021578870301 [Eh]

	 ================> DF-SCS-MP2 Energies <==================
	-----------------------------------------------------------
	 SCS Same-Spin Scale       =       0.3333333333333333 [-]
	 SCS Opposite-Spin Scale   =       1.2000000000000000 [-]
	 SCS Same-Spin Energy      =      -0.0839582041190061 [Eh]
	 SCS Opposite-Spin Energy  =      -0.9575217541618799 [Eh]
	 SCS Correlation Energy    =      -1.0414799582808860 [Eh]
	 SCS Total Energy          =    -652.0106727086759975 [Eh]
	-----------------------------------------------------------

  Dipole Moment: [D]
     X:     2.8279      Y:    -1.5740      Z:     0.1107     Total:     3.2384

*** Psi4 exiting successfully. Buy a developer a beer!
