                               Psi4 1.3.2 release

  ==> Input File <==

--------------------------------------------------------------------------
#psi4
#
memory 32 gb

molecule  {
0 1
 Cl       -1.7654740    -0.3100940    -0.0000140
  O        0.1191480     1.5182110     0.0000140
  C        0.9469290    -0.7644920     0.0000410
  C        2.3654940    -0.2123180    -0.0000340
  C       -0.0713940     0.3434358     0.0219722
  H        0.7528550    -1.3956680     0.8744030
  H        0.7528050    -1.3957990    -0.8742120
  H        2.5431970     0.4048060    -0.8827890
  H        2.5432490     0.4048980     0.8826450
  H        3.0855950    -1.0339960    -0.0000140
units angstrom
no_reorient  #important for SAPT in psi4, default
symmetry c1  #important for SAPT in psi4, default
}

set PROPERTIES_ORIGIN ["COM"]
properties('MP2/aug-cc-pvtz', properties = ['dipole'])
--------------------------------------------------------------------------

    Molecular point group: c1
  Charge       = 0
  Multiplicity = 1
  Basis Set: AUG-CC-PVTZ
    Blend: AUG-CC-PVTZ
  Basis Set: (AUG-CC-PVTZ AUX)
    Blend: AUG-CC-PVTZ-JKFIT

    Orbital Energies [Eh]
    ---------------------

    Doubly Occupied:

       1A   -104.845582     2A    -20.595785     3A    -11.410898
       4A    -11.272152     5A    -11.238877     6A    -10.570074
       7A     -8.036677     8A     -8.035038     9A     -8.034901
      10A     -1.446008    11A     -1.132804    12A     -1.072290
      13A     -0.912624    14A     -0.765751    15A     -0.686704
      16A     -0.663141    17A     -0.656793    18A     -0.574460
      19A     -0.565015    20A     -0.542080    21A     -0.518991
      22A     -0.464915    23A     -0.463528    24A     -0.449490

  @DF-RHF Final Energy:  -650.97722277416722

   => Energetics <=

    Nuclear Repulsion Energy =            212.7526621242952274
    One-Electron Energy =               -1317.5506149795953661
    Two-Electron Energy =                 453.8207300811328651
    Total Energy =                       -650.9772227741672168
  Basis Set: (AUG-CC-PVTZ AUX)
    Blend: AUG-CC-PVTZ-RI
    Molecular point group: c1

    Geometry (in Angstrom), charge = 0, multiplicity = 1:

       Center              X                  Y                   Z               Mass
    ------------   -----------------  -----------------  -----------------  -----------------
         CL          -1.643901074289    -0.340529739895    -0.002878236287    34.968852682000
         O            0.240720925711     1.487775260105    -0.002850236287    15.994914619570
         C            1.068501925711    -0.794927739895    -0.002823236287    12.000000000000
         C            2.487066925711    -0.242753739895    -0.002898236287    12.000000000000
         C            0.050178925711     0.313000060105     0.019107963713    12.000000000000
         H            0.874427925711    -1.426103739895     0.871538763713     1.007825032230
         H            0.874377925711    -1.426234739895    -0.877076236287     1.007825032230
         H            2.664769925711     0.374370260105    -0.885653236287     1.007825032230
         H            2.664821925711     0.374462260105     0.879780763713     1.007825032230
         H            3.207167925711    -1.064431739895    -0.002878236287     1.007825032230

  Basis Set: AUG-CC-PVTZ
    Blend: AUG-CC-PVTZ
  Basis Set: (AUG-CC-PVTZ AUX)
    Blend: AUG-CC-PVTZ-JKFIT
	 Reference Energy          =    -650.9772227741672168 [Eh]
	 Singles Energy            =      -0.0000000000000000 [Eh]
	 Same-Spin Energy          =      -0.2525628478358468 [Eh]
	 Opposite-Spin Energy      =      -0.7992738541845372 [Eh]
	 Correlation Energy        =      -1.0518367020203840 [Eh]
	 Total Energy              =    -652.0290594761876264 [Eh]

	 ================> DF-SCS-MP2 Energies <==================
	-----------------------------------------------------------
	 SCS Same-Spin Scale       =       0.3333333333333333 [-]
	 SCS Opposite-Spin Scale   =       1.2000000000000000 [-]
	 SCS Same-Spin Energy      =      -0.0841876159452823 [Eh]
	 SCS Opposite-Spin Energy  =      -0.9591286250214446 [Eh]
	 SCS Correlation Energy    =      -1.0433162409667269 [Eh]
	 SCS Total Energy          =    -652.0205390151339770 [Eh]
	-----------------------------------------------------------

  Dipole Moment: [D]
     X:     2.0860      Y:    -1.9644      Z:     0.0153     Total:     2.8654

*** Psi4 exiting successfully. Buy a developer a beer!
