                               Psi4 1.3.2 release

  ==> Input File <==

--------------------------------------------------------------------------
#psi4
#
memory 32 gb

molecule  {
0 1
 Cl       -1.7654740    -0.3100940    -0.0000140
  O        0.1191480     1.5182110     0.0000140
  C        0.9469290    -0.7644920     0.0000410
  C        2.3654940    -0.2123180    -0.0000340
  C       -0.1155561     0.1365797     0.0000070
  H        0.7528550    -1.3956680     0.8744030
  H        0.7528050    -1.3957990    -0.8742120
  H        2.5431970     0.4048060    -0.8827890
  H        2.5432490     0.4048980     0.8826450
  H        3.0855950    -1.0339960    -0.0000140
units angstrom
no_reorient  #important for SAPT in psi4, default
symmetry c1  #important for SAPT in psi4, default
}

set PROPERTIES_ORIGIN ["COM"]
properties('MP2/aug-cc-pvtz', properties = ['dipole'])
--------------------------------------------------------------------------

    Molecular point group: c1
  Charge       = 0
  Multiplicity = 1
  Basis Set: AUG-CC-PVTZ
    Blend: AUG-CC-PVTZ
  Basis Set: (AUG-CC-PVTZ AUX)
    Blend: AUG-CC-PVTZ-JKFIT

    Orbital Energies [Eh]
    ---------------------

    Doubly Occupied:

       1A   -104.881212     2A    -20.560807     3A    -11.420178
       4A    -11.270261     5A    -11.240206     6A    -10.605555
       7A     -8.072386     8A     -8.070421     9A     -8.070172
      10A     -1.314023    11A     -1.169140    12A     -1.095689
      13A     -0.937226    14A     -0.759599    15A     -0.675752
      16A     -0.668767    17A     -0.618615    18A     -0.557372
      19A     -0.554510    20A     -0.526352    21A     -0.510234
      22A     -0.490341    23A     -0.444961    24A     -0.435562

  @DF-RHF Final Energy:  -650.90567202303930

   => Energetics <=

    Nuclear Repulsion Energy =            212.5813604650559228
    One-Electron Energy =               -1317.0753841694463517
    Two-Electron Energy =                 453.5883516813511278
    Total Energy =                       -650.9056720230393012
  Basis Set: (AUG-CC-PVTZ AUX)
    Blend: AUG-CC-PVTZ-RI
    Molecular point group: c1

    Geometry (in Angstrom), charge = 0, multiplicity = 1:

       Center              X                  Y                   Z               Mass
    ------------   -----------------  -----------------  -----------------  -----------------
         CL          -1.638140981472    -0.313549357718    -0.000013300273    34.968852682000
         O            0.246481018528     1.514755642282     0.000014699727    15.994914619570
         C            1.074262018528    -0.767947357718     0.000041699727    12.000000000000
         C            2.492827018528    -0.215773357718    -0.000033300273    12.000000000000
         C            0.011776918528     0.133124342282     0.000007699727    12.000000000000
         H            0.880188018528    -1.399123357718     0.874403699727     1.007825032230
         H            0.880138018528    -1.399254357718    -0.874211300273     1.007825032230
         H            2.670530018528     0.401350642282    -0.882788300273     1.007825032230
         H            2.670582018528     0.401442642282     0.882645699727     1.007825032230
         H            3.212928018528    -1.037451357718    -0.000013300273     1.007825032230

  Basis Set: AUG-CC-PVTZ
    Blend: AUG-CC-PVTZ
  Basis Set: (AUG-CC-PVTZ AUX)
    Blend: AUG-CC-PVTZ-JKFIT
	 Reference Energy          =    -650.9056720230393012 [Eh]
	 Singles Energy            =      -0.0000000000000000 [Eh]
	 Same-Spin Energy          =      -0.2595704980232755 [Eh]
	 Opposite-Spin Energy      =      -0.8136013901379117 [Eh]
	 Correlation Energy        =      -1.0731718881611871 [Eh]
	 Total Energy              =    -651.9788439112004426 [Eh]

	 ================> DF-SCS-MP2 Energies <==================
	-----------------------------------------------------------
	 SCS Same-Spin Scale       =       0.3333333333333333 [-]
	 SCS Opposite-Spin Scale   =       1.2000000000000000 [-]
	 SCS Same-Spin Energy      =      -0.0865234993410918 [Eh]
	 SCS Opposite-Spin Energy  =      -0.9763216681654939 [Eh]
	 SCS Correlation Energy    =      -1.0628451675065858 [Eh]
	 SCS Total Energy          =    -651.9685171905458674 [Eh]
	-----------------------------------------------------------

  Dipole Moment: [D]
     X:     1.1881      Y:    -2.9692      Z:     0.0000     Total:     3.1981

*** Psi4 exiting successfully. Buy a developer a beer!
