                               Psi4 1.3.2 release

  ==> Input File <==

--------------------------------------------------------------------------
#psi4
#
memory 32 gb

molecule  {
0 1
 Cl       -1.7654740    -0.3100940    -0.0000140
  O        0.1191480     1.5182110     0.0000140
  C        0.9469290    -0.7644920     0.0000410
  C        2.3839004    -0.2621616    -0.0000316
  C       -0.0820610     0.3337550     0.0000080
  H        0.7528550    -1.3956680     0.8744030
  H        0.7528050    -1.3957990    -0.8742120
  H        2.5431970     0.4048060    -0.8827890
  H        2.5432490     0.4048980     0.8826450
  H        3.0855950    -1.0339960    -0.0000140
units angstrom
no_reorient  #important for SAPT in psi4, default
symmetry c1  #important for SAPT in psi4, default
}

set PROPERTIES_ORIGIN ["COM"]
properties('MP2/aug-cc-pvtz', properties = ['dipole'])
--------------------------------------------------------------------------

    Molecular point group: c1
  Charge       = 0
  Multiplicity = 1
  Basis Set: AUG-CC-PVTZ
    Blend: AUG-CC-PVTZ
  Basis Set: (AUG-CC-PVTZ AUX)
    Blend: AUG-CC-PVTZ-JKFIT

    Orbital Energies [Eh]
    ---------------------

    Doubly Occupied:

       1A   -104.850296     2A    -20.593306     3A    -11.411888
       4A    -11.271195     5A    -11.238538     6A    -10.574764
       7A     -8.041396     8A     -8.039711     9A     -8.039567
      10A     -1.436708    11A     -1.137359    12A     -1.072024
      13A     -0.913906    14A     -0.764250    15A     -0.685511
      16A     -0.658940    17A     -0.654915    18A     -0.580469
      19A     -0.567088    20A     -0.536357    21A     -0.508399
      22A     -0.467633    23A     -0.466836    24A     -0.451967

  @DF-RHF Final Energy:  -650.97317017806995

   => Energetics <=

    Nuclear Repulsion Energy =            212.4855205758203454
    One-Electron Energy =               -1316.9913361484807410
    Two-Electron Energy =                 453.5326453945904177
    Total Energy =                       -650.9731701780699495
  Basis Set: (AUG-CC-PVTZ AUX)
    Blend: AUG-CC-PVTZ-RI
    Molecular point group: c1

    Geometry (in Angstrom), charge = 0, multiplicity = 1:

       Center              X                  Y                   Z               Mass
    ------------   -----------------  -----------------  -----------------  -----------------
         CL          -1.644910529508    -0.332765931813    -0.000013743737    34.968852682000
         O            0.239711470492     1.495539068187     0.000014256263    15.994914619570
         C            1.067492470492    -0.787163931813     0.000041256263    12.000000000000
         C            2.504463870492    -0.284833531813    -0.000031343737    12.000000000000
         C            0.038502470492     0.311083068187     0.000008256263    12.000000000000
         H            0.873418470492    -1.418339931813     0.874403256263     1.007825032230
         H            0.873368470492    -1.418470931813    -0.874211743737     1.007825032230
         H            2.663760470492     0.382134068187    -0.882788743737     1.007825032230
         H            2.663812470492     0.382226068187     0.882645256263     1.007825032230
         H            3.206158470492    -1.056667931813    -0.000013743737     1.007825032230

  Basis Set: AUG-CC-PVTZ
    Blend: AUG-CC-PVTZ
  Basis Set: (AUG-CC-PVTZ AUX)
    Blend: AUG-CC-PVTZ-JKFIT
	 Reference Energy          =    -650.9731701780699495 [Eh]
	 Singles Energy            =      -0.0000000000000000 [Eh]
	 Same-Spin Energy          =      -0.2528320964725468 [Eh]
	 Opposite-Spin Energy      =      -0.8000158060098002 [Eh]
	 Correlation Energy        =      -1.0528479024823469 [Eh]
	 Total Energy              =    -652.0260180805522623 [Eh]

	 ================> DF-SCS-MP2 Energies <==================
	-----------------------------------------------------------
	 SCS Same-Spin Scale       =       0.3333333333333333 [-]
	 SCS Opposite-Spin Scale   =       1.2000000000000000 [-]
	 SCS Same-Spin Energy      =      -0.0842773654908489 [Eh]
	 SCS Opposite-Spin Energy  =      -0.9600189672117602 [Eh]
	 SCS Correlation Energy    =      -1.0442963327026091 [Eh]
	 SCS Total Energy          =    -652.0174665107725787 [Eh]
	-----------------------------------------------------------

  Dipole Moment: [D]
     X:     1.9295      Y:    -2.0555      Z:     0.0000     Total:     2.8192

*** Psi4 exiting successfully. Buy a developer a beer!
