                               Psi4 1.3.2 release

  ==> Input File <==

--------------------------------------------------------------------------
#psi4
#
memory 32 gb

molecule  {
0 1
 Cl       -1.7654740    -0.3100940    -0.0000140
  O        0.1191480     1.5182110     0.0000140
  C        0.9469290    -0.7644920     0.0000410
  C        2.3000051    -0.0670624    -0.0000405
  C       -0.0820610     0.3337550     0.0000080
  H        0.7528550    -1.3956680     0.8744030
  H        0.7528050    -1.3957990    -0.8742120
  H        2.5431970     0.4048060    -0.8827890
  H        2.5432490     0.4048980     0.8826450
  H        3.0855950    -1.0339960    -0.0000140
units angstrom
no_reorient  #important for SAPT in psi4, default
symmetry c1  #important for SAPT in psi4, default
}

set PROPERTIES_ORIGIN ["COM"]
properties('MP2/aug-cc-pvtz', properties = ['dipole'])
--------------------------------------------------------------------------

    Molecular point group: c1
  Charge       = 0
  Multiplicity = 1
  Basis Set: AUG-CC-PVTZ
    Blend: AUG-CC-PVTZ
  Basis Set: (AUG-CC-PVTZ AUX)
    Blend: AUG-CC-PVTZ-JKFIT

    Orbital Energies [Eh]
    ---------------------

    Doubly Occupied:

       1A   -104.847580     2A    -20.593386     3A    -11.409388
       4A    -11.274722     5A    -11.243022     6A    -10.572223
       7A     -8.038844     8A     -8.037189     9A     -8.037041
      10A     -1.437685    11A     -1.136605    12A     -1.075280
      13A     -0.913720    14A     -0.766129    15A     -0.681809
      16A     -0.674504    17A     -0.656113    18A     -0.588523
      19A     -0.563050    20A     -0.534790    21A     -0.506096
      22A     -0.465962    23A     -0.461750    24A     -0.445619

  @DF-RHF Final Energy:  -650.95250514524741

   => Energetics <=

    Nuclear Repulsion Energy =            213.6366388677647592
    One-Electron Energy =               -1319.2562293551452512
    Two-Electron Energy =                 454.6670853421331913
    Total Energy =                       -650.9525051452473008
  Basis Set: (AUG-CC-PVTZ AUX)
    Blend: AUG-CC-PVTZ-RI
    Molecular point group: c1

    Geometry (in Angstrom), charge = 0, multiplicity = 1:

       Center              X                  Y                   Z               Mass
    ------------   -----------------  -----------------  -----------------  -----------------
         CL          -1.633968008322    -0.358212853506    -0.000012582904    34.968852682000
         O            0.250653991678     1.470092146494     0.000015417096    15.994914619570
         C            1.078434991678    -0.812610853506     0.000042417096    12.000000000000
         C            2.431511091678    -0.115181253506    -0.000039082904    12.000000000000
         C            0.049444991678     0.285636146494     0.000009417096    12.000000000000
         H            0.884360991678    -1.443786853506     0.874404417096     1.007825032230
         H            0.884310991678    -1.443917853506    -0.874210582904     1.007825032230
         H            2.674702991678     0.356687146494    -0.882787582904     1.007825032230
         H            2.674754991678     0.356779146494     0.882646417096     1.007825032230
         H            3.217100991678    -1.082114853506    -0.000012582904     1.007825032230

  Basis Set: AUG-CC-PVTZ
    Blend: AUG-CC-PVTZ
  Basis Set: (AUG-CC-PVTZ AUX)
    Blend: AUG-CC-PVTZ-JKFIT
	 Reference Energy          =    -650.9525051452474145 [Eh]
	 Singles Energy            =      -0.0000000000000000 [Eh]
	 Same-Spin Energy          =      -0.2533498767991861 [Eh]
	 Opposite-Spin Energy      =      -0.8010188104575611 [Eh]
	 Correlation Energy        =      -1.0543686872567473 [Eh]
	 Total Energy              =    -652.0068738325041977 [Eh]

	 ================> DF-SCS-MP2 Energies <==================
	-----------------------------------------------------------
	 SCS Same-Spin Scale       =       0.3333333333333333 [-]
	 SCS Opposite-Spin Scale   =       1.2000000000000000 [-]
	 SCS Same-Spin Energy      =      -0.0844499589330620 [Eh]
	 SCS Opposite-Spin Energy  =      -0.9612225725490733 [Eh]
	 SCS Correlation Energy    =      -1.0456725314821353 [Eh]
	 SCS Total Energy          =    -651.9981776767295969 [Eh]
	-----------------------------------------------------------

  Dipole Moment: [D]
     X:     1.9323      Y:    -1.9706      Z:     0.0000     Total:     2.7599

*** Psi4 exiting successfully. Buy a developer a beer!
