                               Psi4 1.3.2 release

  ==> Input File <==

--------------------------------------------------------------------------
#psi4
#
memory 32 gb

molecule  {
0 1
 Cl       -1.7654740    -0.3100940    -0.0000140
  O        0.1603623     1.5104674     0.0000153
  C        0.9469290    -0.7644920     0.0000410
  C        2.3654940    -0.2123180    -0.0000340
  C       -0.0820610     0.3337550     0.0000080
  H        0.7528550    -1.3956680     0.8744030
  H        0.7528050    -1.3957990    -0.8742120
  H        2.5431970     0.4048060    -0.8827890
  H        2.5432490     0.4048980     0.8826450
  H        3.0855950    -1.0339960    -0.0000140
units angstrom
no_reorient  #important for SAPT in psi4, default
symmetry c1  #important for SAPT in psi4, default
}

set PROPERTIES_ORIGIN ["COM"]
properties('MP2/aug-cc-pvtz', properties = ['dipole'])
--------------------------------------------------------------------------

    Molecular point group: c1
  Charge       = 0
  Multiplicity = 1
  Basis Set: AUG-CC-PVTZ
    Blend: AUG-CC-PVTZ
  Basis Set: (AUG-CC-PVTZ AUX)
    Blend: AUG-CC-PVTZ-JKFIT

    Orbital Energies [Eh]
    ---------------------

    Doubly Occupied:

       1A   -104.852144     2A    -20.592927     3A    -11.410616
       4A    -11.269446     5A    -11.236870     6A    -10.576516
       7A     -8.043149     8A     -8.041465     9A     -8.041316
      10A     -1.436548    11A     -1.138364    12A     -1.071089
      13A     -0.911500    14A     -0.763929    15A     -0.683844
      16A     -0.660818    17A     -0.655462    18A     -0.570288
      19A     -0.562256    20A     -0.539298    21A     -0.516313
      22A     -0.468482    23A     -0.467907    24A     -0.451442

  @DF-RHF Final Energy:  -650.97578900548967

   => Energetics <=

    Nuclear Repulsion Energy =            212.7738761399405405
    One-Electron Energy =               -1317.5753541903463884
    Two-Electron Energy =                 453.8256890449162029
    Total Energy =                       -650.9757890054896734
  Basis Set: (AUG-CC-PVTZ AUX)
    Blend: AUG-CC-PVTZ-RI
    Molecular point group: c1

    Geometry (in Angstrom), charge = 0, multiplicity = 1:

       Center              X                  Y                   Z               Mass
    ------------   -----------------  -----------------  -----------------  -----------------
         CL          -1.649674971124    -0.337920823866    -0.000013656712    34.968852682000
         O            0.276161328876     1.482640576134     0.000015643288    15.994914619570
         C            1.062728028876    -0.792318823866     0.000041343288    12.000000000000
         C            2.481293028876    -0.240144823866    -0.000033656712    12.000000000000
         C            0.033738028876     0.305928176134     0.000008343288    12.000000000000
         H            0.868654028876    -1.423494823866     0.874403343288     1.007825032230
         H            0.868604028876    -1.423625823866    -0.874211656712     1.007825032230
         H            2.658996028876     0.376979176134    -0.882788656712     1.007825032230
         H            2.659048028876     0.377071176134     0.882645343288     1.007825032230
         H            3.201394028876    -1.061822823866    -0.000013656712     1.007825032230

  Basis Set: AUG-CC-PVTZ
    Blend: AUG-CC-PVTZ
  Basis Set: (AUG-CC-PVTZ AUX)
    Blend: AUG-CC-PVTZ-JKFIT
	 Reference Energy          =    -650.9757890054896734 [Eh]
	 Singles Energy            =      -0.0000000000000000 [Eh]
	 Same-Spin Energy          =      -0.2528974525458239 [Eh]
	 Opposite-Spin Energy      =      -0.8000177951508549 [Eh]
	 Correlation Energy        =      -1.0529152476966788 [Eh]
	 Total Energy              =    -652.0287042531863335 [Eh]

	 ================> DF-SCS-MP2 Energies <==================
	-----------------------------------------------------------
	 SCS Same-Spin Scale       =       0.3333333333333333 [-]
	 SCS Opposite-Spin Scale   =       1.2000000000000000 [-]
	 SCS Same-Spin Energy      =      -0.0842991508486080 [Eh]
	 SCS Opposite-Spin Energy  =      -0.9600213541810259 [Eh]
	 SCS Correlation Energy    =      -1.0443205050296338 [Eh]
	 SCS Total Energy          =    -652.0201095105193190 [Eh]
	-----------------------------------------------------------

  Dipole Moment: [D]
     X:     1.8315      Y:    -2.0259      Z:     0.0000     Total:     2.7310

*** Psi4 exiting successfully. Buy a developer a beer!
