                               Psi4 1.3.2 release

  ==> Input File <==

--------------------------------------------------------------------------
#psi4
#
memory 32 gb

molecule  {
0 1
 Cl       -1.7654740    -0.3100940    -0.0000140
  O        0.1191480     1.5182110     0.0000140
  C        0.9469290    -0.7644920     0.0000410
  C        2.3654940    -0.2123180    -0.0000340
  C       -0.0485659     0.5309303     0.0000090
  H        0.7528550    -1.3956680     0.8744030
  H        0.7528050    -1.3957990    -0.8742120
  H        2.5431970     0.4048060    -0.8827890
  H        2.5432490     0.4048980     0.8826450
  H        3.0855950    -1.0339960    -0.0000140
units angstrom
no_reorient  #important for SAPT in psi4, default
symmetry c1  #important for SAPT in psi4, default
}

set PROPERTIES_ORIGIN ["COM"]
properties('MP2/aug-cc-pvtz', properties = ['dipole'])
--------------------------------------------------------------------------

    Molecular point group: c1
  Charge       = 0
  Multiplicity = 1
  Basis Set: AUG-CC-PVTZ
    Blend: AUG-CC-PVTZ
  Basis Set: (AUG-CC-PVTZ AUX)
    Blend: AUG-CC-PVTZ-JKFIT

    Orbital Energies [Eh]
    ---------------------

    Doubly Occupied:

       1A   -104.801945     2A    -20.628447     3A    -11.391652
       4A    -11.278122     5A    -11.240952     6A    -10.527543
       7A     -7.993944     8A     -7.992608     9A     -7.992537
      10A     -1.615826    11A     -1.092112    12A     -1.054792
      13A     -0.890703    14A     -0.798230    15A     -0.748541
      16A     -0.716190    17A     -0.681276    18A     -0.628778
      19A     -0.575296    20A     -0.548504    21A     -0.524897
      22A     -0.439951    23A     -0.437351    24A     -0.405584

  @DF-RHF Final Energy:  -650.90338527176471

   => Energetics <=

    Nuclear Repulsion Energy =            214.0130759292156029
    One-Electron Energy =               -1319.8213569409169850
    Two-Electron Energy =                 454.9048957399365918
    Total Energy =                       -650.9033852717648188
  Basis Set: (AUG-CC-PVTZ AUX)
    Blend: AUG-CC-PVTZ-RI
    Molecular point group: c1

    Geometry (in Angstrom), charge = 0, multiplicity = 1:

       Center              X                  Y                   Z               Mass
    ------------   -----------------  -----------------  -----------------  -----------------
         CL          -1.646878558938    -0.364984775381    -0.000013561134    34.968852682000
         O            0.237743441062     1.463320224619     0.000014438866    15.994914619570
         C            1.065524441062    -0.819382775381     0.000041438866    12.000000000000
         C            2.484089441062    -0.267208775381    -0.000033561134    12.000000000000
         C            0.070029541062     0.476039524619     0.000009438866    12.000000000000
         H            0.871450441062    -1.450558775381     0.874403438866     1.007825032230
         H            0.871400441062    -1.450689775381    -0.874211561134     1.007825032230
         H            2.661792441062     0.349915224619    -0.882788561134     1.007825032230
         H            2.661844441062     0.350007224619     0.882645438866     1.007825032230
         H            3.204190441062    -1.088886775381    -0.000013561134     1.007825032230

  Basis Set: AUG-CC-PVTZ
    Blend: AUG-CC-PVTZ
  Basis Set: (AUG-CC-PVTZ AUX)
    Blend: AUG-CC-PVTZ-JKFIT
	 Reference Energy          =    -650.9033852717647051 [Eh]
	 Singles Energy            =      -0.0000000000000000 [Eh]
	 Same-Spin Energy          =      -0.2472070925998641 [Eh]
	 Opposite-Spin Energy      =      -0.7880086235329087 [Eh]
	 Correlation Energy        =      -1.0352157161327726 [Eh]
	 Total Energy              =    -651.9386009878975301 [Eh]

	 ================> DF-SCS-MP2 Energies <==================
	-----------------------------------------------------------
	 SCS Same-Spin Scale       =       0.3333333333333333 [-]
	 SCS Opposite-Spin Scale   =       1.2000000000000000 [-]
	 SCS Same-Spin Energy      =      -0.0824023641999547 [Eh]
	 SCS Opposite-Spin Energy  =      -0.9456103482394904 [Eh]
	 SCS Correlation Energy    =      -1.0280127124394451 [Eh]
	 SCS Total Energy          =    -651.9313979842041817 [Eh]
	-----------------------------------------------------------

  Dipole Moment: [D]
     X:     3.1762      Y:    -0.6560      Z:     0.0001     Total:     3.2432

*** Psi4 exiting successfully. Buy a developer a beer!
