                               Psi4 1.4a3.dev225

  ==> Input File <==

--------------------------------------------------------------------------
#psi4
#
memory 32 gb

molecule  {
0 1
 Cl       -1.7654670    -0.3100810     0.0000010
  O        0.1191580     1.5181910     0.0000000
  C        0.9469270    -0.7644920    -0.0000020
  C        2.3654840    -0.2123060     0.0000020
  C       -0.0478833     0.2972434    -0.0000010
  H        0.7528160    -1.3957640     0.8742890
  H        0.7528180    -1.3957580    -0.8742970
  H        2.5431990     0.4048750    -0.8827100
  H        2.5431990     0.4048640     0.8827220
  H        3.0856000    -1.0339670    -0.0000030
units angstrom
no_reorient  #important for SAPT in psi4, default
symmetry c1  #important for SAPT in psi4, default
}

set PROPERTIES_ORIGIN ["COM"]
properties('MP2/aug-cc-pvtz', properties = ['dipole'])
--------------------------------------------------------------------------

    Molecular point group: c1
  Charge       = 0
  Multiplicity = 1
  Basis Set: AUG-CC-PVTZ
    Blend: AUG-CC-PVTZ
  Basis Set: (AUG-CC-PVTZ AUX)
    Blend: AUG-CC-PVTZ-JKFIT

    Orbital Energies [Eh]
    ---------------------

    Doubly Occupied:

       1A   -104.848405     2A    -20.591802     3A    -11.415931
       4A    -11.272672     5A    -11.241072     6A    -10.572532
       7A     -8.039135     8A     -8.037494     9A     -8.037356
      10A     -1.416072    11A     -1.136693    12A     -1.080106
      13A     -0.922691    14A     -0.764262    15A     -0.682363
      16A     -0.666806    17A     -0.648945    18A     -0.563756
      19A     -0.562738    20A     -0.542819    21A     -0.516853
      22A     -0.467976    23A     -0.462994    24A     -0.451917

  @DF-RHF Final Energy:  -650.96900372167158

   => Energetics <=

    Nuclear Repulsion Energy =            212.5638238349330038
    One-Electron Energy =               -1317.1788787978512119
    Two-Electron Energy =                 453.6460512412467665
    Total Energy =                       -650.9690037216714700
  Basis Set: (AUG-CC-PVTZ AUX)
    Blend: AUG-CC-PVTZ-RI
    Molecular point group: c1

    Geometry (in Angstrom), charge = 0, multiplicity = 1:

       Center              X                  Y                   Z               Mass
    ------------   -----------------  -----------------  -----------------  -----------------
         CL          -1.646962669021    -0.334494961471     0.000000739392    34.968852682000
         O            0.237662330979     1.493777038529    -0.000000260608    15.994914619570
         C            1.065431330979    -0.788905961471    -0.000002260608    12.000000000000
         C            2.483988330979    -0.236719961471     0.000001739392    12.000000000000
         C            0.070621030979     0.272829438529    -0.000001260608    12.000000000000
         H            0.871320330979    -1.420177961471     0.874288739392     1.007825032230
         H            0.871322330979    -1.420171961471    -0.874297260608     1.007825032230
         H            2.661703330979     0.380461038529    -0.882710260608     1.007825032230
         H            2.661703330979     0.380450038529     0.882721739392     1.007825032230
         H            3.204104330979    -1.058380961471    -0.000003260608     1.007825032230

  Basis Set: AUG-CC-PVTZ
    Blend: AUG-CC-PVTZ
  Basis Set: (AUG-CC-PVTZ AUX)
    Blend: AUG-CC-PVTZ-JKFIT
	 Reference Energy          =    -650.9690037216715837 [Eh]
	 Singles Energy            =      -0.0000000000000000 [Eh]
	 Same-Spin Energy          =      -0.2540814625659706 [Eh]
	 Opposite-Spin Energy      =      -0.8023270000540578 [Eh]
	 Correlation Energy        =      -1.0564084626200283 [Eh]
	 Total Energy              =    -652.0254121842916675 [Eh]

	 ================> DF-SCS-MP2 Energies <==================
	-----------------------------------------------------------
	 SCS Same-Spin Scale       =       0.3333333333333333 [-]
	 SCS Opposite-Spin Scale   =       1.2000000000000000 [-]
	 SCS Same-Spin Energy      =      -0.0846938208553235 [Eh]
	 SCS Opposite-Spin Energy  =      -0.9627924000648693 [Eh]
	 SCS Correlation Energy    =      -1.0474862209201929 [Eh]
	 SCS Total Energy          =    -652.0164899425917611 [Eh]
	-----------------------------------------------------------

  Dipole Moment: [D]
     X:     2.1438      Y:    -2.1909      Z:    -0.0000     Total:     3.0653

*** Psi4 exiting successfully. Buy a developer a beer!
