                               Psi4 1.3.2 release

  ==> Input File <==

--------------------------------------------------------------------------
#psi4
#
memory 32 gb

molecule  {
0 1
 Cl       -1.7654740    -0.3100940    -0.0000140
  O        0.1397890     1.5145190     0.0000147
  C        0.9469290    -0.7644920     0.0000410
  C        2.3654940    -0.2123180    -0.0000340
  C       -0.0820610     0.3337550     0.0000080
  H        0.7528550    -1.3956680     0.8744030
  H        0.7528050    -1.3957990    -0.8742120
  H        2.5431970     0.4048060    -0.8827890
  H        2.5432490     0.4048980     0.8826450
  H        3.0855950    -1.0339960    -0.0000140
units angstrom
no_reorient  #important for SAPT in psi4, default
symmetry c1  #important for SAPT in psi4, default
}

set PROPERTIES_ORIGIN ["COM"]
properties('MP2/aug-cc-pvtz', properties = ['dipole'])
--------------------------------------------------------------------------

    Molecular point group: c1
  Charge       = 0
  Multiplicity = 1
  Basis Set: AUG-CC-PVTZ
    Blend: AUG-CC-PVTZ
  Basis Set: (AUG-CC-PVTZ AUX)
    Blend: AUG-CC-PVTZ-JKFIT

    Orbital Energies [Eh]
    ---------------------

    Doubly Occupied:

       1A   -104.850778     2A    -20.592986     3A    -11.410776
       4A    -11.270436     5A    -11.237563     6A    -10.575222
       7A     -8.041853     8A     -8.040173     9A     -8.040026
      10A     -1.436564    11A     -1.137635    12A     -1.071703
      13A     -0.912057    14A     -0.764214    15A     -0.683890
      16A     -0.661238    17A     -0.655172    18A     -0.570763
      19A     -0.563211    20A     -0.540046    21A     -0.516870
      22A     -0.467492    23A     -0.467030    24A     -0.451225

  @DF-RHF Final Energy:  -650.97615951186231

   => Energetics <=

    Nuclear Repulsion Energy =            212.7587270482316910
    One-Electron Energy =               -1317.5519269231983799
    Two-Electron Energy =                 453.8170403631043541
    Total Energy =                       -650.9761595118623063
  Basis Set: (AUG-CC-PVTZ AUX)
    Blend: AUG-CC-PVTZ-RI
    Molecular point group: c1

    Geometry (in Angstrom), charge = 0, multiplicity = 1:

       Center              X                  Y                   Z               Mass
    ------------   -----------------  -----------------  -----------------  -----------------
         CL          -1.646098255565    -0.338625203851    -0.000013552400    34.968852682000
         O            0.259164744435     1.485987796149     0.000015147600    15.994914619570
         C            1.066304744435    -0.793023203851     0.000041447600    12.000000000000
         C            2.484869744435    -0.240849203851    -0.000033552400    12.000000000000
         C            0.037314744435     0.305223796149     0.000008447600    12.000000000000
         H            0.872230744435    -1.424199203851     0.874403447600     1.007825032230
         H            0.872180744435    -1.424330203851    -0.874211552400     1.007825032230
         H            2.662572744435     0.376274796149    -0.882788552400     1.007825032230
         H            2.662624744435     0.376366796149     0.882645447600     1.007825032230
         H            3.204970744435    -1.062527203851    -0.000013552400     1.007825032230

  Basis Set: AUG-CC-PVTZ
    Blend: AUG-CC-PVTZ
  Basis Set: (AUG-CC-PVTZ AUX)
    Blend: AUG-CC-PVTZ-JKFIT
	 Reference Energy          =    -650.9761595118623063 [Eh]
	 Singles Energy            =      -0.0000000000000000 [Eh]
	 Same-Spin Energy          =      -0.2528563262174292 [Eh]
	 Opposite-Spin Energy      =      -0.7999280888963373 [Eh]
	 Correlation Energy        =      -1.0527844151137664 [Eh]
	 Total Energy              =    -652.0289439269761260 [Eh]

	 ================> DF-SCS-MP2 Energies <==================
	-----------------------------------------------------------
	 SCS Same-Spin Scale       =       0.3333333333333333 [-]
	 SCS Opposite-Spin Scale   =       1.2000000000000000 [-]
	 SCS Same-Spin Energy      =      -0.0842854420724764 [Eh]
	 SCS Opposite-Spin Energy  =      -0.9599137066756047 [Eh]
	 SCS Correlation Energy    =      -1.0441991487480811 [Eh]
	 SCS Total Energy          =    -652.0203586606104409 [Eh]
	-----------------------------------------------------------

  Dipole Moment: [D]
     X:     1.8907      Y:    -2.0337      Z:     0.0000     Total:     2.7768

*** Psi4 exiting successfully. Buy a developer a beer!
