                               Psi4 1.3.2 release

  ==> Input File <==

--------------------------------------------------------------------------
#psi4
#
memory 32 gb

molecule  {
0 1
 Cl       -1.7654740    -0.3100940    -0.0000140
  O        0.1191480     1.5182110     0.0000140
  C        0.9469290    -0.7644920     0.0000410
  C        2.3654940    -0.2123180    -0.0000340
  C       -0.0988085     0.2351674     0.0000075
  H        0.7528550    -1.3956680     0.8744030
  H        0.7528050    -1.3957990    -0.8742120
  H        2.5431970     0.4048060    -0.8827890
  H        2.5432490     0.4048980     0.8826450
  H        3.0855950    -1.0339960    -0.0000140
units angstrom
no_reorient  #important for SAPT in psi4, default
symmetry c1  #important for SAPT in psi4, default
}

set PROPERTIES_ORIGIN ["COM"]
properties('MP2/aug-cc-pvtz', properties = ['dipole'])
--------------------------------------------------------------------------

    Molecular point group: c1
  Charge       = 0
  Multiplicity = 1
  Basis Set: AUG-CC-PVTZ
    Blend: AUG-CC-PVTZ
  Basis Set: (AUG-CC-PVTZ AUX)
    Blend: AUG-CC-PVTZ-JKFIT

    Orbital Energies [Eh]
    ---------------------

    Doubly Occupied:

       1A   -104.866961     2A    -20.577253     3A    -11.416599
       4A    -11.270210     5A    -11.238776     6A    -10.591293
       7A     -8.058028     8A     -8.056201     9A     -8.056010
      10A     -1.366878    11A     -1.156049    12A     -1.082961
      13A     -0.925058    14A     -0.760382    15A     -0.674527
      16A     -0.663091    17A     -0.634586    18A     -0.559464
      19A     -0.555563    20A     -0.534930    21A     -0.509635
      22A     -0.481762    23A     -0.459627    24A     -0.453819

  @DF-RHF Final Energy:  -650.95074097045699

   => Energetics <=

    Nuclear Repulsion Energy =            212.5747235847597949
    One-Electron Energy =               -1317.1516035472261592
    Two-Electron Energy =                 453.6261389920093734
    Total Energy =                       -650.9507409704569909
  Basis Set: (AUG-CC-PVTZ AUX)
    Blend: AUG-CC-PVTZ-RI
    Molecular point group: c1

    Geometry (in Angstrom), charge = 0, multiplicity = 1:

       Center              X                  Y                   Z               Mass
    ------------   -----------------  -----------------  -----------------  -----------------
         CL          -1.640325382360    -0.326408218655    -0.000013365488    34.968852682000
         O            0.244296617640     1.501896781345     0.000014634512    15.994914619570
         C            1.072077617640    -0.780806218655     0.000041634512    12.000000000000
         C            2.490642617640    -0.228632218655    -0.000033365488    12.000000000000
         C            0.026340117640     0.218853181345     0.000008134512    12.000000000000
         H            0.878003617640    -1.411982218655     0.874403634512     1.007825032230
         H            0.877953617640    -1.412113218655    -0.874211365488     1.007825032230
         H            2.668345617640     0.388491781345    -0.882788365488     1.007825032230
         H            2.668397617640     0.388583781345     0.882645634512     1.007825032230
         H            3.210743617640    -1.050310218655    -0.000013365488     1.007825032230

  Basis Set: AUG-CC-PVTZ
    Blend: AUG-CC-PVTZ
  Basis Set: (AUG-CC-PVTZ AUX)
    Blend: AUG-CC-PVTZ-JKFIT
	 Reference Energy          =    -650.9507409704569909 [Eh]
	 Singles Energy            =      -0.0000000000000000 [Eh]
	 Same-Spin Energy          =      -0.2559783631281227 [Eh]
	 Opposite-Spin Energy      =      -0.8064559038019785 [Eh]
	 Correlation Energy        =      -1.0624342669301012 [Eh]
	 Total Energy              =    -652.0131752373871450 [Eh]

	 ================> DF-SCS-MP2 Energies <==================
	-----------------------------------------------------------
	 SCS Same-Spin Scale       =       0.3333333333333333 [-]
	 SCS Opposite-Spin Scale   =       1.2000000000000000 [-]
	 SCS Same-Spin Energy      =      -0.0853261210427076 [Eh]
	 SCS Opposite-Spin Energy  =      -0.9677470845623741 [Eh]
	 SCS Correlation Energy    =      -1.0530732056050818 [Eh]
	 SCS Total Energy          =    -652.0038141760620647 [Eh]
	-----------------------------------------------------------

  Dipole Moment: [D]
     X:     1.5081      Y:    -2.5730      Z:     0.0000     Total:     2.9824

*** Psi4 exiting successfully. Buy a developer a beer!
