                               Psi4 1.4a3.dev225

  ==> Input File <==

--------------------------------------------------------------------------
#psi4
#
memory 32 gb

molecule  {
0 1
 Cl       -1.7654670    -0.3100810     0.0000010
  O        0.1191580     1.5181910     0.0000000
  C        0.9469270    -0.7644920    -0.0000020
  C        2.3654840    -0.2123060     0.0000020
  C       -0.0683953     0.3191354    -0.0000010
  H        0.7528160    -1.3957640     0.8742890
  H        0.7528180    -1.3957580    -0.8742970
  H        2.5431990     0.4048750    -0.8827100
  H        2.5431990     0.4048640     0.8827220
  H        3.0856000    -1.0339670    -0.0000030
units angstrom
no_reorient  #important for SAPT in psi4, default
symmetry c1  #important for SAPT in psi4, default
}

set PROPERTIES_ORIGIN ["COM"]
properties('MP2/aug-cc-pvtz', properties = ['dipole'])
--------------------------------------------------------------------------

    Molecular point group: c1
  Charge       = 0
  Multiplicity = 1
  Basis Set: AUG-CC-PVTZ
    Blend: AUG-CC-PVTZ
  Basis Set: (AUG-CC-PVTZ AUX)
    Blend: AUG-CC-PVTZ-JKFIT

    Orbital Energies [Eh]
    ---------------------

    Doubly Occupied:

       1A   -104.849013     2A    -20.592582     3A    -11.412957
       4A    -11.271984     5A    -11.239350     6A    -10.573375
       7A     -8.039993     8A     -8.038332     9A     -8.038190
      10A     -1.428369    11A     -1.136502    12A     -1.075542
      13A     -0.916646    14A     -0.764336    15A     -0.683264
      16A     -0.663577    17A     -0.652444    18A     -0.568010
      19A     -0.563688    20A     -0.541581    21A     -0.517424
      22A     -0.466547    23A     -0.465133    24A     -0.451968

  @DF-RHF Final Energy:  -650.97421656094593

   => Energetics <=

    Nuclear Repulsion Energy =            212.6727166269496934
    One-Electron Energy =               -1317.3922568649729783
    Two-Electron Energy =                 453.7453236770772946
    Total Energy =                       -650.9742165609459335
  Basis Set: (AUG-CC-PVTZ AUX)
    Blend: AUG-CC-PVTZ-RI
    Molecular point group: c1

    Geometry (in Angstrom), charge = 0, multiplicity = 1:

       Center              X                  Y                   Z               Mass
    ------------   -----------------  -----------------  -----------------  -----------------
         CL          -1.644287274874    -0.337350349959     0.000000739392    34.968852682000
         O            0.240337725126     1.490921650041    -0.000000260608    15.994914619570
         C            1.068106725126    -0.791761349959    -0.000002260608    12.000000000000
         C            2.486663725126    -0.239575349959     0.000001739392    12.000000000000
         C            0.052784425126     0.291866050041    -0.000001260608    12.000000000000
         H            0.873995725126    -1.423033349959     0.874288739392     1.007825032230
         H            0.873997725126    -1.423027349959    -0.874297260608     1.007825032230
         H            2.664378725126     0.377605650041    -0.882710260608     1.007825032230
         H            2.664378725126     0.377594650041     0.882721739392     1.007825032230
         H            3.206779725126    -1.061236349959    -0.000003260608     1.007825032230

  Basis Set: AUG-CC-PVTZ
    Blend: AUG-CC-PVTZ
  Basis Set: (AUG-CC-PVTZ AUX)
    Blend: AUG-CC-PVTZ-JKFIT
	 Reference Energy          =    -650.9742165609459335 [Eh]
	 Singles Energy            =      -0.0000000000000000 [Eh]
	 Same-Spin Energy          =      -0.2532964199330416 [Eh]
	 Opposite-Spin Energy      =      -0.8007864905198717 [Eh]
	 Correlation Energy        =      -1.0540829104529132 [Eh]
	 Total Energy              =    -652.0282994713988955 [Eh]

	 ================> DF-SCS-MP2 Energies <==================
	-----------------------------------------------------------
	 SCS Same-Spin Scale       =       0.3333333333333333 [-]
	 SCS Opposite-Spin Scale   =       1.2000000000000000 [-]
	 SCS Same-Spin Energy      =      -0.0844321399776805 [Eh]
	 SCS Opposite-Spin Energy  =      -0.9609437886238460 [Eh]
	 SCS Correlation Energy    =      -1.0453759286015265 [Eh]
	 SCS Total Energy          =    -652.0195924895474491 [Eh]
	-----------------------------------------------------------

  Dipole Moment: [D]
     X:     2.0267      Y:    -2.1011      Z:    -0.0000     Total:     2.9192

*** Psi4 exiting successfully. Buy a developer a beer!
