                               Psi4 1.3.2 release

  ==> Input File <==

--------------------------------------------------------------------------
#psi4
#
memory 32 gb

molecule  {
0 1
 Cl       -1.7654740    -0.3100940    -0.0000140
  O        0.1191480     1.5182110     0.0000140
  C        0.9469290    -0.7644920     0.0000410
  C        2.3654940    -0.2123180    -0.0000340
  C       -0.1024514     0.3133928    -0.0439138
  H        0.7528550    -1.3956680     0.8744030
  H        0.7528050    -1.3957990    -0.8742120
  H        2.5431970     0.4048060    -0.8827890
  H        2.5432490     0.4048980     0.8826450
  H        3.0855950    -1.0339960    -0.0000140
units angstrom
no_reorient  #important for SAPT in psi4, default
symmetry c1  #important for SAPT in psi4, default
}

set PROPERTIES_ORIGIN ["COM"]
properties('MP2/aug-cc-pvtz', properties = ['dipole'])
--------------------------------------------------------------------------

    Molecular point group: c1
  Charge       = 0
  Multiplicity = 1
  Basis Set: AUG-CC-PVTZ
    Blend: AUG-CC-PVTZ
  Basis Set: (AUG-CC-PVTZ AUX)
    Blend: AUG-CC-PVTZ-JKFIT

    Orbital Energies [Eh]
    ---------------------

    Doubly Occupied:

       1A   -104.856649     2A    -20.587970     3A    -11.411533
       4A    -11.270363     5A    -11.237160     6A    -10.581236
       7A     -8.047917     8A     -8.046166     9A     -8.046002
      10A     -1.417236    11A     -1.145226    12A     -1.072030
      13A     -0.912799    14A     -0.762661    15A     -0.679190
      16A     -0.659292    17A     -0.649894    18A     -0.565592
      19A     -0.562673    20A     -0.538319    21A     -0.514269
      22A     -0.471097    23A     -0.468164    24A     -0.452737

  @DF-RHF Final Energy:  -650.97189895027600

   => Energetics <=

    Nuclear Repulsion Energy =            212.7071471625447998
    One-Electron Energy =               -1317.4457415025119644
    Two-Electron Energy =                 453.7666953896912787
    Total Energy =                       -650.9718989502759996
  Basis Set: (AUG-CC-PVTZ AUX)
    Blend: AUG-CC-PVTZ-RI
    Molecular point group: c1

    Geometry (in Angstrom), charge = 0, multiplicity = 1:

       Center              X                  Y                   Z               Mass
    ------------   -----------------  -----------------  -----------------  -----------------
         CL          -1.639850236429    -0.336611210919     0.005715319620    34.968852682000
         O            0.244771763571     1.491693789081     0.005743319620    15.994914619570
         C            1.072552763571    -0.791009210919     0.005770319620    12.000000000000
         C            2.491117763571    -0.238835210919     0.005695319620    12.000000000000
         C            0.023172363571     0.286875589081    -0.038184480380    12.000000000000
         H            0.878478763571    -1.422185210919     0.880132319620     1.007825032230
         H            0.878428763571    -1.422316210919    -0.868482680380     1.007825032230
         H            2.668820763571     0.378288789081    -0.877059680380     1.007825032230
         H            2.668872763571     0.378380789081     0.888374319620     1.007825032230
         H            3.211218763571    -1.060513210919     0.005715319620     1.007825032230

  Basis Set: AUG-CC-PVTZ
    Blend: AUG-CC-PVTZ
  Basis Set: (AUG-CC-PVTZ AUX)
    Blend: AUG-CC-PVTZ-JKFIT
	 Reference Energy          =    -650.9718989502759996 [Eh]
	 Singles Energy            =      -0.0000000000000000 [Eh]
	 Same-Spin Energy          =      -0.2534638679644693 [Eh]
	 Opposite-Spin Energy      =      -0.8013291160526874 [Eh]
	 Correlation Energy        =      -1.0547929840171568 [Eh]
	 Total Energy              =    -652.0266919342931260 [Eh]

	 ================> DF-SCS-MP2 Energies <==================
	-----------------------------------------------------------
	 SCS Same-Spin Scale       =       0.3333333333333333 [-]
	 SCS Opposite-Spin Scale   =       1.2000000000000000 [-]
	 SCS Same-Spin Energy      =      -0.0844879559881564 [Eh]
	 SCS Opposite-Spin Energy  =      -0.9615949392632248 [Eh]
	 SCS Correlation Energy    =      -1.0460828952513812 [Eh]
	 SCS Total Energy          =    -652.0179818455274017 [Eh]
	-----------------------------------------------------------

  Dipole Moment: [D]
     X:     1.6949      Y:    -2.1865      Z:    -0.0257     Total:     2.7666

*** Psi4 exiting successfully. Buy a developer a beer!
