                               Psi4 1.3.2 release

  ==> Input File <==

--------------------------------------------------------------------------
#psi4
#
memory 32 gb

molecule  {
0 1
 Cl       -1.7654740    -0.3100940    -0.0000140
  O        0.1191480     1.5182110     0.0000140
  C        0.9469290    -0.7644920     0.0000410
  C        2.3654940    -0.2123180    -0.0000340
  C        0.0546836     0.1878067     0.0000124
  H        0.7528550    -1.3956680     0.8744030
  H        0.7528050    -1.3957990    -0.8742120
  H        2.5431970     0.4048060    -0.8827890
  H        2.5432490     0.4048980     0.8826450
  H        3.0855950    -1.0339960    -0.0000140
units angstrom
no_reorient  #important for SAPT in psi4, default
symmetry c1  #important for SAPT in psi4, default
}

set PROPERTIES_ORIGIN ["COM"]
properties('MP2/aug-cc-pvtz', properties = ['dipole'])
--------------------------------------------------------------------------

    Molecular point group: c1
  Charge       = 0
  Multiplicity = 1
  Basis Set: AUG-CC-PVTZ
    Blend: AUG-CC-PVTZ
  Basis Set: (AUG-CC-PVTZ AUX)
    Blend: AUG-CC-PVTZ-JKFIT

    Orbital Energies [Eh]
    ---------------------

    Doubly Occupied:

       1A   -104.843693     2A    -20.584281     3A    -11.427754
       4A    -11.274446     5A    -11.251667     6A    -10.566722
       7A     -8.033242     8A     -8.031668     9A     -8.031554
      10A     -1.356693    11A     -1.161581    12A     -1.087501
      13A     -0.951883    14A     -0.767791    15A     -0.689424
      16A     -0.677837    17A     -0.637771    18A     -0.559576
      19A     -0.558038    20A     -0.541488    21A     -0.500936
      22A     -0.473348    23A     -0.449249    24A     -0.439034

  @DF-RHF Final Energy:  -650.90430555476451

   => Energetics <=

    Nuclear Repulsion Energy =            212.2220759079641255
    One-Electron Energy =               -1316.4584089005272745
    Two-Electron Energy =                 453.3320274377985584
    Total Energy =                       -650.9043055547645054
  Basis Set: (AUG-CC-PVTZ AUX)
    Blend: AUG-CC-PVTZ-RI
    Molecular point group: c1

    Geometry (in Angstrom), charge = 0, multiplicity = 1:

       Center              X                  Y                   Z               Mass
    ------------   -----------------  -----------------  -----------------  -----------------
         CL          -1.660345461628    -0.320230930259    -0.000014004599    34.968852682000
         O            0.224276538372     1.508074069741     0.000013995401    15.994914619570
         C            1.052057538372    -0.774628930259     0.000040995401    12.000000000000
         C            2.470622538372    -0.222454930259    -0.000034004599    12.000000000000
         C            0.159812138372     0.177669769741     0.000012395401    12.000000000000
         H            0.857983538372    -1.405804930259     0.874402995401     1.007825032230
         H            0.857933538372    -1.405935930259    -0.874212004599     1.007825032230
         H            2.648325538372     0.394669069741    -0.882789004599     1.007825032230
         H            2.648377538372     0.394761069741     0.882644995401     1.007825032230
         H            3.190723538372    -1.044132930259    -0.000014004599     1.007825032230

  Basis Set: AUG-CC-PVTZ
    Blend: AUG-CC-PVTZ
  Basis Set: (AUG-CC-PVTZ AUX)
    Blend: AUG-CC-PVTZ-JKFIT
	 Reference Energy          =    -650.9043055547645054 [Eh]
	 Singles Energy            =      -0.0000000000000000 [Eh]
	 Same-Spin Energy          =      -0.2592198854971247 [Eh]
	 Opposite-Spin Energy      =      -0.8120933084312376 [Eh]
	 Correlation Energy        =      -1.0713131939283622 [Eh]
	 Total Energy              =    -651.9756187486929093 [Eh]

	 ================> DF-SCS-MP2 Energies <==================
	-----------------------------------------------------------
	 SCS Same-Spin Scale       =       0.3333333333333333 [-]
	 SCS Opposite-Spin Scale   =       1.2000000000000000 [-]
	 SCS Same-Spin Energy      =      -0.0864066284990415 [Eh]
	 SCS Opposite-Spin Energy  =      -0.9745119701174851 [Eh]
	 SCS Correlation Energy    =      -1.0609185986165266 [Eh]
	 SCS Total Energy          =    -651.9652241533810866 [Eh]
	-----------------------------------------------------------

  Dipole Moment: [D]
     X:     2.8064      Y:    -2.6394      Z:     0.0001     Total:     3.8526

*** Psi4 exiting successfully. Buy a developer a beer!
