                               Psi4 1.3.2 release

  ==> Input File <==

--------------------------------------------------------------------------
#psi4
#
memory 32 gb

molecule  {
0 1
 Cl       -1.7654740    -0.3100940    -0.0000140
  O        0.1191480     1.5182110     0.0000140
  C        0.9469290    -0.7644920     0.0000410
  C        2.3654940    -0.2123180    -0.0000340
  C       -0.0375455     0.3704422     0.0877982
  H        0.7528550    -1.3956680     0.8744030
  H        0.7528050    -1.3957990    -0.8742120
  H        2.5431970     0.4048060    -0.8827890
  H        2.5432490     0.4048980     0.8826450
  H        3.0855950    -1.0339960    -0.0000140
units angstrom
no_reorient  #important for SAPT in psi4, default
symmetry c1  #important for SAPT in psi4, default
}

set PROPERTIES_ORIGIN ["COM"]
properties('MP2/aug-cc-pvtz', properties = ['dipole'])
--------------------------------------------------------------------------

    Molecular point group: c1
  Charge       = 0
  Multiplicity = 1
  Basis Set: AUG-CC-PVTZ
    Blend: AUG-CC-PVTZ
  Basis Set: (AUG-CC-PVTZ AUX)
    Blend: AUG-CC-PVTZ-JKFIT

    Orbital Energies [Eh]
    ---------------------

    Doubly Occupied:

       1A   -104.833504     2A    -20.604879     3A    -11.411895
       4A    -11.275154     5A    -11.241099     6A    -10.557961
       7A     -8.024488     8A     -8.022960     9A     -8.022848
      10A     -1.472453    11A     -1.121597    12A     -1.071166
      13A     -0.913051    14A     -0.770799    15A     -0.695879
      16A     -0.668580    17A     -0.660748    18A     -0.584867
      19A     -0.567896    20A     -0.546233    21A     -0.523200
      22A     -0.458221    23A     -0.454813    24A     -0.443629

  @DF-RHF Final Energy:  -650.97465334183983

   => Energetics <=

    Nuclear Repulsion Energy =            212.6809458035282887
    One-Electron Energy =               -1317.4153584223361122
    Two-Electron Energy =                 453.7597592769678840
    Total Energy =                       -650.9746533418398258
  Basis Set: (AUG-CC-PVTZ AUX)
    Blend: AUG-CC-PVTZ-RI
    Molecular point group: c1

    Geometry (in Angstrom), charge = 0, multiplicity = 1:

       Center              X                  Y                   Z               Mass
    ------------   -----------------  -----------------  -----------------  -----------------
         CL          -1.648315957225    -0.344052203062    -0.011463966353    34.968852682000
         O            0.236306042775     1.484252796938    -0.011435966353    15.994914619570
         C            1.064087042775    -0.798450203062    -0.011408966353    12.000000000000
         C            2.482652042775    -0.246276203062    -0.011483966353    12.000000000000
         C            0.079612542775     0.336483996938     0.076348233647    12.000000000000
         H            0.870013042775    -1.429626203062     0.862953033647     1.007825032230
         H            0.869963042775    -1.429757203062    -0.885661966353     1.007825032230
         H            2.660355042775     0.370847796938    -0.894238966353     1.007825032230
         H            2.660407042775     0.370939796938     0.871195033647     1.007825032230
         H            3.202753042775    -1.067954203062    -0.011463966353     1.007825032230

  Basis Set: AUG-CC-PVTZ
    Blend: AUG-CC-PVTZ
  Basis Set: (AUG-CC-PVTZ AUX)
    Blend: AUG-CC-PVTZ-JKFIT
	 Reference Energy          =    -650.9746533418398258 [Eh]
	 Singles Energy            =      -0.0000000000000000 [Eh]
	 Same-Spin Energy          =      -0.2520320080625844 [Eh]
	 Opposite-Spin Energy      =      -0.7981701545539079 [Eh]
	 Correlation Energy        =      -1.0502021626164924 [Eh]
	 Total Energy              =    -652.0248555044563545 [Eh]

	 ================> DF-SCS-MP2 Energies <==================
	-----------------------------------------------------------
	 SCS Same-Spin Scale       =       0.3333333333333333 [-]
	 SCS Opposite-Spin Scale   =       1.2000000000000000 [-]
	 SCS Same-Spin Energy      =      -0.0840106693541948 [Eh]
	 SCS Opposite-Spin Energy  =      -0.9578041854646895 [Eh]
	 SCS Correlation Energy    =      -1.0418148548188844 [Eh]
	 SCS Total Energy          =    -652.0164681966587068 [Eh]
	-----------------------------------------------------------

  Dipole Moment: [D]
     X:     2.5205      Y:    -1.7305      Z:     0.0691     Total:     3.0582

*** Psi4 exiting successfully. Buy a developer a beer!
