                               Psi4 1.3.2 release

  ==> Input File <==

--------------------------------------------------------------------------
#psi4
#
memory 32 gb

molecule  {
0 1
 Cl       -1.8235526    -0.1306024    -0.0000141
  O        0.1191480     1.5182110     0.0000140
  C        0.9469290    -0.7644920     0.0000410
  C        2.3654940    -0.2123180    -0.0000340
  C       -0.0820610     0.3337550     0.0000080
  H        0.7528550    -1.3956680     0.8744030
  H        0.7528050    -1.3957990    -0.8742120
  H        2.5431970     0.4048060    -0.8827890
  H        2.5432490     0.4048980     0.8826450
  H        3.0855950    -1.0339960    -0.0000140
units angstrom
no_reorient  #important for SAPT in psi4, default
symmetry c1  #important for SAPT in psi4, default
}

set PROPERTIES_ORIGIN ["COM"]
properties('MP2/aug-cc-pvtz', properties = ['dipole'])
--------------------------------------------------------------------------

    Molecular point group: c1
  Charge       = 0
  Multiplicity = 1
  Basis Set: AUG-CC-PVTZ
    Blend: AUG-CC-PVTZ
  Basis Set: (AUG-CC-PVTZ AUX)
    Blend: AUG-CC-PVTZ-JKFIT

    Orbital Energies [Eh]
    ---------------------

    Doubly Occupied:

       1A   -104.846690     2A    -20.587922     3A    -11.409077
       4A    -11.275271     5A    -11.240684     6A    -10.571140
       7A     -8.037773     8A     -8.036072     9A     -8.035940
      10A     -1.435306    11A     -1.129457    12A     -1.076206
      13A     -0.914731    14A     -0.763555    15A     -0.686073
      16A     -0.662541    17A     -0.650011    18A     -0.570996
      19A     -0.565449    20A     -0.541737    21A     -0.518930
      22A     -0.467773    23A     -0.462195    24A     -0.446268

  @DF-RHF Final Energy:  -650.97469236602728

   => Energetics <=

    Nuclear Repulsion Energy =            212.4563961124963782
    One-Electron Energy =               -1316.9985830275445551
    Two-Electron Energy =                 453.5674945490208643
    Total Energy =                       -650.9746923660272842
  Basis Set: (AUG-CC-PVTZ AUX)
    Blend: AUG-CC-PVTZ-RI
    Molecular point group: c1

    Geometry (in Angstrom), charge = 0, multiplicity = 1:

       Center              X                  Y                   Z               Mass
    ------------   -----------------  -----------------  -----------------  -----------------
         CL          -1.678513607630    -0.227997401209    -0.000013492695    34.968852682000
         O            0.264186992370     1.420815998791     0.000014607305    15.994914619570
         C            1.091967992370    -0.861887001209     0.000041607305    12.000000000000
         C            2.510532992370    -0.309713001209    -0.000033392695    12.000000000000
         C            0.062977992370     0.236359998791     0.000008607305    12.000000000000
         H            0.897893992370    -1.493063001209     0.874403607305     1.007825032230
         H            0.897843992370    -1.493194001209    -0.874211392695     1.007825032230
         H            2.688235992370     0.307410998791    -0.882788392695     1.007825032230
         H            2.688287992370     0.307502998791     0.882645607305     1.007825032230
         H            3.230633992370    -1.131391001209    -0.000013392695     1.007825032230

  Basis Set: AUG-CC-PVTZ
    Blend: AUG-CC-PVTZ
  Basis Set: (AUG-CC-PVTZ AUX)
    Blend: AUG-CC-PVTZ-JKFIT
	 Reference Energy          =    -650.9746923660272842 [Eh]
	 Singles Energy            =      -0.0000000000000000 [Eh]
	 Same-Spin Energy          =      -0.2524488688161539 [Eh]
	 Opposite-Spin Energy      =      -0.7993081297628946 [Eh]
	 Correlation Energy        =      -1.0517569985790485 [Eh]
	 Total Energy              =    -652.0264493646063784 [Eh]

	 ================> DF-SCS-MP2 Energies <==================
	-----------------------------------------------------------
	 SCS Same-Spin Scale       =       0.3333333333333333 [-]
	 SCS Opposite-Spin Scale   =       1.2000000000000000 [-]
	 SCS Same-Spin Energy      =      -0.0841496229387179 [Eh]
	 SCS Opposite-Spin Energy  =      -0.9591697557154735 [Eh]
	 SCS Correlation Energy    =      -1.0433193786541914 [Eh]
	 SCS Total Energy          =    -652.0180117446815302 [Eh]
	-----------------------------------------------------------

  Dipole Moment: [D]
     X:     2.0680      Y:    -2.1633      Z:     0.0000     Total:     2.9927

*** Psi4 exiting successfully. Buy a developer a beer!
