                               Psi4 1.3.2 release

  ==> Input File <==

--------------------------------------------------------------------------
#psi4
#
memory 32 gb

molecule  {
0 1
 Cl       -1.8062859    -0.1910967    -0.0000141
  O        0.1191480     1.5182110     0.0000140
  C        0.9469290    -0.7644920     0.0000410
  C        2.3654940    -0.2123180    -0.0000340
  C       -0.0820610     0.3337550     0.0000080
  H        0.7528550    -1.3956680     0.8744030
  H        0.7528050    -1.3957990    -0.8742120
  H        2.5431970     0.4048060    -0.8827890
  H        2.5432490     0.4048980     0.8826450
  H        3.0855950    -1.0339960    -0.0000140
units angstrom
no_reorient  #important for SAPT in psi4, default
symmetry c1  #important for SAPT in psi4, default
}

set PROPERTIES_ORIGIN ["COM"]
properties('MP2/aug-cc-pvtz', properties = ['dipole'])
--------------------------------------------------------------------------

    Molecular point group: c1
  Charge       = 0
  Multiplicity = 1
  Basis Set: AUG-CC-PVTZ
    Blend: AUG-CC-PVTZ
  Basis Set: (AUG-CC-PVTZ AUX)
    Blend: AUG-CC-PVTZ-JKFIT

    Orbital Energies [Eh]
    ---------------------

    Doubly Occupied:

       1A   -104.847678     2A    -20.589640     3A    -11.409688
       4A    -11.274003     5A    -11.239904     6A    -10.572138
       7A     -8.038771     8A     -8.037082     9A     -8.036943
      10A     -1.435671    11A     -1.131948    12A     -1.074947
      13A     -0.914044    14A     -0.763842    15A     -0.685382
      16A     -0.662220    17A     -0.651661    18A     -0.571066
      19A     -0.564982    20A     -0.541395    21A     -0.518408
      22A     -0.466993    23A     -0.463725    24A     -0.448399

  @DF-RHF Final Energy:  -650.97585262485211

   => Energetics <=

    Nuclear Repulsion Energy =            212.5202661349027835
    One-Electron Energy =               -1317.1111759397440437
    Two-Electron Energy =                 453.6150571799890372
    Total Energy =                       -650.9758526248522230
  Basis Set: (AUG-CC-PVTZ AUX)
    Blend: AUG-CC-PVTZ-RI
    Molecular point group: c1

    Geometry (in Angstrom), charge = 0, multiplicity = 1:

       Center              X                  Y                   Z               Mass
    ------------   -----------------  -----------------  -----------------  -----------------
         CL          -1.667809708781    -0.265498769050    -0.000013492695    34.968852682000
         O            0.257624191219     1.443808930950     0.000014607305    15.994914619570
         C            1.085405191219    -0.838894069050     0.000041607305    12.000000000000
         C            2.503970191219    -0.286720069050    -0.000033392695    12.000000000000
         C            0.056415191219     0.259352930950     0.000008607305    12.000000000000
         H            0.891331191219    -1.470070069050     0.874403607305     1.007825032230
         H            0.891281191219    -1.470201069050    -0.874211392695     1.007825032230
         H            2.681673191219     0.330403930950    -0.882788392695     1.007825032230
         H            2.681725191219     0.330495930950     0.882645607305     1.007825032230
         H            3.224071191219    -1.108398069050    -0.000013392695     1.007825032230

  Basis Set: AUG-CC-PVTZ
    Blend: AUG-CC-PVTZ
  Basis Set: (AUG-CC-PVTZ AUX)
    Blend: AUG-CC-PVTZ-JKFIT
	 Reference Energy          =    -650.9758526248521093 [Eh]
	 Singles Energy            =      -0.0000000000000000 [Eh]
	 Same-Spin Energy          =      -0.2525526691315324 [Eh]
	 Opposite-Spin Energy      =      -0.7994439136657985 [Eh]
	 Correlation Energy        =      -1.0519965827973308 [Eh]
	 Total Energy              =    -652.0278492076494103 [Eh]

	 ================> DF-SCS-MP2 Energies <==================
	-----------------------------------------------------------
	 SCS Same-Spin Scale       =       0.3333333333333333 [-]
	 SCS Opposite-Spin Scale   =       1.2000000000000000 [-]
	 SCS Same-Spin Energy      =      -0.0841842230438441 [Eh]
	 SCS Opposite-Spin Energy  =      -0.9593326963989581 [Eh]
	 SCS Correlation Energy    =      -1.0435169194428022 [Eh]
	 SCS Total Energy          =    -652.0193695442949320 [Eh]
	-----------------------------------------------------------

  Dipole Moment: [D]
     X:     2.0284      Y:    -2.1224      Z:     0.0000     Total:     2.9358

*** Psi4 exiting successfully. Buy a developer a beer!
