                               Psi4 1.4a3.dev225

  ==> Input File <==

--------------------------------------------------------------------------
#psi4
#
memory 32 gb

molecule  {
0 1
 Cl       -1.7654670    -0.3100810     0.0000010
  O        0.1191580     1.5181910     0.0000000
  C        0.9469270    -0.7644920    -0.0000020
  C        2.3654840    -0.2123060     0.0000020
  C       -0.0736955     0.3830237    -0.0000010
  H        0.7528160    -1.3957640     0.8742890
  H        0.7528180    -1.3957580    -0.8742970
  H        2.5431990     0.4048750    -0.8827100
  H        2.5431990     0.4048640     0.8827220
  H        3.0856000    -1.0339670    -0.0000030
units angstrom
no_reorient  #important for SAPT in psi4, default
symmetry c1  #important for SAPT in psi4, default
}

set PROPERTIES_ORIGIN ["COM"]
properties('MP2/aug-cc-pvtz', properties = ['dipole'])
--------------------------------------------------------------------------

    Molecular point group: c1
  Charge       = 0
  Multiplicity = 1
  Basis Set: AUG-CC-PVTZ
    Blend: AUG-CC-PVTZ
  Basis Set: (AUG-CC-PVTZ AUX)
    Blend: AUG-CC-PVTZ-JKFIT

    Orbital Energies [Eh]
    ---------------------

    Doubly Occupied:

       1A   -104.839059     2A    -20.601252     3A    -11.407175
       4A    -11.272489     5A    -11.238414     6A    -10.563763
       7A     -8.030336     8A     -8.028740     9A     -8.028615
      10A     -1.477170    11A     -1.125995    12A     -1.067684
      13A     -0.906555    14A     -0.768979    15A     -0.694268
      16A     -0.664242    17A     -0.663857    18A     -0.587327
      19A     -0.567194    20A     -0.542950    21A     -0.520817
      22A     -0.462991    23A     -0.459503    24A     -0.442816

  @DF-RHF Final Energy:  -650.97806016353627

   => Energetics <=

    Nuclear Repulsion Energy =            212.9329313019817675
    One-Electron Energy =               -1317.8975993580331760
    Two-Electron Energy =                 453.9866078925151101
    Total Energy =                       -650.9780601635361563
  Basis Set: (AUG-CC-PVTZ AUX)
    Blend: AUG-CC-PVTZ-RI
    Molecular point group: c1

    Geometry (in Angstrom), charge = 0, multiplicity = 1:

       Center              X                  Y                   Z               Mass
    ------------   -----------------  -----------------  -----------------  -----------------
         CL          -1.643595966174    -0.345683344493     0.000000739392    34.968852682000
         O            0.241029033826     1.482588655507    -0.000000260608    15.994914619570
         C            1.068798033826    -0.800094344493    -0.000002260608    12.000000000000
         C            2.487355033826    -0.247908344493     0.000001739392    12.000000000000
         C            0.048175533826     0.347421355507    -0.000001260608    12.000000000000
         H            0.874687033826    -1.431366344493     0.874288739392     1.007825032230
         H            0.874689033826    -1.431360344493    -0.874297260608     1.007825032230
         H            2.665070033826     0.369272655507    -0.882710260608     1.007825032230
         H            2.665070033826     0.369261655507     0.882721739392     1.007825032230
         H            3.207471033826    -1.069569344493    -0.000003260608     1.007825032230

  Basis Set: AUG-CC-PVTZ
    Blend: AUG-CC-PVTZ
  Basis Set: (AUG-CC-PVTZ AUX)
    Blend: AUG-CC-PVTZ-JKFIT
	 Reference Energy          =    -650.9780601635362700 [Eh]
	 Singles Energy            =      -0.0000000000000000 [Eh]
	 Same-Spin Energy          =      -0.2514036327414592 [Eh]
	 Opposite-Spin Energy      =      -0.7968339001531826 [Eh]
	 Correlation Energy        =      -1.0482375328946416 [Eh]
	 Total Energy              =    -652.0262976964309019 [Eh]

	 ================> DF-SCS-MP2 Energies <==================
	-----------------------------------------------------------
	 SCS Same-Spin Scale       =       0.3333333333333333 [-]
	 SCS Opposite-Spin Scale   =       1.2000000000000000 [-]
	 SCS Same-Spin Energy      =      -0.0838012109138197 [Eh]
	 SCS Opposite-Spin Energy  =      -0.9562006801838190 [Eh]
	 SCS Correlation Energy    =      -1.0400018910976387 [Eh]
	 SCS Total Energy          =    -652.0180620546339014 [Eh]
	-----------------------------------------------------------

  Dipole Moment: [D]
     X:     2.2180      Y:    -1.7257      Z:    -0.0000     Total:     2.8103

*** Psi4 exiting successfully. Buy a developer a beer!
