                               Psi4 1.4a3.dev225

  ==> Input File <==

--------------------------------------------------------------------------
#psi4
#
memory 32 gb

molecule  {
0 1
  S       -1.0050790    -1.7376190    -0.0151270
  O        2.1293390     1.6156530    -0.0602560
  N        1.4328010    -0.5712990    -0.0002240
  C       -2.0712570     0.6114660     0.0102110
  C        0.0482060    -0.3546190     0.0027700
  C       -0.6600310     0.8254930     0.0130800
  C       -2.4003070    -0.7218620    -0.0026000
  C       -3.2085025     1.8768280     0.0229766
  C        2.3954760     0.4154750    -0.0251370
  C        3.8156290    -0.1071950     0.0454080
  H       -0.1788490     1.7941090     0.0202490
  H       -3.3868100    -1.1685230    -0.0043580
  H        1.7501540    -1.5327770     0.0300190
  H       -2.9559420     2.3719740    -0.8556620
  H       -4.0955650     1.3361040     0.0184570
  H       -2.9548850     2.3555760     0.9102830
  H        3.9313990    -1.0827470    -0.4343570
  H        4.1211000    -0.1952360     1.0924070
  H        4.4689380     0.6162650    -0.4426230
units angstrom
no_reorient  #important for SAPT in psi4, default
symmetry c1  #important for SAPT in psi4, default
}

set PROPERTIES_ORIGIN ["COM"]
properties('MP2/aug-cc-pvtz', properties = ['dipole'])
--------------------------------------------------------------------------

    Molecular point group: c1
  Charge       = 0
  Multiplicity = 1
  Basis Set: AUG-CC-PVTZ
    Blend: AUG-CC-PVTZ
  Basis Set: (AUG-CC-PVTZ AUX)
    Blend: AUG-CC-PVTZ-JKFIT

    Orbital Energies [Eh]
    ---------------------

    Doubly Occupied:

       1A    -91.983616     2A    -20.532310     3A    -15.618435
       4A    -11.368668     5A    -11.310471     6A    -11.250426
       7A    -11.249004     8A    -11.248025     9A    -11.227329
      10A    -11.221703    11A     -8.984070    12A     -6.665220
      13A     -6.664681    14A     -6.663784    15A     -1.388141
      16A     -1.264066    17A     -1.154373    18A     -1.030413
      19A     -1.002188    20A     -0.969994    21A     -0.922075
      22A     -0.825446    23A     -0.783203    24A     -0.724898
      25A     -0.682802    26A     -0.671135    27A     -0.632293
      28A     -0.604188    29A     -0.600922    30A     -0.598244
      31A     -0.582307    32A     -0.562867    33A     -0.554182
      34A     -0.539730    35A     -0.506102    36A     -0.495487
      37A     -0.447438    38A     -0.443227    39A     -0.433005
      40A     -0.341562    41A     -0.294784

  @DF-RHF Final Energy:  -797.29215727440157

   => Energetics <=

    Nuclear Repulsion Energy =            581.4048931198162791
    One-Electron Energy =               -2247.3084700963663636
    Two-Electron Energy =                 868.6114197021485097
    Total Energy =                       -797.2921572744015748
  Basis Set: (AUG-CC-PVTZ AUX)
    Blend: AUG-CC-PVTZ-RI
    Molecular point group: c1

    Geometry (in Angstrom), charge = 0, multiplicity = 1:

       Center              X                  Y                   Z               Mass
    ------------   -----------------  -----------------  -----------------  -----------------
         S           -0.990394658282    -1.720616729904    -0.013107961062    31.972071174400
         O            2.144023341718     1.632655270096    -0.058236961062    15.994914619570
         N            1.447485341718    -0.554296729904     0.001795038938    14.003074004430
         C           -2.056572658282     0.628468270096     0.012230038938    12.000000000000
         C            0.062890341718    -0.337616729904     0.004789038938    12.000000000000
         C           -0.645346658282     0.842495270096     0.015099038938    12.000000000000
         C           -2.385622658282    -0.704859729904    -0.000580961062    12.000000000000
         C           -3.193818158282     1.893830270096     0.024995638938    12.000000000000
         C            2.410160341718     0.432477270096    -0.023117961062    12.000000000000
         C            3.830313341718    -0.090192729904     0.047427038938    12.000000000000
         H           -0.164164658282     1.811111270096     0.022268038938     1.007825032230
         H           -3.372125658282    -1.151520729904    -0.002338961062     1.007825032230
         H            1.764838341718    -1.515774729904     0.032038038938     1.007825032230
         H           -2.941257658282     2.388976270096    -0.853642961062     1.007825032230
         H           -4.080880658282     1.353106270096     0.020476038938     1.007825032230
         H           -2.940200658282     2.372578270096     0.912302038938     1.007825032230
         H            3.946083341718    -1.065744729904    -0.432337961062     1.007825032230
         H            4.135784341718    -0.178233729904     1.094426038938     1.007825032230
         H            4.483622341718     0.633267270096    -0.440603961062     1.007825032230

  Basis Set: AUG-CC-PVTZ
    Blend: AUG-CC-PVTZ
  Basis Set: (AUG-CC-PVTZ AUX)
    Blend: AUG-CC-PVTZ-JKFIT
	 Reference Energy          =    -797.2921572744015748 [Eh]
	 Singles Energy            =      -0.0000000000000000 [Eh]
	 Same-Spin Energy          =      -0.4854416366918505 [Eh]
	 Opposite-Spin Energy      =      -1.5027073245624076 [Eh]
	 Correlation Energy        =      -1.9881489612542582 [Eh]
	 Total Energy              =    -799.2803062356558712 [Eh]

	 ================> DF-SCS-MP2 Energies <==================
	-----------------------------------------------------------
	 SCS Same-Spin Scale       =       0.3333333333333333 [-]
	 SCS Opposite-Spin Scale   =       1.2000000000000000 [-]
	 SCS Same-Spin Energy      =      -0.1618138788972835 [Eh]
	 SCS Opposite-Spin Energy  =      -1.8032487894748890 [Eh]
	 SCS Correlation Energy    =      -1.9650626683721726 [Eh]
	 SCS Total Energy          =    -799.2572199427737587 [Eh]
	-----------------------------------------------------------

  Dipole Moment: [D]
     X:     0.4180      Y:    -2.5376      Z:     0.1779     Total:     2.5780

*** Psi4 exiting successfully. Buy a developer a beer!
