                               Psi4 1.4a3.dev225

  ==> Input File <==

--------------------------------------------------------------------------
#psi4
#
memory 32 gb

molecule  {
0 1
  S       -1.0527074    -1.7000206    -0.0146311
  O        2.1293390     1.6156530    -0.0602560
  N        1.4328010    -0.5712990    -0.0002240
  C       -2.0712570     0.6114660     0.0102110
  C        0.0482060    -0.3546190     0.0027700
  C       -0.6600310     0.8254930     0.0130800
  C       -2.4003070    -0.7218620    -0.0026000
  C       -3.0748160     1.7280810     0.0214760
  C        2.3954760     0.4154750    -0.0251370
  C        3.8156290    -0.1071950     0.0454080
  H       -0.1788490     1.7941090     0.0202490
  H       -3.3868100    -1.1685230    -0.0043580
  H        1.7501540    -1.5327770     0.0300190
  H       -2.9559420     2.3719740    -0.8556620
  H       -4.0955650     1.3361040     0.0184570
  H       -2.9548850     2.3555760     0.9102830
  H        3.9313990    -1.0827470    -0.4343570
  H        4.1211000    -0.1952360     1.0924070
  H        4.4689380     0.6162650    -0.4426230
units angstrom
no_reorient  #important for SAPT in psi4, default
symmetry c1  #important for SAPT in psi4, default
}

set PROPERTIES_ORIGIN ["COM"]
properties('MP2/aug-cc-pvtz', properties = ['dipole'])
--------------------------------------------------------------------------

    Molecular point group: c1
  Charge       = 0
  Multiplicity = 1
  Basis Set: AUG-CC-PVTZ
    Blend: AUG-CC-PVTZ
  Basis Set: (AUG-CC-PVTZ AUX)
    Blend: AUG-CC-PVTZ-JKFIT

    Orbital Energies [Eh]
    ---------------------

    Doubly Occupied:

       1A    -91.982562     2A    -20.532821     3A    -15.619625
       4A    -11.369516     5A    -11.309903     6A    -11.249557
       7A    -11.244495     8A    -11.241993     9A    -11.224334
      10A    -11.221764    11A     -8.984342    12A     -6.665511
      13A     -6.665106    14A     -6.664057    15A     -1.388709
      16A     -1.264729    17A     -1.167436    18A     -1.036883
      19A     -1.015832    20A     -0.976037    21A     -0.910087
      22A     -0.825636    23A     -0.784470    24A     -0.731144
      25A     -0.687048    26A     -0.674635    27A     -0.632982
      28A     -0.612712    29A     -0.594253    30A     -0.580954
      31A     -0.576695    32A     -0.562578    33A     -0.557910
      34A     -0.524245    35A     -0.515648    36A     -0.506089
      37A     -0.471268    38A     -0.445359    39A     -0.433597
      40A     -0.338336    41A     -0.294993

  @DF-RHF Final Energy:  -797.31732901645717

   => Energetics <=

    Nuclear Repulsion Energy =            586.4551528526774291
    One-Electron Energy =               -2257.3732622956963496
    Two-Electron Energy =                 873.6007804265617551
    Total Energy =                       -797.3173290164571654
  Basis Set: (AUG-CC-PVTZ AUX)
    Blend: AUG-CC-PVTZ-RI
    Molecular point group: c1

    Geometry (in Angstrom), charge = 0, multiplicity = 1:

       Center              X                  Y                   Z               Mass
    ------------   -----------------  -----------------  -----------------  -----------------
         S           -1.038548465599    -1.679258890691    -0.012598179204    31.972071174400
         O            2.143497934401     1.636414709309    -0.058223079204    15.994914619570
         N            1.446959934401    -0.550537290691     0.001808920796    14.003074004430
         C           -2.057098065599     0.632227709309     0.012243920796    12.000000000000
         C            0.062364934401    -0.333857290691     0.004802920796    12.000000000000
         C           -0.645872065599     0.846254709309     0.015112920796    12.000000000000
         C           -2.386148065599    -0.701100290691    -0.000567079204    12.000000000000
         C           -3.060657065599     1.748842709309     0.023508920796    12.000000000000
         C            2.409634934401     0.436236709309    -0.023104079204    12.000000000000
         C            3.829787934401    -0.086433290691     0.047440920796    12.000000000000
         H           -0.164690065599     1.814870709309     0.022281920796     1.007825032230
         H           -3.372651065599    -1.147761290691    -0.002325079204     1.007825032230
         H            1.764312934401    -1.512015290691     0.032051920796     1.007825032230
         H           -2.941783065599     2.392735709309    -0.853629079204     1.007825032230
         H           -4.081406065599     1.356865709309     0.020489920796     1.007825032230
         H           -2.940726065599     2.376337709309     0.912315920796     1.007825032230
         H            3.945557934401    -1.061985290691    -0.432324079204     1.007825032230
         H            4.135258934401    -0.174474290691     1.094439920796     1.007825032230
         H            4.483096934401     0.637026709309    -0.440590079204     1.007825032230

  Basis Set: AUG-CC-PVTZ
    Blend: AUG-CC-PVTZ
  Basis Set: (AUG-CC-PVTZ AUX)
    Blend: AUG-CC-PVTZ-JKFIT
	 Reference Energy          =    -797.3173290164571654 [Eh]
	 Singles Energy            =      -0.0000000000000000 [Eh]
	 Same-Spin Energy          =      -0.4863117341685120 [Eh]
	 Opposite-Spin Energy      =      -1.5015409812043083 [Eh]
	 Correlation Energy        =      -1.9878527153728203 [Eh]
	 Total Energy              =    -799.3051817318299754 [Eh]

	 ================> DF-SCS-MP2 Energies <==================
	-----------------------------------------------------------
	 SCS Same-Spin Scale       =       0.3333333333333333 [-]
	 SCS Opposite-Spin Scale   =       1.2000000000000000 [-]
	 SCS Same-Spin Energy      =      -0.1621039113895040 [Eh]
	 SCS Opposite-Spin Energy  =      -1.8018491774451699 [Eh]
	 SCS Correlation Energy    =      -1.9639530888346739 [Eh]
	 SCS Total Energy          =    -799.2812821052918935 [Eh]
	-----------------------------------------------------------

  Dipole Moment: [D]
     X:     0.4408      Y:    -2.5973      Z:     0.1773     Total:     2.6404

*** Psi4 exiting successfully. Buy a developer a beer!
