                               Psi4 1.4a3.dev225

  ==> Input File <==

--------------------------------------------------------------------------
#psi4
#
memory 32 gb

molecule  {
0 1
  S       -1.0050790    -1.7376190    -0.0151270
  O        2.1293390     1.6156530    -0.0602560
  N        1.4328010    -0.5712990    -0.0002240
  C       -2.0712570     0.6114660     0.0102110
  C        0.0482060    -0.3546190     0.0027700
  C       -0.6600310     0.8254930     0.0130800
  C       -2.3194644    -0.7807172    -0.0033258
  C       -3.0748160     1.7280810     0.0214760
  C        2.3954760     0.4154750    -0.0251370
  C        3.8156290    -0.1071950     0.0454080
  H       -0.1788490     1.7941090     0.0202490
  H       -3.3868100    -1.1685230    -0.0043580
  H        1.7501540    -1.5327770     0.0300190
  H       -2.9559420     2.3719740    -0.8556620
  H       -4.0955650     1.3361040     0.0184570
  H       -2.9548850     2.3555760     0.9102830
  H        3.9313990    -1.0827470    -0.4343570
  H        4.1211000    -0.1952360     1.0924070
  H        4.4689380     0.6162650    -0.4426230
units angstrom
no_reorient  #important for SAPT in psi4, default
symmetry c1  #important for SAPT in psi4, default
}

set PROPERTIES_ORIGIN ["COM"]
properties('MP2/aug-cc-pvtz', properties = ['dipole'])
--------------------------------------------------------------------------

    Molecular point group: c1
  Charge       = 0
  Multiplicity = 1
  Basis Set: AUG-CC-PVTZ
    Blend: AUG-CC-PVTZ
  Basis Set: (AUG-CC-PVTZ AUX)
    Blend: AUG-CC-PVTZ-JKFIT

    Orbital Energies [Eh]
    ---------------------

    Doubly Occupied:

       1A    -91.987918     2A    -20.530845     3A    -15.616978
       4A    -11.367384     5A    -11.306903     6A    -11.249977
       7A    -11.248273     8A    -11.245957     9A    -11.227301
      10A    -11.222086    11A     -8.990273    12A     -6.671547
      13A     -6.670934    14A     -6.669905    15A     -1.386895
      16A     -1.263630    17A     -1.167010    18A     -1.035321
      19A     -1.020619    20A     -0.973427    21A     -0.909281
      22A     -0.822140    23A     -0.779175    24A     -0.726262
      25A     -0.686891    26A     -0.671055    27A     -0.631648
      28A     -0.611570    29A     -0.592762    30A     -0.581070
      31A     -0.572427    32A     -0.558071    33A     -0.552203
      34A     -0.529630    35A     -0.510035    36A     -0.507334
      37A     -0.482499    38A     -0.444340    39A     -0.432101
      40A     -0.341727    41A     -0.286664

  @DF-RHF Final Energy:  -797.30592751416043

   => Energetics <=

    Nuclear Repulsion Energy =            586.3760658002707942
    One-Electron Energy =               -2257.1998585812775673
    Two-Electron Energy =                 873.5178652668464565
    Total Energy =                       -797.3059275141604303
  Basis Set: (AUG-CC-PVTZ AUX)
    Blend: AUG-CC-PVTZ-RI
    Molecular point group: c1

    Geometry (in Angstrom), charge = 0, multiplicity = 1:

       Center              X                  Y                   Z               Mass
    ------------   -----------------  -----------------  -----------------  -----------------
         S           -1.006999025835    -1.704548498444    -0.012935639620    31.972071174400
         O            2.127418974165     1.648723501556    -0.058064639620    15.994914619570
         N            1.430880974165    -0.538228498444     0.001967360380    14.003074004430
         C           -2.073177025835     0.644536501556     0.012402360380    12.000000000000
         C            0.046285974165    -0.321548498444     0.004961360380    12.000000000000
         C           -0.661951025835     0.858563501556     0.015271360380    12.000000000000
         C           -2.321384425835    -0.747646698444    -0.001134439620    12.000000000000
         C           -3.076736025835     1.761151501556     0.023667360380    12.000000000000
         C            2.393555974165     0.448545501556    -0.022945639620    12.000000000000
         C            3.813708974165    -0.074124498444     0.047599360380    12.000000000000
         H           -0.180769025835     1.827179501556     0.022440360380     1.007825032230
         H           -3.388730025835    -1.135452498444    -0.002166639620     1.007825032230
         H            1.748233974165    -1.499706498444     0.032210360380     1.007825032230
         H           -2.957862025835     2.405044501556    -0.853470639620     1.007825032230
         H           -4.097485025835     1.369174501556     0.020648360380     1.007825032230
         H           -2.956805025835     2.388646501556     0.912474360380     1.007825032230
         H            3.929478974165    -1.049676498444    -0.432165639620     1.007825032230
         H            4.119179974165    -0.162165498444     1.094598360380     1.007825032230
         H            4.467017974165     0.649335501556    -0.440431639620     1.007825032230

  Basis Set: AUG-CC-PVTZ
    Blend: AUG-CC-PVTZ
  Basis Set: (AUG-CC-PVTZ AUX)
    Blend: AUG-CC-PVTZ-JKFIT
	 Reference Energy          =    -797.3059275141604303 [Eh]
	 Singles Energy            =      -0.0000000000000000 [Eh]
	 Same-Spin Energy          =      -0.4878149813799239 [Eh]
	 Opposite-Spin Energy      =      -1.5037809728248848 [Eh]
	 Correlation Energy        =      -1.9915959542048087 [Eh]
	 Total Energy              =    -799.2975234683652843 [Eh]

	 ================> DF-SCS-MP2 Energies <==================
	-----------------------------------------------------------
	 SCS Same-Spin Scale       =       0.3333333333333333 [-]
	 SCS Opposite-Spin Scale   =       1.2000000000000000 [-]
	 SCS Same-Spin Energy      =      -0.1626049937933080 [Eh]
	 SCS Opposite-Spin Energy  =      -1.8045371673898616 [Eh]
	 SCS Correlation Energy    =      -1.9671421611831694 [Eh]
	 SCS Total Energy          =    -799.2730696753435495 [Eh]
	-----------------------------------------------------------

  Dipole Moment: [D]
     X:     0.3679      Y:    -2.6729      Z:     0.1762     Total:     2.7038

*** Psi4 exiting successfully. Buy a developer a beer!
