                               Psi4 1.4a3.dev225

  ==> Input File <==

--------------------------------------------------------------------------
#psi4
#
memory 32 gb

molecule  {
0 1
  S       -1.0050790    -1.7376190    -0.0151270
  O        2.1293390     1.6156530    -0.0602560
  N        1.4328010    -0.5712990    -0.0002240
  C       -2.0712570     0.6114660     0.0102110
  C        0.0284465    -0.3515268     0.0028127
  C       -0.6600310     0.8254930     0.0130800
  C       -2.4003070    -0.7218620    -0.0026000
  C       -3.0748160     1.7280810     0.0214760
  C        2.3954760     0.4154750    -0.0251370
  C        3.8156290    -0.1071950     0.0454080
  H       -0.1788490     1.7941090     0.0202490
  H       -3.3868100    -1.1685230    -0.0043580
  H        1.7501540    -1.5327770     0.0300190
  H       -2.9559420     2.3719740    -0.8556620
  H       -4.0955650     1.3361040     0.0184570
  H       -2.9548850     2.3555760     0.9102830
  H        3.9313990    -1.0827470    -0.4343570
  H        4.1211000    -0.1952360     1.0924070
  H        4.4689380     0.6162650    -0.4426230
units angstrom
no_reorient  #important for SAPT in psi4, default
symmetry c1  #important for SAPT in psi4, default
}

set PROPERTIES_ORIGIN ["COM"]
properties('MP2/aug-cc-pvtz', properties = ['dipole'])
--------------------------------------------------------------------------

    Molecular point group: c1
  Charge       = 0
  Multiplicity = 1
  Basis Set: AUG-CC-PVTZ
    Blend: AUG-CC-PVTZ
  Basis Set: (AUG-CC-PVTZ AUX)
    Blend: AUG-CC-PVTZ-JKFIT

    Orbital Energies [Eh]
    ---------------------

    Doubly Occupied:

       1A    -91.984845     2A    -20.531367     3A    -15.617524
       4A    -11.368035     5A    -11.310473     6A    -11.249910
       7A    -11.248526     8A    -11.245369     9A    -11.226324
      10A    -11.221498    11A     -8.985548    12A     -6.666728
      13A     -6.666141    14A     -6.665245    15A     -1.386863
      16A     -1.259544    17A     -1.162245    18A     -1.037505
      19A     -1.012164    20A     -0.974372    21A     -0.912769
      22A     -0.822189    23A     -0.782512    24A     -0.728149
      25A     -0.688357    26A     -0.673082    27A     -0.631032
      28A     -0.609966    29A     -0.591020    30A     -0.581262
      31A     -0.577455    32A     -0.559449    33A     -0.556558
      34A     -0.525179    35A     -0.517133    36A     -0.504004
      37A     -0.475183    38A     -0.440482    39A     -0.432532
      40A     -0.341596    41A     -0.298332

  @DF-RHF Final Energy:  -797.31949136603578

   => Energetics <=

    Nuclear Repulsion Energy =            584.9243622929092226
    One-Electron Energy =               -2254.3507742968331513
    Two-Electron Energy =                 872.1069206378880381
    Total Energy =                       -797.3194913660357770
  Basis Set: (AUG-CC-PVTZ AUX)
    Blend: AUG-CC-PVTZ-RI
    Molecular point group: c1

    Geometry (in Angstrom), charge = 0, multiplicity = 1:

       Center              X                  Y                   Z               Mass
    ------------   -----------------  -----------------  -----------------  -----------------
         S           -0.999212509950    -1.709343173845    -0.012995120858    31.972071174400
         O            2.135205490050     1.643928826155    -0.058124120858    15.994914619570
         N            1.438667490050    -0.543023173845     0.001907879142    14.003074004430
         C           -2.065390509950     0.639741826155     0.012342879142    12.000000000000
         C            0.034312990050    -0.323250973845     0.004944579142    12.000000000000
         C           -0.654164509950     0.853768826155     0.015211879142    12.000000000000
         C           -2.394440509950    -0.693586173845    -0.000468120858    12.000000000000
         C           -3.068949509950     1.756356826155     0.023607879142    12.000000000000
         C            2.401342490050     0.443750826155    -0.023005120858    12.000000000000
         C            3.821495490050    -0.078919173845     0.047539879142    12.000000000000
         H           -0.172982509950     1.822384826155     0.022380879142     1.007825032230
         H           -3.380943509950    -1.140247173845    -0.002226120858     1.007825032230
         H            1.756020490050    -1.504501173845     0.032150879142     1.007825032230
         H           -2.950075509950     2.400249826155    -0.853530120858     1.007825032230
         H           -4.089698509950     1.364379826155     0.020588879142     1.007825032230
         H           -2.949018509950     2.383851826155     0.912414879142     1.007825032230
         H            3.937265490050    -1.054471173845    -0.432225120858     1.007825032230
         H            4.126966490050    -0.166960173845     1.094538879142     1.007825032230
         H            4.474804490050     0.644540826155    -0.440491120858     1.007825032230

  Basis Set: AUG-CC-PVTZ
    Blend: AUG-CC-PVTZ
  Basis Set: (AUG-CC-PVTZ AUX)
    Blend: AUG-CC-PVTZ-JKFIT
	 Reference Energy          =    -797.3194913660357770 [Eh]
	 Singles Energy            =      -0.0000000000000000 [Eh]
	 Same-Spin Energy          =      -0.4852541745515330 [Eh]
	 Opposite-Spin Energy      =      -1.5014098708534738 [Eh]
	 Correlation Energy        =      -1.9866640454050069 [Eh]
	 Total Energy              =    -799.3061554114407272 [Eh]

	 ================> DF-SCS-MP2 Energies <==================
	-----------------------------------------------------------
	 SCS Same-Spin Scale       =       0.3333333333333333 [-]
	 SCS Opposite-Spin Scale   =       1.2000000000000000 [-]
	 SCS Same-Spin Energy      =      -0.1617513915171777 [Eh]
	 SCS Opposite-Spin Energy  =      -1.8016918450241683 [Eh]
	 SCS Correlation Energy    =      -1.9634432365413461 [Eh]
	 SCS Total Energy          =    -799.2829346025771429 [Eh]
	-----------------------------------------------------------

  Dipole Moment: [D]
     X:     0.3316      Y:    -2.5403      Z:     0.1780     Total:     2.5680

*** Psi4 exiting successfully. Buy a developer a beer!
