                               Psi4 1.4a3.dev225

  ==> Input File <==

--------------------------------------------------------------------------
#psi4
#
memory 32 gb

molecule  {
0 1
  S       -1.0989945    -1.6607830    -0.0141140
  O        2.1293390     1.6156530    -0.0602560
  N        1.4328010    -0.5712990    -0.0002240
  C       -2.0712570     0.6114660     0.0102110
  C        0.0482060    -0.3546190     0.0027700
  C       -0.6600310     0.8254930     0.0130800
  C       -2.4003070    -0.7218620    -0.0026000
  C       -3.0748160     1.7280810     0.0214760
  C        2.3954760     0.4154750    -0.0251370
  C        3.8156290    -0.1071950     0.0454080
  H       -0.1788490     1.7941090     0.0202490
  H       -3.3868100    -1.1685230    -0.0043580
  H        1.7501540    -1.5327770     0.0300190
  H       -2.9559420     2.3719740    -0.8556620
  H       -4.0955650     1.3361040     0.0184570
  H       -2.9548850     2.3555760     0.9102830
  H        3.9313990    -1.0827470    -0.4343570
  H        4.1211000    -0.1952360     1.0924070
  H        4.4689380     0.6162650    -0.4426230
units angstrom
no_reorient  #important for SAPT in psi4, default
symmetry c1  #important for SAPT in psi4, default
}

set PROPERTIES_ORIGIN ["COM"]
properties('MP2/aug-cc-pvtz', properties = ['dipole'])
--------------------------------------------------------------------------

    Molecular point group: c1
  Charge       = 0
  Multiplicity = 1
  Basis Set: AUG-CC-PVTZ
    Blend: AUG-CC-PVTZ
  Basis Set: (AUG-CC-PVTZ AUX)
    Blend: AUG-CC-PVTZ-JKFIT

    Orbital Energies [Eh]
    ---------------------

    Doubly Occupied:

       1A    -91.980265     2A    -20.532571     3A    -15.619895
       4A    -11.369617     5A    -11.307899     6A    -11.249577
       7A    -11.240056     8A    -11.238672     9A    -11.222745
      10A    -11.221534    11A     -8.983699    12A     -6.665024
      13A     -6.664453    14A     -6.663349    15A     -1.388539
      16A     -1.264555    17A     -1.177006    18A     -1.035646
      19A     -1.020334    20A     -0.979881    21A     -0.907255
      22A     -0.825341    23A     -0.783708    24A     -0.735298
      25A     -0.685683    26A     -0.675399    27A     -0.633010
      28A     -0.616205    29A     -0.595496    30A     -0.581520
      31A     -0.576001    32A     -0.564615    33A     -0.557516
      34A     -0.524746    35A     -0.515186    36A     -0.509650
      37A     -0.467783    38A     -0.448218    39A     -0.433331
      40A     -0.337202    41A     -0.293634

  @DF-RHF Final Energy:  -797.30952315586728

   => Energetics <=

    Nuclear Repulsion Energy =            588.2314405490006948
    One-Electron Energy =               -2260.8976947163378100
    Two-Electron Energy =                 875.3567310114699467
    Total Energy =                       -797.3095231558672822
  Basis Set: (AUG-CC-PVTZ AUX)
    Blend: AUG-CC-PVTZ-RI
    Molecular point group: c1

    Geometry (in Angstrom), charge = 0, multiplicity = 1:

       Center              X                  Y                   Z               Mass
    ------------   -----------------  -----------------  -----------------  -----------------
         S           -1.075290352587    -1.648112772985    -0.012187714307    31.972071174400
         O            2.153043147413     1.628323227015    -0.058329714307    15.994914619570
         N            1.456505147413    -0.558628772985     0.001702285693    14.003074004430
         C           -2.047552852587     0.624136227015     0.012137285693    12.000000000000
         C            0.071910147413    -0.341948772985     0.004696285693    12.000000000000
         C           -0.636326852587     0.838163227015     0.015006285693    12.000000000000
         C           -2.376602852587    -0.709191772985    -0.000673714307    12.000000000000
         C           -3.051111852587     1.740751227015     0.023402285693    12.000000000000
         C            2.419180147413     0.428145227015    -0.023210714307    12.000000000000
         C            3.839333147413    -0.094524772985     0.047334285693    12.000000000000
         H           -0.155144852587     1.806779227015     0.022175285693     1.007825032230
         H           -3.363105852587    -1.155852772985    -0.002431714307     1.007825032230
         H            1.773858147413    -1.520106772985     0.031945285693     1.007825032230
         H           -2.932237852587     2.384644227015    -0.853735714307     1.007825032230
         H           -4.071860852587     1.348774227015     0.020383285693     1.007825032230
         H           -2.931180852587     2.368246227015     0.912209285693     1.007825032230
         H            3.955103147413    -1.070076772985    -0.432430714307     1.007825032230
         H            4.144804147413    -0.182565772985     1.094333285693     1.007825032230
         H            4.492642147413     0.628935227015    -0.440696714307     1.007825032230

  Basis Set: AUG-CC-PVTZ
    Blend: AUG-CC-PVTZ
  Basis Set: (AUG-CC-PVTZ AUX)
    Blend: AUG-CC-PVTZ-JKFIT
	 Reference Energy          =    -797.3095231558672822 [Eh]
	 Singles Energy            =      -0.0000000000000000 [Eh]
	 Same-Spin Energy          =      -0.4872624937908929 [Eh]
	 Opposite-Spin Energy      =      -1.5016309836640132 [Eh]
	 Correlation Energy        =      -1.9888934774549061 [Eh]
	 Total Energy              =    -799.2984166333221765 [Eh]

	 ================> DF-SCS-MP2 Energies <==================
	-----------------------------------------------------------
	 SCS Same-Spin Scale       =       0.3333333333333333 [-]
	 SCS Opposite-Spin Scale   =       1.2000000000000000 [-]
	 SCS Same-Spin Energy      =      -0.1624208312636310 [Eh]
	 SCS Opposite-Spin Energy  =      -1.8019571803968157 [Eh]
	 SCS Correlation Energy    =      -1.9643780116604468 [Eh]
	 SCS Total Energy          =    -799.2739011675276970 [Eh]
	-----------------------------------------------------------

  Dipole Moment: [D]
     X:     0.4350      Y:    -2.6601      Z:     0.1768     Total:     2.7012

*** Psi4 exiting successfully. Buy a developer a beer!
