                               Psi4 1.4a3.dev225

  ==> Input File <==

--------------------------------------------------------------------------
#psi4
#
memory 32 gb

molecule  {
0 1
  S       -1.0050790    -1.7376190    -0.0151270
  O        2.1293390     1.6156530    -0.0602560
  N        1.4328010    -0.5712990    -0.0002240
  C       -2.0712570     0.6114660     0.0102110
  C        0.0482060    -0.3546190     0.0027700
  C       -0.6600310     0.8254930     0.0130800
  C       -2.4003070    -0.7218620    -0.0026000
  C       -3.0748160     1.7280810     0.0214760
  C        2.3954760     0.4154750    -0.0251370
  C        3.8156290    -0.1071950     0.0454080
  H       -0.1788490     1.7941090     0.0202490
  H       -3.3868100    -1.1685230    -0.0043580
  H        1.7501540    -1.5327770     0.0300190
  H       -2.9559420     2.3719740    -0.8556620
  H       -4.0955650     1.3361040     0.0184570
  H       -2.9548850     2.3555760     0.9102830
  H        3.9313990    -1.0827470    -0.4343570
  H        4.1155165    -0.1936268     1.0732697
  H        4.4689380     0.6162650    -0.4426230
units angstrom
no_reorient  #important for SAPT in psi4, default
symmetry c1  #important for SAPT in psi4, default
}

set PROPERTIES_ORIGIN ["COM"]
properties('MP2/aug-cc-pvtz', properties = ['dipole'])
--------------------------------------------------------------------------

    Molecular point group: c1
  Charge       = 0
  Multiplicity = 1
  Basis Set: AUG-CC-PVTZ
    Blend: AUG-CC-PVTZ
  Basis Set: (AUG-CC-PVTZ AUX)
    Blend: AUG-CC-PVTZ-JKFIT

    Orbital Energies [Eh]
    ---------------------

    Doubly Occupied:

       1A    -91.984390     2A    -20.532937     3A    -15.619210
       4A    -11.369198     5A    -11.311690     6A    -11.249275
       7A    -11.247154     8A    -11.244934     9A    -11.225978
      10A    -11.221995    11A     -8.984873    12A     -6.666037
      13A     -6.665483    14A     -6.664593    15A     -1.388761
      16A     -1.264944    17A     -1.159602    18A     -1.038779
      19A     -1.012812    20A     -0.972123    21A     -0.912919
      22A     -0.826037    23A     -0.785370    24A     -0.727471
      25A     -0.688512    26A     -0.673892    27A     -0.634606
      28A     -0.610275    29A     -0.592860    30A     -0.581314
      31A     -0.577371    32A     -0.561121    33A     -0.559047
      34A     -0.523508    35A     -0.516170    36A     -0.503498
      37A     -0.472986    38A     -0.442489    39A     -0.433600
      40A     -0.340299    41A     -0.295579

  @DF-RHF Final Energy:  -797.31952427298711

   => Energetics <=

    Nuclear Repulsion Energy =            584.9211396171594970
    One-Electron Energy =               -2254.3139475959956144
    Two-Electron Energy =                 872.0732837058490077
    Total Energy =                       -797.3195242729871097
  Basis Set: (AUG-CC-PVTZ AUX)
    Blend: AUG-CC-PVTZ-RI
    Molecular point group: c1

    Geometry (in Angstrom), charge = 0, multiplicity = 1:

       Center              X                  Y                   Z               Mass
    ------------   -----------------  -----------------  -----------------  -----------------
         S           -1.000705583252    -1.709114300671    -0.012867415826    31.972071174400
         O            2.133712416748     1.644157699329    -0.057996415826    15.994914619570
         N            1.437174416748    -0.542794300671     0.002035584174    14.003074004430
         C           -2.066883583252     0.639970699329     0.012470584174    12.000000000000
         C            0.052579416748    -0.326114300671     0.005029584174    12.000000000000
         C           -0.655657583252     0.853997699329     0.015339584174    12.000000000000
         C           -2.395933583252    -0.693357300671    -0.000340415826    12.000000000000
         C           -3.070442583252     1.756585699329     0.023735584174    12.000000000000
         C            2.399849416748     0.443979699329    -0.022877415826    12.000000000000
         C            3.820002416748    -0.078690300671     0.047667584174    12.000000000000
         H           -0.174475583252     1.822613699329     0.022508584174     1.007825032230
         H           -3.382436583252    -1.140018300671    -0.002098415826     1.007825032230
         H            1.754527416748    -1.504272300671     0.032278584174     1.007825032230
         H           -2.951568583252     2.400478699329    -0.853402415826     1.007825032230
         H           -4.091191583252     1.364608699329     0.020716584174     1.007825032230
         H           -2.950511583252     2.384080699329     0.912542584174     1.007825032230
         H            3.935772416748    -1.054242300671    -0.432097415826     1.007825032230
         H            4.119889916748    -0.165122100671     1.075529284174     1.007825032230
         H            4.473311416748     0.644769699329    -0.440363415826     1.007825032230

  Basis Set: AUG-CC-PVTZ
    Blend: AUG-CC-PVTZ
  Basis Set: (AUG-CC-PVTZ AUX)
    Blend: AUG-CC-PVTZ-JKFIT
	 Reference Energy          =    -797.3195242729871097 [Eh]
	 Singles Energy            =      -0.0000000000000000 [Eh]
	 Same-Spin Energy          =      -0.4855288469978287 [Eh]
	 Opposite-Spin Energy      =      -1.5015855900175332 [Eh]
	 Correlation Energy        =      -1.9871144370153619 [Eh]
	 Total Energy              =    -799.3066387100025167 [Eh]

	 ================> DF-SCS-MP2 Energies <==================
	-----------------------------------------------------------
	 SCS Same-Spin Scale       =       0.3333333333333333 [-]
	 SCS Opposite-Spin Scale   =       1.2000000000000000 [-]
	 SCS Same-Spin Energy      =      -0.1618429489992762 [Eh]
	 SCS Opposite-Spin Energy  =      -1.8019027080210397 [Eh]
	 SCS Correlation Energy    =      -1.9637456570203160 [Eh]
	 SCS Total Energy          =    -799.2832699300074637 [Eh]
	-----------------------------------------------------------

  Dipole Moment: [D]
     X:     0.4324      Y:    -2.5283      Z:     0.1810     Total:     2.5714

*** Psi4 exiting successfully. Buy a developer a beer!
