                               Psi4 1.4a3.dev225

  ==> Input File <==

--------------------------------------------------------------------------
#psi4
#
memory 32 gb

molecule  {
0 1
  S       -1.0050790    -1.7376190    -0.0151270
  O        2.1293390     1.6156530    -0.0602560
  N        1.4328010    -0.5712990    -0.0002240
  C       -2.0712570     0.6114660     0.0102110
  C        0.0482060    -0.3546190     0.0027700
  C       -0.6600310     0.8254930     0.0130800
  C       -2.4003070    -0.7218620    -0.0026000
  C       -3.0748160     1.7280810     0.0214760
  C        2.3954760     0.4154750    -0.0251370
  C        3.8156290    -0.1071950     0.0454080
  H       -0.1788490     1.7941090     0.0202490
  H       -3.3868100    -1.1685230    -0.0043580
  H        1.7501540    -1.5327770     0.0300190
  H       -2.9559420     2.3719740    -0.8556620
  H       -4.0955650     1.3361040     0.0184570
  H       -2.9548850     2.3555760     0.9102830
  H        3.9313990    -1.0827470    -0.4343570
  H        4.1266835    -0.1968452     1.1115443
  H        4.4689380     0.6162650    -0.4426230
units angstrom
no_reorient  #important for SAPT in psi4, default
symmetry c1  #important for SAPT in psi4, default
}

set PROPERTIES_ORIGIN ["COM"]
properties('MP2/aug-cc-pvtz', properties = ['dipole'])
--------------------------------------------------------------------------

    Molecular point group: c1
  Charge       = 0
  Multiplicity = 1
  Basis Set: AUG-CC-PVTZ
    Blend: AUG-CC-PVTZ
  Basis Set: (AUG-CC-PVTZ AUX)
    Blend: AUG-CC-PVTZ-JKFIT

    Orbital Energies [Eh]
    ---------------------

    Doubly Occupied:

       1A    -91.984413     2A    -20.533028     3A    -15.619255
       4A    -11.369446     5A    -11.311730     6A    -11.251758
       7A    -11.249297     8A    -11.244954     9A    -11.225992
      10A    -11.222022    11A     -8.984896    12A     -6.666059
      13A     -6.665506    14A     -6.664616    15A     -1.388837
      16A     -1.264988    17A     -1.159611    18A     -1.037622
      19A     -1.011454    20A     -0.971561    21A     -0.912605
      22A     -0.825461    23A     -0.785325    24A     -0.727398
      25A     -0.688047    26A     -0.673766    27A     -0.631302
      28A     -0.610119    29A     -0.592880    30A     -0.580432
      31A     -0.577578    32A     -0.560491    33A     -0.556730
      34A     -0.523534    35A     -0.516191    36A     -0.502720
      37A     -0.473006    38A     -0.442516    39A     -0.433702
      40A     -0.340318    41A     -0.295584

  @DF-RHF Final Energy:  -797.31897587564504

   => Energetics <=

    Nuclear Repulsion Energy =            584.7439061896296835
    One-Electron Energy =               -2253.9722674532436031
    Two-Electron Energy =                 871.9093853879687686
    Total Energy =                       -797.3189758756450374
  Basis Set: (AUG-CC-PVTZ AUX)
    Blend: AUG-CC-PVTZ-RI
    Molecular point group: c1

    Geometry (in Angstrom), charge = 0, multiplicity = 1:

       Center              X                  Y                   Z               Mass
    ------------   -----------------  -----------------  -----------------  -----------------
         S           -1.000778173208    -1.709093379787    -0.013116216002    31.972071174400
         O            2.133639826792     1.644178620213    -0.058245216002    15.994914619570
         N            1.437101826792    -0.542773379787     0.001786783998    14.003074004430
         C           -2.066956173208     0.639991620213     0.012221783998    12.000000000000
         C            0.052506826792    -0.326093379787     0.004780783998    12.000000000000
         C           -0.655730173208     0.854018620213     0.015090783998    12.000000000000
         C           -2.396006173208    -0.693336379787    -0.000589216002    12.000000000000
         C           -3.070515173208     1.756606620213     0.023486783998    12.000000000000
         C            2.399776826792     0.444000620213    -0.023126216002    12.000000000000
         C            3.819929826792    -0.078669379787     0.047418783998    12.000000000000
         H           -0.174548173208     1.822634620213     0.022259783998     1.007825032230
         H           -3.382509173208    -1.139997379787    -0.002347216002     1.007825032230
         H            1.754454826792    -1.504251379787     0.032029783998     1.007825032230
         H           -2.951641173208     2.400499620213    -0.853651216002     1.007825032230
         H           -4.091264173208     1.364629620213     0.020467783998     1.007825032230
         H           -2.950584173208     2.384101620213     0.912293783998     1.007825032230
         H            3.935699826792    -1.054221379787    -0.432346216002     1.007825032230
         H            4.130984326792    -0.168319579787     1.113555083998     1.007825032230
         H            4.473238826792     0.644790620213    -0.440612216002     1.007825032230

  Basis Set: AUG-CC-PVTZ
    Blend: AUG-CC-PVTZ
  Basis Set: (AUG-CC-PVTZ AUX)
    Blend: AUG-CC-PVTZ-JKFIT
	 Reference Energy          =    -797.3189758756450374 [Eh]
	 Singles Energy            =      -0.0000000000000000 [Eh]
	 Same-Spin Energy          =      -0.4855257811193420 [Eh]
	 Opposite-Spin Energy      =      -1.5018141170386989 [Eh]
	 Correlation Energy        =      -1.9873398981580408 [Eh]
	 Total Energy              =    -799.3063157738031350 [Eh]

	 ================> DF-SCS-MP2 Energies <==================
	-----------------------------------------------------------
	 SCS Same-Spin Scale       =       0.3333333333333333 [-]
	 SCS Opposite-Spin Scale   =       1.2000000000000000 [-]
	 SCS Same-Spin Energy      =      -0.1618419270397806 [Eh]
	 SCS Opposite-Spin Energy  =      -1.8021769404464387 [Eh]
	 SCS Correlation Energy    =      -1.9640188674862193 [Eh]
	 SCS Total Energy          =    -799.2829947431312121 [Eh]
	-----------------------------------------------------------

  Dipole Moment: [D]
     X:     0.4268      Y:    -2.5269      Z:     0.1743     Total:     2.5686

*** Psi4 exiting successfully. Buy a developer a beer!
