                               Psi4 1.4a3.dev225

  ==> Input File <==

--------------------------------------------------------------------------
#psi4
#
memory 32 gb

molecule  {
0 1
  S       -1.0050790    -1.7376190    -0.0151270
  O        2.1293390     1.6156530    -0.0602560
  N        1.4328010    -0.5712990    -0.0002240
  C       -2.0712570     0.6114660     0.0102110
  C        0.0482060    -0.3546190     0.0027700
  C       -0.6600310     0.8254930     0.0130800
  C       -2.4003070    -0.7218620    -0.0026000
  C       -3.0748160     1.7280810     0.0214760
  C        2.3954760     0.4154750    -0.0251370
  C        3.8156290    -0.1071950     0.0454080
  H       -0.1788490     1.7941090     0.0202490
  H       -3.3868100    -1.1685230    -0.0043580
  H        1.7501540    -1.5327770     0.0300190
  H       -3.0285008     2.3562631    -0.8737013
  H       -4.0955650     1.3361040     0.0184570
  H       -2.9548850     2.3555760     0.9102830
  H        3.9313990    -1.0827470    -0.4343570
  H        4.1211000    -0.1952360     1.0924070
  H        4.4689380     0.6162650    -0.4426230
units angstrom
no_reorient  #important for SAPT in psi4, default
symmetry c1  #important for SAPT in psi4, default
}

set PROPERTIES_ORIGIN ["COM"]
properties('MP2/aug-cc-pvtz', properties = ['dipole'])
--------------------------------------------------------------------------

    Molecular point group: c1
  Charge       = 0
  Multiplicity = 1
  Basis Set: AUG-CC-PVTZ
    Blend: AUG-CC-PVTZ
  Basis Set: (AUG-CC-PVTZ AUX)
    Blend: AUG-CC-PVTZ-JKFIT

    Orbital Energies [Eh]
    ---------------------

    Doubly Occupied:

       1A    -91.984639     2A    -20.532925     3A    -15.619200
       4A    -11.369273     5A    -11.311638     6A    -11.249740
       7A    -11.249441     8A    -11.245244     9A    -11.225726
      10A    -11.222033    11A     -8.985118    12A     -6.666280
      13A     -6.665727    14A     -6.664839    15A     -1.388745
      16A     -1.264943    17A     -1.159665    18A     -1.037997
      19A     -1.011941    20A     -0.971948    21A     -0.912970
      22A     -0.825763    23A     -0.785455    24A     -0.727536
      25A     -0.688760    26A     -0.673914    27A     -0.632873
      28A     -0.610219    29A     -0.592298    30A     -0.583210
      31A     -0.575196    32A     -0.561558    33A     -0.557880
      34A     -0.522221    35A     -0.514887    36A     -0.503299
      37A     -0.473160    38A     -0.442653    39A     -0.433600
      40A     -0.340710    41A     -0.295703

  @DF-RHF Final Energy:  -797.31887816790015

   => Energetics <=

    Nuclear Repulsion Energy =            584.7474551437944683
    One-Electron Energy =               -2253.9708129302371162
    Two-Electron Energy =                 871.9044796185424957
    Total Energy =                       -797.3188781679001522
  Basis Set: (AUG-CC-PVTZ AUX)
    Blend: AUG-CC-PVTZ-RI
    Molecular point group: c1

    Geometry (in Angstrom), charge = 0, multiplicity = 1:

       Center              X                  Y                   Z               Mass
    ------------   -----------------  -----------------  -----------------  -----------------
         S           -1.000270217071    -1.709001713108    -0.012874553265    31.972071174400
         O            2.134147782929     1.644270286892    -0.058003553265    15.994914619570
         N            1.437609782929    -0.542681713108     0.002028446735    14.003074004430
         C           -2.066448217071     0.640083286892     0.012463446735    12.000000000000
         C            0.053014782929    -0.326001713108     0.005022446735    12.000000000000
         C           -0.655222217071     0.854110286892     0.015332446735    12.000000000000
         C           -2.395498217071    -0.693244713108    -0.000347553265    12.000000000000
         C           -3.070007217071     1.756698286892     0.023728446735    12.000000000000
         C            2.400284782929     0.444092286892    -0.022884553265    12.000000000000
         C            3.820437782929    -0.078577713108     0.047660446735    12.000000000000
         H           -0.174040217071     1.822726286892     0.022501446735     1.007825032230
         H           -3.382001217071    -1.139905713108    -0.002105553265     1.007825032230
         H            1.754962782929    -1.504159713108     0.032271446735     1.007825032230
         H           -3.023692017071     2.384880386892    -0.871448853265     1.007825032230
         H           -4.090756217071     1.364721286892     0.020709446735     1.007825032230
         H           -2.950076217071     2.384193286892     0.912535446735     1.007825032230
         H            3.936207782929    -1.054129713108    -0.432104553265     1.007825032230
         H            4.125908782929    -0.166618713108     1.094659446735     1.007825032230
         H            4.473746782929     0.644882286892    -0.440370553265     1.007825032230

  Basis Set: AUG-CC-PVTZ
    Blend: AUG-CC-PVTZ
  Basis Set: (AUG-CC-PVTZ AUX)
    Blend: AUG-CC-PVTZ-JKFIT
	 Reference Energy          =    -797.3188781679001522 [Eh]
	 Singles Energy            =      -0.0000000000000000 [Eh]
	 Same-Spin Energy          =      -0.4855572912888428 [Eh]
	 Opposite-Spin Energy      =      -1.5017289741515834 [Eh]
	 Correlation Energy        =      -1.9872862654404262 [Eh]
	 Total Energy              =    -799.3061644333405411 [Eh]

	 ================> DF-SCS-MP2 Energies <==================
	-----------------------------------------------------------
	 SCS Same-Spin Scale       =       0.3333333333333333 [-]
	 SCS Opposite-Spin Scale   =       1.2000000000000000 [-]
	 SCS Same-Spin Energy      =      -0.1618524304296143 [Eh]
	 SCS Opposite-Spin Energy  =      -1.8020747689818999 [Eh]
	 SCS Correlation Energy    =      -1.9639271994115142 [Eh]
	 SCS Total Energy          =    -799.2828053673116528 [Eh]
	-----------------------------------------------------------

  Dipole Moment: [D]
     X:     0.4166      Y:    -2.5454      Z:     0.1639     Total:     2.5845

*** Psi4 exiting successfully. Buy a developer a beer!
