                               Psi4 1.4a3.dev225

  ==> Input File <==

--------------------------------------------------------------------------
#psi4
#
memory 32 gb

molecule  {
0 1
  S       -1.0050790    -1.7376190    -0.0151270
  O        2.1293390     1.6156530    -0.0602560
  N        1.4328010    -0.5712990    -0.0002240
  C       -2.0712570     0.6114660     0.0102110
  C        0.0482060    -0.3546190     0.0027700
  C       -0.6600310     0.8254930     0.0130800
  C       -2.4466412    -0.7095668    -0.0024612
  C       -3.0748160     1.7280810     0.0214760
  C        2.3954760     0.4154750    -0.0251370
  C        3.8156290    -0.1071950     0.0454080
  H       -0.1788490     1.7941090     0.0202490
  H       -3.3868100    -1.1685230    -0.0043580
  H        1.7501540    -1.5327770     0.0300190
  H       -2.9559420     2.3719740    -0.8556620
  H       -4.0955650     1.3361040     0.0184570
  H       -2.9548850     2.3555760     0.9102830
  H        3.9313990    -1.0827470    -0.4343570
  H        4.1211000    -0.1952360     1.0924070
  H        4.4689380     0.6162650    -0.4426230
units angstrom
no_reorient  #important for SAPT in psi4, default
symmetry c1  #important for SAPT in psi4, default
}

set PROPERTIES_ORIGIN ["COM"]
properties('MP2/aug-cc-pvtz', properties = ['dipole'])
--------------------------------------------------------------------------

    Molecular point group: c1
  Charge       = 0
  Multiplicity = 1
  Basis Set: AUG-CC-PVTZ
    Blend: AUG-CC-PVTZ
  Basis Set: (AUG-CC-PVTZ AUX)
    Blend: AUG-CC-PVTZ-JKFIT

    Orbital Energies [Eh]
    ---------------------

    Doubly Occupied:

       1A    -91.982684     2A    -20.534039     3A    -15.620436
       4A    -11.370335     5A    -11.314185     6A    -11.250119
       7A    -11.250092     8A    -11.247403     9A    -11.225522
      10A    -11.222439    11A     -8.982530    12A     -6.663708
      13A     -6.663063    14A     -6.662276    15A     -1.389789
      16A     -1.265766    17A     -1.155628    18A     -1.039269
      19A     -1.009429    20A     -0.971551    21A     -0.912870
      22A     -0.826566    23A     -0.789183    24A     -0.730277
      25A     -0.689487    26A     -0.675307    27A     -0.633583
      28A     -0.609525    29A     -0.592804    30A     -0.582681
      31A     -0.580558    32A     -0.563844    33A     -0.558595
      34A     -0.522847    35A     -0.518125    36A     -0.501408
      37A     -0.464156    38A     -0.441433    39A     -0.434487
      40A     -0.339729    41A     -0.297706

  @DF-RHF Final Energy:  -797.31789637705117

   => Energetics <=

    Nuclear Repulsion Energy =            583.8806014778675717
    One-Electron Energy =               -2252.2261322915092023
    Two-Electron Energy =                 871.0276344365905743
    Total Energy =                       -797.3178963770511700
  Basis Set: (AUG-CC-PVTZ AUX)
    Blend: AUG-CC-PVTZ-RI
    Molecular point group: c1

    Geometry (in Angstrom), charge = 0, multiplicity = 1:

       Center              X                  Y                   Z               Mass
    ------------   -----------------  -----------------  -----------------  -----------------
         S           -0.997155651060    -1.710055478118    -0.013002558915    31.972071174400
         O            2.137262348940     1.643216521882    -0.058131558915    15.994914619570
         N            1.440724348940    -0.543735478118     0.001900441085    14.003074004430
         C           -2.063333651060     0.639029521882     0.012335441085    12.000000000000
         C            0.056129348940    -0.327055478118     0.004894441085    12.000000000000
         C           -0.652107651060     0.853056521882     0.015204441085    12.000000000000
         C           -2.438717851060    -0.682003278118    -0.000336758915    12.000000000000
         C           -3.066892651060     1.755644521882     0.023600441085    12.000000000000
         C            2.403399348940     0.443038521882    -0.023012558915    12.000000000000
         C            3.823552348940    -0.079631478118     0.047532441085    12.000000000000
         H           -0.170925651060     1.821672521882     0.022373441085     1.007825032230
         H           -3.378886651060    -1.140959478118    -0.002233558915     1.007825032230
         H            1.758077348940    -1.505213478118     0.032143441085     1.007825032230
         H           -2.948018651060     2.399537521882    -0.853537558915     1.007825032230
         H           -4.087641651060     1.363667521882     0.020581441085     1.007825032230
         H           -2.946961651060     2.383139521882     0.912407441085     1.007825032230
         H            3.939322348940    -1.055183478118    -0.432232558915     1.007825032230
         H            4.129023348940    -0.167672478118     1.094531441085     1.007825032230
         H            4.476861348940     0.643828521882    -0.440498558915     1.007825032230

  Basis Set: AUG-CC-PVTZ
    Blend: AUG-CC-PVTZ
  Basis Set: (AUG-CC-PVTZ AUX)
    Blend: AUG-CC-PVTZ-JKFIT
	 Reference Energy          =    -797.3178963770511700 [Eh]
	 Singles Energy            =      -0.0000000000000000 [Eh]
	 Same-Spin Energy          =      -0.4850054257997046 [Eh]
	 Opposite-Spin Energy      =      -1.5014942881831612 [Eh]
	 Correlation Energy        =      -1.9864997139828660 [Eh]
	 Total Energy              =    -799.3043960910340502 [Eh]

	 ================> DF-SCS-MP2 Energies <==================
	-----------------------------------------------------------
	 SCS Same-Spin Scale       =       0.3333333333333333 [-]
	 SCS Opposite-Spin Scale   =       1.2000000000000000 [-]
	 SCS Same-Spin Energy      =      -0.1616684752665682 [Eh]
	 SCS Opposite-Spin Energy  =      -1.8017931458197933 [Eh]
	 SCS Correlation Energy    =      -1.9634616210863616 [Eh]
	 SCS Total Energy          =    -799.2813579981375369 [Eh]
	-----------------------------------------------------------

  Dipole Moment: [D]
     X:     0.4576      Y:    -2.4537      Z:     0.1787     Total:     2.5024

*** Psi4 exiting successfully. Buy a developer a beer!
