                               Psi4 1.4a3.dev225

  ==> Input File <==

--------------------------------------------------------------------------
#psi4
#
memory 32 gb

molecule  {
0 1
  S       -1.0050790    -1.7376190    -0.0151270
  O        2.1293390     1.6156530    -0.0602560
  N        1.4328010    -0.5712990    -0.0002240
  C       -2.0712570     0.6114660     0.0102110
  C        0.0482060    -0.3546190     0.0027700
  C       -0.6600310     0.8254930     0.0130800
  C       -2.4003070    -0.7218620    -0.0026000
  C       -3.0748160     1.7280810     0.0214760
  C        2.3954760     0.4154750    -0.0251370
  C        3.8156290    -0.1071950     0.0454080
  H       -0.1788490     1.7941090     0.0202490
  H       -3.5690046    -1.2510156    -0.0046827
  H        1.7501540    -1.5327770     0.0300190
  H       -2.9559420     2.3719740    -0.8556620
  H       -4.0955650     1.3361040     0.0184570
  H       -2.9548850     2.3555760     0.9102830
  H        3.9313990    -1.0827470    -0.4343570
  H        4.1211000    -0.1952360     1.0924070
  H        4.4689380     0.6162650    -0.4426230
units angstrom
no_reorient  #important for SAPT in psi4, default
symmetry c1  #important for SAPT in psi4, default
}

set PROPERTIES_ORIGIN ["COM"]
properties('MP2/aug-cc-pvtz', properties = ['dipole'])
--------------------------------------------------------------------------

    Molecular point group: c1
  Charge       = 0
  Multiplicity = 1
  Basis Set: AUG-CC-PVTZ
    Blend: AUG-CC-PVTZ
  Basis Set: (AUG-CC-PVTZ AUX)
    Blend: AUG-CC-PVTZ-JKFIT

    Orbital Energies [Eh]
    ---------------------

    Doubly Occupied:

       1A    -91.986266     2A    -20.533394     3A    -15.619762
       4A    -11.369751     5A    -11.312339     6A    -11.269095
       7A    -11.249771     8A    -11.246417     9A    -11.225771
      10A    -11.223298    11A     -8.986596    12A     -6.667730
      13A     -6.667196    14A     -6.666278    15A     -1.389221
      16A     -1.265527    17A     -1.159760    18A     -1.038287
      19A     -1.012265    20A     -0.968386    21A     -0.911366
      22A     -0.824989    23A     -0.779009    24A     -0.717024
      25A     -0.686802    26A     -0.668004    27A     -0.633295
      28A     -0.609390    29A     -0.592674    30A     -0.581086
      31A     -0.572835    32A     -0.558666    33A     -0.546529
      34A     -0.523835    35A     -0.506077    36A     -0.503668
      37A     -0.473742    38A     -0.443137    39A     -0.434092
      40A     -0.341261    41A     -0.296259

  @DF-RHF Final Energy:  -797.29659749622442

   => Energetics <=

    Nuclear Repulsion Energy =            583.8149832493056692
    One-Electron Energy =               -2252.1014580057294552
    Two-Electron Energy =                 870.9898772601993642
    Total Energy =                       -797.2965974962244218
  Basis Set: (AUG-CC-PVTZ AUX)
    Blend: AUG-CC-PVTZ-RI
    Molecular point group: c1

    Geometry (in Angstrom), charge = 0, multiplicity = 1:

       Center              X                  Y                   Z               Mass
    ------------   -----------------  -----------------  -----------------  -----------------
         S           -0.999557540613    -1.708567605405    -0.012989705235    31.972071174400
         O            2.134860459387     1.644704394595    -0.058118705235    15.994914619570
         N            1.438322459387    -0.542247605405     0.001913294765    14.003074004430
         C           -2.065735540613     0.640517394595     0.012348294765    12.000000000000
         C            0.053727459387    -0.325567605405     0.004907294765    12.000000000000
         C           -0.654509540613     0.854544394595     0.015217294765    12.000000000000
         C           -2.394785540613    -0.692810605405    -0.000462705235    12.000000000000
         C           -3.069294540613     1.757132394595     0.023613294765    12.000000000000
         C            2.400997459387     0.444526394595    -0.022999705235    12.000000000000
         C            3.821150459387    -0.078143605405     0.047545294765    12.000000000000
         H           -0.173327540613     1.823160394595     0.022386294765     1.007825032230
         H           -3.563483140613    -1.221964205405    -0.002545405235     1.007825032230
         H            1.755675459387    -1.503725605405     0.032156294765     1.007825032230
         H           -2.950420540613     2.401025394595    -0.853524705235     1.007825032230
         H           -4.090043540613     1.365155394595     0.020594294765     1.007825032230
         H           -2.949363540613     2.384627394595     0.912420294765     1.007825032230
         H            3.936920459387    -1.053695605405    -0.432219705235     1.007825032230
         H            4.126621459387    -0.166184605405     1.094544294765     1.007825032230
         H            4.474459459387     0.645316394595    -0.440485705235     1.007825032230

  Basis Set: AUG-CC-PVTZ
    Blend: AUG-CC-PVTZ
  Basis Set: (AUG-CC-PVTZ AUX)
    Blend: AUG-CC-PVTZ-JKFIT
	 Reference Energy          =    -797.2965974962244218 [Eh]
	 Singles Energy            =      -0.0000000000000000 [Eh]
	 Same-Spin Energy          =      -0.4861029630260362 [Eh]
	 Opposite-Spin Energy      =      -1.5038836037100092 [Eh]
	 Correlation Energy        =      -1.9899865667360452 [Eh]
	 Total Energy              =    -799.2865840629605145 [Eh]

	 ================> DF-SCS-MP2 Energies <==================
	-----------------------------------------------------------
	 SCS Same-Spin Scale       =       0.3333333333333333 [-]
	 SCS Opposite-Spin Scale   =       1.2000000000000000 [-]
	 SCS Same-Spin Energy      =      -0.1620343210086787 [Eh]
	 SCS Opposite-Spin Energy  =      -1.8046603244520110 [Eh]
	 SCS Correlation Energy    =      -1.9666946454606897 [Eh]
	 SCS Total Energy          =    -799.2632921416851559 [Eh]
	-----------------------------------------------------------

  Dipole Moment: [D]
     X:     0.4483      Y:    -2.5392      Z:     0.1778     Total:     2.5846

*** Psi4 exiting successfully. Buy a developer a beer!
