                               Psi4 1.4a3.dev225

  ==> Input File <==

--------------------------------------------------------------------------
#psi4
#
memory 32 gb

molecule  {
0 1
  S       -1.0050790    -1.7376190    -0.0151270
  O        2.1293390     1.6156530    -0.0602560
  N        1.4328010    -0.5712990    -0.0002240
  C       -2.0712570     0.6114660     0.0102110
  C        0.0482060    -0.3546190     0.0027700
  C       -0.6600310     0.8254930     0.0130800
  C       -2.4003070    -0.7218620    -0.0026000
  C       -3.0748160     1.7280810     0.0214760
  C        2.3954760     0.4154750    -0.0251370
  C        3.8156290    -0.1071950     0.0454080
  H       -0.0898710     1.9732211     0.0215747
  H       -3.3868100    -1.1685230    -0.0043580
  H        1.7501540    -1.5327770     0.0300190
  H       -2.9559420     2.3719740    -0.8556620
  H       -4.0955650     1.3361040     0.0184570
  H       -2.9548850     2.3555760     0.9102830
  H        3.9313990    -1.0827470    -0.4343570
  H        4.1211000    -0.1952360     1.0924070
  H        4.4689380     0.6162650    -0.4426230
units angstrom
no_reorient  #important for SAPT in psi4, default
symmetry c1  #important for SAPT in psi4, default
}

set PROPERTIES_ORIGIN ["COM"]
properties('MP2/aug-cc-pvtz', properties = ['dipole'])
--------------------------------------------------------------------------

    Molecular point group: c1
  Charge       = 0
  Multiplicity = 1
  Basis Set: AUG-CC-PVTZ
    Blend: AUG-CC-PVTZ
  Basis Set: (AUG-CC-PVTZ AUX)
    Blend: AUG-CC-PVTZ-JKFIT

    Orbital Energies [Eh]
    ---------------------

    Doubly Occupied:

       1A    -91.984960     2A    -20.532603     3A    -15.619202
       4A    -11.369530     5A    -11.312192     6A    -11.249921
       7A    -11.249500     8A    -11.245910     9A    -11.239885
      10A    -11.225383    11A     -8.985399    12A     -6.666561
      13A     -6.666004    14A     -6.665103    15A     -1.388890
      16A     -1.264896    17A     -1.159465    18A     -1.038185
      19A     -1.011245    20A     -0.966445    21A     -0.912390
      22A     -0.825133    23A     -0.785169    24A     -0.715298
      25A     -0.687515    26A     -0.663950    27A     -0.632934
      28A     -0.608884    29A     -0.591693    30A     -0.580487
      31A     -0.572695    32A     -0.558415    33A     -0.551638
      34A     -0.516574    35A     -0.510352    36A     -0.503365
      37A     -0.471685    38A     -0.442684    39A     -0.427511
      40A     -0.340351    41A     -0.295841

  @DF-RHF Final Energy:  -797.29600492450368

   => Energetics <=

    Nuclear Repulsion Energy =            583.9423200913687424
    One-Electron Energy =               -2252.4049662213078591
    Two-Electron Energy =                 871.1666412054353259
    Total Energy =                       -797.2960049245036771
  Basis Set: (AUG-CC-PVTZ AUX)
    Blend: AUG-CC-PVTZ-RI
    Molecular point group: c1

    Geometry (in Angstrom), charge = 0, multiplicity = 1:

       Center              X                  Y                   Z               Mass
    ------------   -----------------  -----------------  -----------------  -----------------
         S           -1.001320270743    -1.710268140365    -0.013000433493    31.972071174400
         O            2.133097729257     1.643003859635    -0.058129433493    15.994914619570
         N            1.436559729257    -0.543948140365     0.001902566507    14.003074004430
         C           -2.067498270743     0.638816859635     0.012337566507    12.000000000000
         C            0.051964729257    -0.327268140365     0.004896566507    12.000000000000
         C           -0.656272270743     0.852843859635     0.015206566507    12.000000000000
         C           -2.396548270743    -0.694511140365    -0.000473433493    12.000000000000
         C           -3.071057270743     1.755431859635     0.023602566507    12.000000000000
         C            2.399234729257     0.442825859635    -0.023010433493    12.000000000000
         C            3.819387729257    -0.079844140365     0.047534566507    12.000000000000
         H           -0.086112270743     2.000571959635     0.023701266507     1.007825032230
         H           -3.383051270743    -1.141172140365    -0.002231433493     1.007825032230
         H            1.753912729257    -1.505426140365     0.032145566507     1.007825032230
         H           -2.952183270743     2.399324859635    -0.853535433493     1.007825032230
         H           -4.091806270743     1.363454859635     0.020583566507     1.007825032230
         H           -2.951126270743     2.382926859635     0.912409566507     1.007825032230
         H            3.935157729257    -1.055396140365    -0.432230433493     1.007825032230
         H            4.124858729257    -0.167885140365     1.094533566507     1.007825032230
         H            4.472696729257     0.643615859635    -0.440496433493     1.007825032230

  Basis Set: AUG-CC-PVTZ
    Blend: AUG-CC-PVTZ
  Basis Set: (AUG-CC-PVTZ AUX)
    Blend: AUG-CC-PVTZ-JKFIT
	 Reference Energy          =    -797.2960049245036771 [Eh]
	 Singles Energy            =      -0.0000000000000000 [Eh]
	 Same-Spin Energy          =      -0.4864656361942824 [Eh]
	 Opposite-Spin Energy      =      -1.5039950111589877 [Eh]
	 Correlation Energy        =      -1.9904606473532702 [Eh]
	 Total Energy              =    -799.2864655718569793 [Eh]

	 ================> DF-SCS-MP2 Energies <==================
	-----------------------------------------------------------
	 SCS Same-Spin Scale       =       0.3333333333333333 [-]
	 SCS Opposite-Spin Scale   =       1.2000000000000000 [-]
	 SCS Same-Spin Energy      =      -0.1621552120647608 [Eh]
	 SCS Opposite-Spin Energy  =      -1.8047940133907852 [Eh]
	 SCS Correlation Energy    =      -1.9669492254555458 [Eh]
	 SCS Total Energy          =    -799.2629541499592278 [Eh]
	-----------------------------------------------------------

  Dipole Moment: [D]
     X:     0.4818      Y:    -2.4976      Z:     0.1763     Total:     2.5498

*** Psi4 exiting successfully. Buy a developer a beer!
