                               Psi4 1.4a3.dev225

  ==> Input File <==

--------------------------------------------------------------------------
#psi4
#
memory 32 gb

molecule  {
0 1
  S       -0.9060320    -1.8077171    -0.0160528
  O        2.1293390     1.6156530    -0.0602560
  N        1.4328010    -0.5712990    -0.0002240
  C       -2.0712570     0.6114660     0.0102110
  C        0.0482060    -0.3546190     0.0027700
  C       -0.6600310     0.8254930     0.0130800
  C       -2.4003070    -0.7218620    -0.0026000
  C       -3.0748160     1.7280810     0.0214760
  C        2.3954760     0.4154750    -0.0251370
  C        3.8156290    -0.1071950     0.0454080
  H       -0.1788490     1.7941090     0.0202490
  H       -3.3868100    -1.1685230    -0.0043580
  H        1.7501540    -1.5327770     0.0300190
  H       -2.9559420     2.3719740    -0.8556620
  H       -4.0955650     1.3361040     0.0184570
  H       -2.9548850     2.3555760     0.9102830
  H        3.9313990    -1.0827470    -0.4343570
  H        4.1211000    -0.1952360     1.0924070
  H        4.4689380     0.6162650    -0.4426230
units angstrom
no_reorient  #important for SAPT in psi4, default
symmetry c1  #important for SAPT in psi4, default
}

set PROPERTIES_ORIGIN ["COM"]
properties('MP2/aug-cc-pvtz', properties = ['dipole'])
--------------------------------------------------------------------------

    Molecular point group: c1
  Charge       = 0
  Multiplicity = 1
  Basis Set: AUG-CC-PVTZ
    Blend: AUG-CC-PVTZ
  Basis Set: (AUG-CC-PVTZ AUX)
    Blend: AUG-CC-PVTZ-JKFIT

    Orbital Energies [Eh]
    ---------------------

    Doubly Occupied:

       1A    -91.986716     2A    -20.533057     3A    -15.618121
       4A    -11.368677     5A    -11.314882     6A    -11.258873
       7A    -11.250746     8A    -11.249123     9A    -11.229478
      10A    -11.222526    11A     -8.985439    12A     -6.666619
      13A     -6.665703    14A     -6.665055    15A     -1.388760
      16A     -1.265521    17A     -1.148252    18A     -1.040678
      19A     -1.006718    20A     -0.963736    21A     -0.917493
      22A     -0.825327    23A     -0.787326    24A     -0.721617
      25A     -0.690089    26A     -0.672263    27A     -0.632594
      28A     -0.607260    29A     -0.590585    30A     -0.581687
      31A     -0.579068    32A     -0.559054    33A     -0.556899
      34A     -0.521987    35A     -0.517485    36A     -0.498675
      37A     -0.470403    38A     -0.437136    39A     -0.433179
      40A     -0.345684    41A     -0.295396

  @DF-RHF Final Energy:  -797.31173708833319

   => Energetics <=

    Nuclear Repulsion Energy =            582.0112804156622133
    One-Electron Energy =               -2248.5062574264434261
    Two-Electron Energy =                 869.1832399224480241
    Total Energy =                       -797.3117370883331887
  Basis Set: (AUG-CC-PVTZ AUX)
    Blend: AUG-CC-PVTZ-RI
    Molecular point group: c1

    Geometry (in Angstrom), charge = 0, multiplicity = 1:

       Center              X                  Y                   Z               Mass
    ------------   -----------------  -----------------  -----------------  -----------------
         S           -0.922120109303    -1.764746480798    -0.013726699693    31.972071174400
         O            2.113250890697     1.658623619202    -0.057929899693    15.994914619570
         N            1.416712890697    -0.528328380798     0.002102100307    14.003074004430
         C           -2.087345109303     0.654436619202     0.012537100307    12.000000000000
         C            0.032117890697    -0.311648380798     0.005096100307    12.000000000000
         C           -0.676119109303     0.868463619202     0.015406100307    12.000000000000
         C           -2.416395109303    -0.678891380798    -0.000273899693    12.000000000000
         C           -3.090904109303     1.771051619202     0.023802100307    12.000000000000
         C            2.379387890697     0.458445619202    -0.022810899693    12.000000000000
         C            3.799540890697    -0.064224380798     0.047734100307    12.000000000000
         H           -0.194937109303     1.837079619202     0.022575100307     1.007825032230
         H           -3.402898109303    -1.125552380798    -0.002031899693     1.007825032230
         H            1.734065890697    -1.489806380798     0.032345100307     1.007825032230
         H           -2.972030109303     2.414944619202    -0.853335899693     1.007825032230
         H           -4.111653109303     1.379074619202     0.020783100307     1.007825032230
         H           -2.970973109303     2.398546619202     0.912609100307     1.007825032230
         H            3.915310890697    -1.039776380798    -0.432030899693     1.007825032230
         H            4.105011890697    -0.152265380798     1.094733100307     1.007825032230
         H            4.452849890697     0.659235619202    -0.440296899693     1.007825032230

  Basis Set: AUG-CC-PVTZ
    Blend: AUG-CC-PVTZ
  Basis Set: (AUG-CC-PVTZ AUX)
    Blend: AUG-CC-PVTZ-JKFIT
	 Reference Energy          =    -797.3117370883331887 [Eh]
	 Singles Energy            =      -0.0000000000000000 [Eh]
	 Same-Spin Energy          =      -0.4844472352234001 [Eh]
	 Opposite-Spin Energy      =      -1.5026490643910762 [Eh]
	 Correlation Energy        =      -1.9870962996144761 [Eh]
	 Total Energy              =    -799.2988333879476386 [Eh]

	 ================> DF-SCS-MP2 Energies <==================
	-----------------------------------------------------------
	 SCS Same-Spin Scale       =       0.3333333333333333 [-]
	 SCS Opposite-Spin Scale   =       1.2000000000000000 [-]
	 SCS Same-Spin Energy      =      -0.1614824117411333 [Eh]
	 SCS Opposite-Spin Energy  =      -1.8031788772692914 [Eh]
	 SCS Correlation Energy    =      -1.9646612890104247 [Eh]
	 SCS Total Energy          =    -799.2763983773436394 [Eh]
	-----------------------------------------------------------

  Dipole Moment: [D]
     X:     0.3656      Y:    -2.3726      Z:     0.1790     Total:     2.4073

*** Psi4 exiting successfully. Buy a developer a beer!
