                               Psi4 1.4a3.dev225

  ==> Input File <==

--------------------------------------------------------------------------
#psi4
#
memory 32 gb

molecule  {
0 1
  S       -1.0050790    -1.7376190    -0.0151270
  O        2.1293390     1.6156530    -0.0602560
  N        1.4328010    -0.5712990    -0.0002240
  C       -2.0712570     0.6114660     0.0102110
  C        0.0482060    -0.3546190     0.0027700
  C       -0.6600310     0.8254930     0.0130800
  C       -2.4003070    -0.7218620    -0.0026000
  C       -3.0748160     1.7280810     0.0214760
  C        2.3954760     0.4154750    -0.0251370
  C        3.8156290    -0.1071950     0.0454080
  H       -0.1788490     1.7941090     0.0202490
  H       -3.2046154    -1.0860304    -0.0040333
  H        1.7501540    -1.5327770     0.0300190
  H       -2.9559420     2.3719740    -0.8556620
  H       -4.0955650     1.3361040     0.0184570
  H       -2.9548850     2.3555760     0.9102830
  H        3.9313990    -1.0827470    -0.4343570
  H        4.1211000    -0.1952360     1.0924070
  H        4.4689380     0.6162650    -0.4426230
units angstrom
no_reorient  #important for SAPT in psi4, default
symmetry c1  #important for SAPT in psi4, default
}

set PROPERTIES_ORIGIN ["COM"]
properties('MP2/aug-cc-pvtz', properties = ['dipole'])
--------------------------------------------------------------------------

    Molecular point group: c1
  Charge       = 0
  Multiplicity = 1
  Basis Set: AUG-CC-PVTZ
    Blend: AUG-CC-PVTZ
  Basis Set: (AUG-CC-PVTZ AUX)
    Blend: AUG-CC-PVTZ-JKFIT

    Orbital Energies [Eh]
    ---------------------

    Doubly Occupied:

       1A    -91.983326     2A    -20.532913     3A    -15.619129
       4A    -11.369249     5A    -11.311784     6A    -11.249423
       7A    -11.244671     8A    -11.226457     9A    -11.226337
      10A    -11.221237    11A     -8.983876    12A     -6.665065
      13A     -6.664498    14A     -6.663630    15A     -1.388725
      16A     -1.264861    17A     -1.161191    18A     -1.038956
      19A     -1.013026    20A     -0.980712    21A     -0.916547
      22A     -0.830824    23A     -0.800371    24A     -0.742050
      25A     -0.690910    26A     -0.677638    27A     -0.632834
      28A     -0.612251    29A     -0.594669    30A     -0.586633
      31A     -0.580930    32A     -0.565931    33A     -0.558279
      34A     -0.523667    35A     -0.519605    36A     -0.502905
      37A     -0.472403    38A     -0.442373    39A     -0.433552
      40A     -0.339770    41A     -0.295757

  @DF-RHF Final Energy:  -797.28374784514926

   => Energetics <=

    Nuclear Repulsion Energy =            586.1056278844359895
    One-Electron Energy =               -2256.5208201706318505
    Two-Electron Energy =                 873.1314444410465967
    Total Energy =                       -797.2837478451492643
  Basis Set: (AUG-CC-PVTZ AUX)
    Blend: AUG-CC-PVTZ-RI
    Molecular point group: c1

    Geometry (in Angstrom), charge = 0, multiplicity = 1:

       Center              X                  Y                   Z               Mass
    ------------   -----------------  -----------------  -----------------  -----------------
         S           -1.001926215847    -1.709640075053    -0.012993926594    31.972071174400
         O            2.132491784153     1.643631924947    -0.058122926594    15.994914619570
         N            1.435953784153    -0.543320075053     0.001909073406    14.003074004430
         C           -2.068104215847     0.639444924947     0.012344073406    12.000000000000
         C            0.051358784153    -0.326640075053     0.004903073406    12.000000000000
         C           -0.656878215847     0.853471924947     0.015213073406    12.000000000000
         C           -2.397154215847    -0.693883075053    -0.000466926594    12.000000000000
         C           -3.071663215847     1.756059924947     0.023609073406    12.000000000000
         C            2.398628784153     0.443453924947    -0.023003926594    12.000000000000
         C            3.818781784153    -0.079216075053     0.047541073406    12.000000000000
         H           -0.175696215847     1.822087924947     0.022382073406     1.007825032230
         H           -3.201462615847    -1.058051475053    -0.001900226594     1.007825032230
         H            1.753306784153    -1.504798075053     0.032152073406     1.007825032230
         H           -2.952789215847     2.399952924947    -0.853528926594     1.007825032230
         H           -4.092412215847     1.364082924947     0.020590073406     1.007825032230
         H           -2.951732215847     2.383554924947     0.912416073406     1.007825032230
         H            3.934551784153    -1.054768075053    -0.432223926594     1.007825032230
         H            4.124252784153    -0.167257075053     1.094540073406     1.007825032230
         H            4.472090784153     0.644243924947    -0.440489926594     1.007825032230

  Basis Set: AUG-CC-PVTZ
    Blend: AUG-CC-PVTZ
  Basis Set: (AUG-CC-PVTZ AUX)
    Blend: AUG-CC-PVTZ-JKFIT
	 Reference Energy          =    -797.2837478451492643 [Eh]
	 Singles Energy            =      -0.0000000000000000 [Eh]
	 Same-Spin Energy          =      -0.4852328689503991 [Eh]
	 Opposite-Spin Energy      =      -1.5012461905428869 [Eh]
	 Correlation Energy        =      -1.9864790594932860 [Eh]
	 Total Energy              =    -799.2702269046425272 [Eh]

	 ================> DF-SCS-MP2 Energies <==================
	-----------------------------------------------------------
	 SCS Same-Spin Scale       =       0.3333333333333333 [-]
	 SCS Opposite-Spin Scale   =       1.2000000000000000 [-]
	 SCS Same-Spin Energy      =      -0.1617442896501330 [Eh]
	 SCS Opposite-Spin Energy  =      -1.8014954286514642 [Eh]
	 SCS Correlation Energy    =      -1.9632397183015973 [Eh]
	 SCS Total Energy          =    -799.2469875634508298 [Eh]
	-----------------------------------------------------------

  Dipole Moment: [D]
     X:     0.4527      Y:    -2.5024      Z:     0.1780     Total:     2.5492

*** Psi4 exiting successfully. Buy a developer a beer!
