                               Psi4 1.4a3.dev225

  ==> Input File <==

--------------------------------------------------------------------------
#psi4
#
memory 32 gb

molecule  {
0 1
  S       -1.0050790    -1.7376190    -0.0151270
  O        2.1293390     1.6156530    -0.0602560
  N        1.4328010    -0.5712990    -0.0002240
  C       -2.0712570     0.6114660     0.0102110
  C        0.0482060    -0.3546190     0.0027700
  C       -0.6600310     0.8254930     0.0130800
  C       -2.4003070    -0.7218620    -0.0026000
  C       -3.0614473     1.7132063     0.0213259
  C        2.3954760     0.4154750    -0.0251370
  C        3.8156290    -0.1071950     0.0454080
  H       -0.1788490     1.7941090     0.0202490
  H       -3.3868100    -1.1685230    -0.0043580
  H        1.7501540    -1.5327770     0.0300190
  H       -2.9559420     2.3719740    -0.8556620
  H       -4.0955650     1.3361040     0.0184570
  H       -2.9548850     2.3555760     0.9102830
  H        3.9313990    -1.0827470    -0.4343570
  H        4.1211000    -0.1952360     1.0924070
  H        4.4689380     0.6162650    -0.4426230
units angstrom
no_reorient  #important for SAPT in psi4, default
symmetry c1  #important for SAPT in psi4, default
}

set PROPERTIES_ORIGIN ["COM"]
properties('MP2/aug-cc-pvtz', properties = ['dipole'])
--------------------------------------------------------------------------

    Molecular point group: c1
  Charge       = 0
  Multiplicity = 1
  Basis Set: AUG-CC-PVTZ
    Blend: AUG-CC-PVTZ
  Basis Set: (AUG-CC-PVTZ AUX)
    Blend: AUG-CC-PVTZ-JKFIT

    Orbital Energies [Eh]
    ---------------------

    Doubly Occupied:

       1A    -91.984479     2A    -20.533046     3A    -15.619307
       4A    -11.369383     5A    -11.311833     6A    -11.249516
       7A    -11.249400     8A    -11.244124     9A    -11.226555
      10A    -11.222044    11A     -8.984966    12A     -6.666130
      13A     -6.665575    14A     -6.664686    15A     -1.388861
      16A     -1.265056    17A     -1.160374    18A     -1.039625
      19A     -1.013124    20A     -0.972066    21A     -0.911786
      22A     -0.825720    23A     -0.785584    24A     -0.727765
      25A     -0.689105    26A     -0.674077    27A     -0.632964
      28A     -0.611655    29A     -0.593025    30A     -0.579707
      31A     -0.577000    32A     -0.561387    33A     -0.557364
      34A     -0.523621    35A     -0.515674    36A     -0.502538
      37A     -0.473628    38A     -0.442299    39A     -0.433706
      40A     -0.340022    41A     -0.295610

  @DF-RHF Final Energy:  -797.31882635619581

   => Energetics <=

    Nuclear Repulsion Energy =            585.1967595579120598
    One-Electron Energy =               -2254.8623928311521922
    Two-Electron Energy =                 872.3468069170442050
    Total Energy =                       -797.3188263561958138
  Basis Set: (AUG-CC-PVTZ AUX)
    Blend: AUG-CC-PVTZ-RI
    Molecular point group: c1

    Geometry (in Angstrom), charge = 0, multiplicity = 1:

       Center              X                  Y                   Z               Mass
    ------------   -----------------  -----------------  -----------------  -----------------
         S           -1.001776604095    -1.707952551261    -0.012980198304    31.972071174400
         O            2.132641395905     1.645319448739    -0.058109198304    15.994914619570
         N            1.436103395905    -0.541632551261     0.001922801696    14.003074004430
         C           -2.067954604095     0.641132448739     0.012357801696    12.000000000000
         C            0.051508395905    -0.324952551261     0.004916801696    12.000000000000
         C           -0.656728604095     0.855159448739     0.015226801696    12.000000000000
         C           -2.397004604095    -0.692195551261    -0.000453198304    12.000000000000
         C           -3.058144904095     1.742872748739     0.023472701696    12.000000000000
         C            2.398778395905     0.445141448739    -0.022990198304    12.000000000000
         C            3.818931395905    -0.077528551261     0.047554801696    12.000000000000
         H           -0.175546604095     1.823775448739     0.022395801696     1.007825032230
         H           -3.383507604095    -1.138856551261    -0.002211198304     1.007825032230
         H            1.753456395905    -1.503110551261     0.032165801696     1.007825032230
         H           -2.952639604095     2.401640448739    -0.853515198304     1.007825032230
         H           -4.092262604095     1.365770448739     0.020603801696     1.007825032230
         H           -2.951582604095     2.385242448739     0.912429801696     1.007825032230
         H            3.934701395905    -1.053080551261    -0.432210198304     1.007825032230
         H            4.124402395905    -0.165569551261     1.094553801696     1.007825032230
         H            4.472240395905     0.645931448739    -0.440476198304     1.007825032230

  Basis Set: AUG-CC-PVTZ
    Blend: AUG-CC-PVTZ
  Basis Set: (AUG-CC-PVTZ AUX)
    Blend: AUG-CC-PVTZ-JKFIT
	 Reference Energy          =    -797.3188263561958138 [Eh]
	 Singles Energy            =      -0.0000000000000000 [Eh]
	 Same-Spin Energy          =      -0.4856970621301649 [Eh]
	 Opposite-Spin Energy      =      -1.5018703808653417 [Eh]
	 Correlation Energy        =      -1.9875674429955066 [Eh]
	 Total Energy              =    -799.3063937991913690 [Eh]

	 ================> DF-SCS-MP2 Energies <==================
	-----------------------------------------------------------
	 SCS Same-Spin Scale       =       0.3333333333333333 [-]
	 SCS Opposite-Spin Scale   =       1.2000000000000000 [-]
	 SCS Same-Spin Energy      =      -0.1618990207100550 [Eh]
	 SCS Opposite-Spin Energy  =      -1.8022444570384100 [Eh]
	 SCS Correlation Energy    =      -1.9641434777484650 [Eh]
	 SCS Total Energy          =    -799.2829698339443212 [Eh]
	-----------------------------------------------------------

  Dipole Moment: [D]
     X:     0.4346      Y:    -2.5297      Z:     0.1778     Total:     2.5729

*** Psi4 exiting successfully. Buy a developer a beer!
