                               Psi4 1.4a3.dev225

  ==> Input File <==

--------------------------------------------------------------------------
#psi4
#
memory 32 gb

molecule  {
0 1
  S       -1.0050790    -1.7376190    -0.0151270
  O        2.1293390     1.6156530    -0.0602560
  N        1.4328010    -0.5712990    -0.0002240
  C       -2.0712570     0.6114660     0.0102110
  C        0.0482060    -0.3546190     0.0027700
  C       -0.6600310     0.8254930     0.0130800
  C       -2.3841385    -0.7336330    -0.0027452
  C       -3.0748160     1.7280810     0.0214760
  C        2.3954760     0.4154750    -0.0251370
  C        3.8156290    -0.1071950     0.0454080
  H       -0.1788490     1.7941090     0.0202490
  H       -3.3868100    -1.1685230    -0.0043580
  H        1.7501540    -1.5327770     0.0300190
  H       -2.9559420     2.3719740    -0.8556620
  H       -4.0955650     1.3361040     0.0184570
  H       -2.9548850     2.3555760     0.9102830
  H        3.9313990    -1.0827470    -0.4343570
  H        4.1211000    -0.1952360     1.0924070
  H        4.4689380     0.6162650    -0.4426230
units angstrom
no_reorient  #important for SAPT in psi4, default
symmetry c1  #important for SAPT in psi4, default
}

set PROPERTIES_ORIGIN ["COM"]
properties('MP2/aug-cc-pvtz', properties = ['dipole'])
--------------------------------------------------------------------------

    Molecular point group: c1
  Charge       = 0
  Multiplicity = 1
  Basis Set: AUG-CC-PVTZ
    Blend: AUG-CC-PVTZ
  Basis Set: (AUG-CC-PVTZ AUX)
    Blend: AUG-CC-PVTZ-JKFIT

    Orbital Energies [Eh]
    ---------------------

    Doubly Occupied:

       1A    -91.985248     2A    -20.532588     3A    -15.618823
       4A    -11.368968     5A    -11.310813     6A    -11.249274
       7A    -11.249255     8A    -11.245058     9A    -11.226212
      10A    -11.222009    11A     -8.986026    12A     -6.667187
      13A     -6.666672    14A     -6.665739    15A     -1.388449
      16A     -1.264711    17A     -1.160761    18A     -1.037486
      19A     -1.013597    20A     -0.972222    21A     -0.912167
      22A     -0.825098    23A     -0.784180    24A     -0.726855
      25A     -0.687971    26A     -0.673269    27A     -0.632675
      28A     -0.610467    29A     -0.592900    30A     -0.580843
      31A     -0.576055    32A     -0.559402    33A     -0.557821
      34A     -0.524407    35A     -0.515114    36A     -0.503861
      37A     -0.475926    38A     -0.442829    39A     -0.433370
      40A     -0.340448    41A     -0.293955

  @DF-RHF Final Energy:  -797.31846773910127

   => Energetics <=

    Nuclear Repulsion Energy =            585.1259126275548397
    One-Electron Energy =               -2254.7273383471388115
    Two-Electron Energy =                 872.2829579804825926
    Total Energy =                       -797.3184677391012656
  Basis Set: (AUG-CC-PVTZ AUX)
    Blend: AUG-CC-PVTZ-RI
    Molecular point group: c1

    Geometry (in Angstrom), charge = 0, multiplicity = 1:

       Center              X                  Y                   Z               Mass
    ------------   -----------------  -----------------  -----------------  -----------------
         S           -1.001993306203    -1.708192774968    -0.012980577559    31.972071174400
         O            2.132424693797     1.645079225032    -0.058109577559    15.994914619570
         N            1.435886693797    -0.541872774968     0.001922422441    14.003074004430
         C           -2.068171306203     0.640892225032     0.012357422441    12.000000000000
         C            0.051291693797    -0.325192774968     0.004916422441    12.000000000000
         C           -0.656945306203     0.854919225032     0.015226422441    12.000000000000
         C           -2.381052806203    -0.704206774968    -0.000598777559    12.000000000000
         C           -3.071730306203     1.757507225032     0.023622422441    12.000000000000
         C            2.398561693797     0.444901225032    -0.022990577559    12.000000000000
         C            3.818714693797    -0.077768774968     0.047554422441    12.000000000000
         H           -0.175763306203     1.823535225032     0.022395422441     1.007825032230
         H           -3.383724306203    -1.139096774968    -0.002211577559     1.007825032230
         H            1.753239693797    -1.503350774968     0.032165422441     1.007825032230
         H           -2.952856306203     2.401400225032    -0.853515577559     1.007825032230
         H           -4.092479306203     1.365530225032     0.020603422441     1.007825032230
         H           -2.951799306203     2.385002225032     0.912429422441     1.007825032230
         H            3.934484693797    -1.053320774968    -0.432210577559     1.007825032230
         H            4.124185693797    -0.165809774968     1.094553422441     1.007825032230
         H            4.472023693797     0.645691225032    -0.440476577559     1.007825032230

  Basis Set: AUG-CC-PVTZ
    Blend: AUG-CC-PVTZ
  Basis Set: (AUG-CC-PVTZ AUX)
    Blend: AUG-CC-PVTZ-JKFIT
	 Reference Energy          =    -797.3184677391012656 [Eh]
	 Singles Energy            =      -0.0000000000000000 [Eh]
	 Same-Spin Energy          =      -0.4859152045576604 [Eh]
	 Opposite-Spin Energy      =      -1.5020130252919763 [Eh]
	 Correlation Energy        =      -1.9879282298496368 [Eh]
	 Total Energy              =    -799.3063959689509375 [Eh]

	 ================> DF-SCS-MP2 Energies <==================
	-----------------------------------------------------------
	 SCS Same-Spin Scale       =       0.3333333333333333 [-]
	 SCS Opposite-Spin Scale   =       1.2000000000000000 [-]
	 SCS Same-Spin Energy      =      -0.1619717348525535 [Eh]
	 SCS Opposite-Spin Energy  =      -1.8024156303503716 [Eh]
	 SCS Correlation Energy    =      -1.9643873652029249 [Eh]
	 SCS Total Energy          =    -799.2828551043041898 [Eh]
	-----------------------------------------------------------

  Dipole Moment: [D]
     X:     0.4216      Y:    -2.5582      Z:     0.1775     Total:     2.5988

*** Psi4 exiting successfully. Buy a developer a beer!
