                               Psi4 1.4a3.dev225

  ==> Input File <==

--------------------------------------------------------------------------
#psi4
#
memory 32 gb

molecule  {
0 1
  S       -1.0050790    -1.7376190    -0.0151270
  O        2.1293390     1.6156530    -0.0602560
  N        1.4328010    -0.5712990    -0.0002240
  C       -2.0712570     0.6114660     0.0102110
  C        0.0482060    -0.3546190     0.0027700
  C       -0.6600310     0.8254930     0.0130800
  C       -2.4003070    -0.7218620    -0.0026000
  C       -3.0748160     1.7280810     0.0214760
  C        2.3954760     0.4154750    -0.0251370
  C        3.8156290    -0.1071950     0.0454080
  H       -0.1788490     1.7941090     0.0202490
  H       -3.4323586    -1.1891462    -0.0044392
  H        1.7501540    -1.5327770     0.0300190
  H       -2.9559420     2.3719740    -0.8556620
  H       -4.0955650     1.3361040     0.0184570
  H       -2.9548850     2.3555760     0.9102830
  H        3.9313990    -1.0827470    -0.4343570
  H        4.1211000    -0.1952360     1.0924070
  H        4.4689380     0.6162650    -0.4426230
units angstrom
no_reorient  #important for SAPT in psi4, default
symmetry c1  #important for SAPT in psi4, default
}

set PROPERTIES_ORIGIN ["COM"]
properties('MP2/aug-cc-pvtz', properties = ['dipole'])
--------------------------------------------------------------------------

    Molecular point group: c1
  Charge       = 0
  Multiplicity = 1
  Basis Set: AUG-CC-PVTZ
    Blend: AUG-CC-PVTZ
  Basis Set: (AUG-CC-PVTZ AUX)
    Blend: AUG-CC-PVTZ-JKFIT

    Orbital Energies [Eh]
    ---------------------

    Doubly Occupied:

       1A    -91.984799     2A    -20.533049     3A    -15.619321
       4A    -11.369392     5A    -11.311798     6A    -11.254585
       7A    -11.249520     8A    -11.245264     9A    -11.225912
      10A    -11.222279    11A     -8.985249    12A     -6.666406
      13A     -6.665856    14A     -6.664960    15A     -1.388868
      16A     -1.265060    17A     -1.159512    18A     -1.038124
      19A     -1.012084    20A     -0.970610    21A     -0.912227
      22A     -0.825345    23A     -0.783073    24A     -0.724134
      25A     -0.687733    26A     -0.672442    27A     -0.632968
      28A     -0.609890    29A     -0.592728    30A     -0.580883
      31A     -0.575612    32A     -0.558748    33A     -0.557094
      34A     -0.523558    35A     -0.514573    36A     -0.503249
      37A     -0.473198    38A     -0.442612    39A     -0.433726
      40A     -0.340505    41A     -0.295671

  @DF-RHF Final Energy:  -797.31695222571693

   => Energetics <=

    Nuclear Repulsion Energy =            584.5576440962386187
    One-Electron Energy =               -2253.6039570514626575
    Two-Electron Energy =                 871.7293607295071070
    Total Energy =                       -797.3169522257169319
  Basis Set: (AUG-CC-PVTZ AUX)
    Blend: AUG-CC-PVTZ-RI
    Molecular point group: c1

    Geometry (in Angstrom), charge = 0, multiplicity = 1:

       Center              X                  Y                   Z               Mass
    ------------   -----------------  -----------------  -----------------  -----------------
         S           -1.000445794151    -1.708969781198    -0.012991288082    31.972071174400
         O            2.133972205849     1.644302218802    -0.058120288082    15.994914619570
         N            1.437434205849    -0.542649781198     0.001911711918    14.003074004430
         C           -2.066623794151     0.640115218802     0.012346711918    12.000000000000
         C            0.052839205849    -0.325969781198     0.004905711918    12.000000000000
         C           -0.655397794151     0.854142218802     0.015215711918    12.000000000000
         C           -2.395673794151    -0.693212781198    -0.000464288082    12.000000000000
         C           -3.070182794151     1.756730218802     0.023611711918    12.000000000000
         C            2.400109205849     0.444124218802    -0.023001288082    12.000000000000
         C            3.820262205849    -0.078545781198     0.047543711918    12.000000000000
         H           -0.174215794151     1.822758218802     0.022384711918     1.007825032230
         H           -3.427725394151    -1.160496981198    -0.002303488082     1.007825032230
         H            1.754787205849    -1.504127781198     0.032154711918     1.007825032230
         H           -2.951308794151     2.400623218802    -0.853526288082     1.007825032230
         H           -4.090931794151     1.364753218802     0.020592711918     1.007825032230
         H           -2.950251794151     2.384225218802     0.912418711918     1.007825032230
         H            3.936032205849    -1.054097781198    -0.432221288082     1.007825032230
         H            4.125733205849    -0.166586781198     1.094542711918     1.007825032230
         H            4.473571205849     0.644914218802    -0.440487288082     1.007825032230

  Basis Set: AUG-CC-PVTZ
    Blend: AUG-CC-PVTZ
  Basis Set: (AUG-CC-PVTZ AUX)
    Blend: AUG-CC-PVTZ-JKFIT
	 Reference Energy          =    -797.3169522257169319 [Eh]
	 Singles Energy            =      -0.0000000000000000 [Eh]
	 Same-Spin Energy          =      -0.4856542008842689 [Eh]
	 Opposite-Spin Energy      =      -1.5021024657280200 [Eh]
	 Correlation Energy        =      -1.9877566666122888 [Eh]
	 Total Energy              =    -799.3047088923292449 [Eh]

	 ================> DF-SCS-MP2 Energies <==================
	-----------------------------------------------------------
	 SCS Same-Spin Scale       =       0.3333333333333333 [-]
	 SCS Opposite-Spin Scale   =       1.2000000000000000 [-]
	 SCS Same-Spin Energy      =      -0.1618847336280896 [Eh]
	 SCS Opposite-Spin Energy  =      -1.8025229588736238 [Eh]
	 SCS Correlation Energy    =      -1.9644076925017133 [Eh]
	 SCS Total Energy          =    -799.2813599182186408 [Eh]
	-----------------------------------------------------------

  Dipole Moment: [D]
     X:     0.4306      Y:    -2.5320      Z:     0.1778     Total:     2.5745

*** Psi4 exiting successfully. Buy a developer a beer!
