                               Psi4 1.4a3.dev225

  ==> Input File <==

--------------------------------------------------------------------------
#psi4
#
memory 32 gb

molecule  {
0 1
  S       -1.0050790    -1.7376190    -0.0151270
  O        2.1293390     1.6156530    -0.0602560
  N        1.4328010    -0.5712990    -0.0002240
  C       -2.0712570     0.6114660     0.0102110
  C        0.0482060    -0.3546190     0.0027700
  C       -0.6600310     0.8254930     0.0130800
  C       -2.4235277    -0.7159166    -0.0025325
  C       -3.0748160     1.7280810     0.0214760
  C        2.3954760     0.4154750    -0.0251370
  C        3.8156290    -0.1071950     0.0454080
  H       -0.1788490     1.7941090     0.0202490
  H       -3.3868100    -1.1685230    -0.0043580
  H        1.7501540    -1.5327770     0.0300190
  H       -2.9559420     2.3719740    -0.8556620
  H       -4.0955650     1.3361040     0.0184570
  H       -2.9548850     2.3555760     0.9102830
  H        3.9313990    -1.0827470    -0.4343570
  H        4.1211000    -0.1952360     1.0924070
  H        4.4689380     0.6162650    -0.4426230
units angstrom
no_reorient  #important for SAPT in psi4, default
symmetry c1  #important for SAPT in psi4, default
}

set PROPERTIES_ORIGIN ["COM"]
properties('MP2/aug-cc-pvtz', properties = ['dipole'])
--------------------------------------------------------------------------

    Molecular point group: c1
  Charge       = 0
  Multiplicity = 1
  Basis Set: AUG-CC-PVTZ
    Blend: AUG-CC-PVTZ
  Basis Set: (AUG-CC-PVTZ AUX)
    Blend: AUG-CC-PVTZ-JKFIT

    Orbital Energies [Eh]
    ---------------------

    Doubly Occupied:

       1A    -91.983597     2A    -20.533514     3A    -15.619842
       4A    -11.369834     5A    -11.312954     6A    -11.249785
       7A    -11.249634     8A    -11.246130     9A    -11.225729
      10A    -11.222217    11A     -8.983740    12A     -6.664910
      13A     -6.664314    14A     -6.663476    15A     -1.389298
      16A     -1.265364    17A     -1.157523    18A     -1.038687
      19A     -1.010694    20A     -0.971709    21A     -0.912807
      22A     -0.826136    23A     -0.787242    24A     -0.728701
      25A     -0.688867    26A     -0.674583    27A     -0.633245
      28A     -0.609850    29A     -0.592862    30A     -0.580706
      31A     -0.579837    32A     -0.562436    33A     -0.558386
      34A     -0.522789    35A     -0.517651    36A     -0.502230
      37A     -0.468687    38A     -0.441964    39A     -0.434075
      40A     -0.339999    41A     -0.296651

  @DF-RHF Final Energy:  -797.31929453463442

   => Energetics <=

    Nuclear Repulsion Energy =            584.3498978492402784
    One-Electron Energy =               -2253.1730759785291411
    Two-Electron Energy =                 871.5038835946544395
    Total Energy =                       -797.3192945346344231
  Basis Set: (AUG-CC-PVTZ AUX)
    Blend: AUG-CC-PVTZ-RI
    Molecular point group: c1

    Geometry (in Angstrom), charge = 0, multiplicity = 1:

       Center              X                  Y                   Z               Mass
    ------------   -----------------  -----------------  -----------------  -----------------
         S           -0.998944616051    -1.709564009068    -0.012997040356    31.972071174400
         O            2.135473383949     1.643707990932    -0.058126040356    15.994914619570
         N            1.438935383949    -0.543244009068     0.001905959644    14.003074004430
         C           -2.065122616051     0.639520990932     0.012340959644    12.000000000000
         C            0.054340383949    -0.326564009068     0.004899959644    12.000000000000
         C           -0.653896616051     0.853547990932     0.015209959644    12.000000000000
         C           -2.417393316051    -0.687861609068    -0.000402540356    12.000000000000
         C           -3.068681616051     1.756135990932     0.023605959644    12.000000000000
         C            2.401610383949     0.443529990932    -0.023007040356    12.000000000000
         C            3.821763383949    -0.079140009068     0.047537959644    12.000000000000
         H           -0.172714616051     1.822163990932     0.022378959644     1.007825032230
         H           -3.380675616051    -1.140468009068    -0.002228040356     1.007825032230
         H            1.756288383949    -1.504722009068     0.032148959644     1.007825032230
         H           -2.949807616051     2.400028990932    -0.853532040356     1.007825032230
         H           -4.089430616051     1.364158990932     0.020586959644     1.007825032230
         H           -2.948750616051     2.383630990932     0.912412959644     1.007825032230
         H            3.937533383949    -1.054692009068    -0.432227040356     1.007825032230
         H            4.127234383949    -0.167181009068     1.094536959644     1.007825032230
         H            4.475072383949     0.644319990932    -0.440493040356     1.007825032230

  Basis Set: AUG-CC-PVTZ
    Blend: AUG-CC-PVTZ
  Basis Set: (AUG-CC-PVTZ AUX)
    Blend: AUG-CC-PVTZ-JKFIT
	 Reference Energy          =    -797.3192945346344231 [Eh]
	 Singles Energy            =      -0.0000000000000000 [Eh]
	 Same-Spin Energy          =      -0.4852487221539673 [Eh]
	 Opposite-Spin Energy      =      -1.5015621236555097 [Eh]
	 Correlation Energy        =      -1.9868108458094769 [Eh]
	 Total Energy              =    -799.3061053804439098 [Eh]

	 ================> DF-SCS-MP2 Energies <==================
	-----------------------------------------------------------
	 SCS Same-Spin Scale       =       0.3333333333333333 [-]
	 SCS Opposite-Spin Scale   =       1.2000000000000000 [-]
	 SCS Same-Spin Energy      =      -0.1617495740513224 [Eh]
	 SCS Opposite-Spin Energy  =      -1.8018745483866114 [Eh]
	 SCS Correlation Energy    =      -1.9636241224379338 [Eh]
	 SCS Total Energy          =    -799.2829186570724005 [Eh]
	-----------------------------------------------------------

  Dipole Moment: [D]
     X:     0.4443      Y:    -2.4912      Z:     0.1783     Total:     2.5368

*** Psi4 exiting successfully. Buy a developer a beer!
