                               Psi4 1.4a3.dev225

  ==> Input File <==

--------------------------------------------------------------------------
#psi4
#
memory 32 gb

molecule  {
0 1
  S       -1.0050790    -1.7376190    -0.0151270
  O        2.1293390     1.6156530    -0.0602560
  N        1.4328010    -0.5712990    -0.0002240
  C       -2.0712570     0.6114660     0.0102110
  C        0.0482060    -0.3546190     0.0027700
  C       -0.6600310     0.8254930     0.0130800
  C       -2.4003070    -0.7218620    -0.0026000
  C       -3.0748160     1.7280810     0.0214760
  C        2.3954760     0.4154750    -0.0251370
  C        3.8156290    -0.1071950     0.0454080
  H       -0.1566045     1.8388870     0.0205804
  H       -3.3868100    -1.1685230    -0.0043580
  H        1.7501540    -1.5327770     0.0300190
  H       -2.9559420     2.3719740    -0.8556620
  H       -4.0955650     1.3361040     0.0184570
  H       -2.9548850     2.3555760     0.9102830
  H        3.9313990    -1.0827470    -0.4343570
  H        4.1211000    -0.1952360     1.0924070
  H        4.4689380     0.6162650    -0.4426230
units angstrom
no_reorient  #important for SAPT in psi4, default
symmetry c1  #important for SAPT in psi4, default
}

set PROPERTIES_ORIGIN ["COM"]
properties('MP2/aug-cc-pvtz', properties = ['dipole'])
--------------------------------------------------------------------------

    Molecular point group: c1
  Charge       = 0
  Multiplicity = 1
  Basis Set: AUG-CC-PVTZ
    Blend: AUG-CC-PVTZ
  Basis Set: (AUG-CC-PVTZ AUX)
    Blend: AUG-CC-PVTZ-JKFIT

    Orbital Energies [Eh]
    ---------------------

    Doubly Occupied:

       1A    -91.984508     2A    -20.532874     3A    -15.619203
       4A    -11.369355     5A    -11.311770     6A    -11.249468
       7A    -11.249428     8A    -11.245145     9A    -11.226905
      10A    -11.225846    11A     -8.984981    12A     -6.666144
      13A     -6.665590    14A     -6.664697    15A     -1.388810
      16A     -1.264918    17A     -1.159497    18A     -1.038153
      19A     -1.011815    20A     -0.970071    21A     -0.912638
      22A     -0.825506    23A     -0.785241    24A     -0.723084
      25A     -0.687944    26A     -0.671268    27A     -0.632897
      28A     -0.609754    29A     -0.592415    30A     -0.580763
      31A     -0.575829    32A     -0.559217    33A     -0.557482
      34A     -0.521071    35A     -0.516253    36A     -0.503174
      37A     -0.472753    38A     -0.442532    39A     -0.432520
      40A     -0.340276    41A     -0.295618

  @DF-RHF Final Energy:  -797.31687390716763

   => Energetics <=

    Nuclear Repulsion Energy =            584.5917082282334150
    One-Electron Energy =               -2253.6823371349782974
    Two-Electron Energy =                 871.7737549995771360
    Total Energy =                       -797.3168739071676328
  Basis Set: (AUG-CC-PVTZ AUX)
    Blend: AUG-CC-PVTZ-RI
    Molecular point group: c1

    Geometry (in Angstrom), charge = 0, multiplicity = 1:

       Center              X                  Y                   Z               Mass
    ------------   -----------------  -----------------  -----------------  -----------------
         S           -1.000886476358    -1.709394915100    -0.012993970147    31.972071174400
         O            2.133531523642     1.643877084900    -0.058122970147    15.994914619570
         N            1.436993523642    -0.543074915100     0.001909029853    14.003074004430
         C           -2.067064476358     0.639690084900     0.012344029853    12.000000000000
         C            0.052398523642    -0.326394915100     0.004903029853    12.000000000000
         C           -0.655838476358     0.853717084900     0.015213029853    12.000000000000
         C           -2.396114476358    -0.693637915100    -0.000466970147    12.000000000000
         C           -3.070623476358     1.756305084900     0.023609029853    12.000000000000
         C            2.399668523642     0.443699084900    -0.023003970147    12.000000000000
         C            3.819821523642    -0.078970915100     0.047541029853    12.000000000000
         H           -0.152411976358     1.867111084900     0.022713429853     1.007825032230
         H           -3.382617476358    -1.140298915100    -0.002224970147     1.007825032230
         H            1.754346523642    -1.504552915100     0.032152029853     1.007825032230
         H           -2.951749476358     2.400198084900    -0.853528970147     1.007825032230
         H           -4.091372476358     1.364328084900     0.020590029853     1.007825032230
         H           -2.950692476358     2.383800084900     0.912416029853     1.007825032230
         H            3.935591523642    -1.054522915100    -0.432223970147     1.007825032230
         H            4.125292523642    -0.167011915100     1.094540029853     1.007825032230
         H            4.473130523642     0.644489084900    -0.440489970147     1.007825032230

  Basis Set: AUG-CC-PVTZ
    Blend: AUG-CC-PVTZ
  Basis Set: (AUG-CC-PVTZ AUX)
    Blend: AUG-CC-PVTZ-JKFIT
	 Reference Energy          =    -797.3168739071676328 [Eh]
	 Singles Energy            =      -0.0000000000000000 [Eh]
	 Same-Spin Energy          =      -0.4857309971165795 [Eh]
	 Opposite-Spin Energy      =      -1.5021287749502630 [Eh]
	 Correlation Energy        =      -1.9878597720668425 [Eh]
	 Total Energy              =    -799.3047336792344595 [Eh]

	 ================> DF-SCS-MP2 Energies <==================
	-----------------------------------------------------------
	 SCS Same-Spin Scale       =       0.3333333333333333 [-]
	 SCS Opposite-Spin Scale   =       1.2000000000000000 [-]
	 SCS Same-Spin Energy      =      -0.1619103323721932 [Eh]
	 SCS Opposite-Spin Energy  =      -1.8025545299403154 [Eh]
	 SCS Correlation Energy    =      -1.9644648623125085 [Eh]
	 SCS Total Energy          =    -799.2813387694801577 [Eh]
	-----------------------------------------------------------

  Dipole Moment: [D]
     X:     0.4416      Y:    -2.5185      Z:     0.1775     Total:     2.5631

*** Psi4 exiting successfully. Buy a developer a beer!
