                               Psi4 1.4a3.dev225

  ==> Input File <==

--------------------------------------------------------------------------
#psi4
#
memory 32 gb

molecule  {
0 1
  S       -1.0050790    -1.7376190    -0.0151270
  O        2.1293390     1.6156530    -0.0602560
  N        1.4328010    -0.5712990    -0.0002240
  C       -2.0712570     0.6114660     0.0102110
  C        0.0482060    -0.3546190     0.0027700
  C       -0.6600310     0.8254930     0.0130800
  C       -2.4003070    -0.7218620    -0.0026000
  C       -3.0748160     1.7280810     0.0214760
  C        2.3954760     0.4154750    -0.0251370
  C        3.8156290    -0.1071950     0.0454080
  H       -0.1788490     1.7941090     0.0202490
  H       -3.3868100    -1.1685230    -0.0043580
  H        1.7501540    -1.5327770     0.0300190
  H       -2.9921710     2.3645062    -0.8652218
  H       -4.0955650     1.3361040     0.0184570
  H       -2.9548850     2.3555760     0.9102830
  H        3.9313990    -1.0827470    -0.4343570
  H        4.1211000    -0.1952360     1.0924070
  H        4.4689380     0.6162650    -0.4426230
units angstrom
no_reorient  #important for SAPT in psi4, default
symmetry c1  #important for SAPT in psi4, default
}

set PROPERTIES_ORIGIN ["COM"]
properties('MP2/aug-cc-pvtz', properties = ['dipole'])
--------------------------------------------------------------------------

    Molecular point group: c1
  Charge       = 0
  Multiplicity = 1
  Basis Set: AUG-CC-PVTZ
    Blend: AUG-CC-PVTZ
  Basis Set: (AUG-CC-PVTZ AUX)
    Blend: AUG-CC-PVTZ-JKFIT

    Orbital Energies [Eh]
    ---------------------

    Doubly Occupied:

       1A    -91.984521     2A    -20.532951     3A    -15.619214
       4A    -11.369295     5A    -11.311672     6A    -11.249517
       7A    -11.249455     8A    -11.245089     9A    -11.225850
      10A    -11.222019    11A     -8.985002    12A     -6.666165
      13A     -6.665612    14A     -6.664722    15A     -1.388770
      16A     -1.264953    17A     -1.159633    18A     -1.038071
      19A     -1.012021    20A     -0.971891    21A     -0.912850
      22A     -0.825748    23A     -0.785396    24A     -0.727481
      25A     -0.688494    26A     -0.673859    27A     -0.632887
      28A     -0.610197    29A     -0.592552    30A     -0.581943
      31A     -0.576370    32A     -0.561083    33A     -0.558064
      34A     -0.522764    35A     -0.515674    36A     -0.503270
      37A     -0.473094    38A     -0.442584    39A     -0.433624
      40A     -0.340516    41A     -0.295644

  @DF-RHF Final Energy:  -797.31932493069098

   => Energetics <=

    Nuclear Repulsion Energy =            584.7885116078437022
    One-Electron Energy =               -2254.0546395703431699
    Two-Electron Energy =                 871.9468030318084857
    Total Energy =                       -797.3193249306909820
  Basis Set: (AUG-CC-PVTZ AUX)
    Blend: AUG-CC-PVTZ-RI
    Molecular point group: c1

    Geometry (in Angstrom), charge = 0, multiplicity = 1:

       Center              X                  Y                   Z               Mass
    ------------   -----------------  -----------------  -----------------  -----------------
         S           -1.000506375270    -1.709055296548    -0.012929673399    31.972071174400
         O            2.133911624730     1.644216703452    -0.058058673399    15.994914619570
         N            1.437373624730    -0.542735296548     0.001973326601    14.003074004430
         C           -2.066684375270     0.640029703452     0.012408326601    12.000000000000
         C            0.052778624730    -0.326055296548     0.004967326601    12.000000000000
         C           -0.655458375270     0.854056703452     0.015277326601    12.000000000000
         C           -2.395734375270    -0.693298296548    -0.000402673399    12.000000000000
         C           -3.070243375270     1.756644703452     0.023673326601    12.000000000000
         C            2.400048624730     0.444038703452    -0.022939673399    12.000000000000
         C            3.820201624730    -0.078631296548     0.047605326601    12.000000000000
         H           -0.174276375270     1.822672703452     0.022446326601     1.007825032230
         H           -3.382237375270    -1.139959296548    -0.002160673399     1.007825032230
         H            1.754726624730    -1.504213296548     0.032216326601     1.007825032230
         H           -2.987598375270     2.393069903452    -0.863024473399     1.007825032230
         H           -4.090992375270     1.364667703452     0.020654326601     1.007825032230
         H           -2.950312375270     2.384139703452     0.912480326601     1.007825032230
         H            3.935971624730    -1.054183296548    -0.432159673399     1.007825032230
         H            4.125672624730    -0.166672296548     1.094604326601     1.007825032230
         H            4.473510624730     0.644828703452    -0.440425673399     1.007825032230

  Basis Set: AUG-CC-PVTZ
    Blend: AUG-CC-PVTZ
  Basis Set: (AUG-CC-PVTZ AUX)
    Blend: AUG-CC-PVTZ-JKFIT
	 Reference Energy          =    -797.3193249306909820 [Eh]
	 Singles Energy            =      -0.0000000000000000 [Eh]
	 Same-Spin Energy          =      -0.4855349412717394 [Eh]
	 Opposite-Spin Energy      =      -1.5017032251417728 [Eh]
	 Correlation Energy        =      -1.9872381664135121 [Eh]
	 Total Energy              =    -799.3065630971044584 [Eh]

	 ================> DF-SCS-MP2 Energies <==================
	-----------------------------------------------------------
	 SCS Same-Spin Scale       =       0.3333333333333333 [-]
	 SCS Opposite-Spin Scale   =       1.2000000000000000 [-]
	 SCS Same-Spin Energy      =      -0.1618449804239131 [Eh]
	 SCS Opposite-Spin Energy  =      -1.8020438701701273 [Eh]
	 SCS Correlation Energy    =      -1.9638888505940404 [Eh]
	 SCS Total Energy          =    -799.2832137812849851 [Eh]
	-----------------------------------------------------------

  Dipole Moment: [D]
     X:     0.4235      Y:    -2.5364      Z:     0.1706     Total:     2.5771

*** Psi4 exiting successfully. Buy a developer a beer!
