                               Psi4 1.4a3.dev225

  ==> Input File <==

--------------------------------------------------------------------------
#psi4
#
memory 32 gb

molecule  {
0 1
  S       -1.0050790    -1.7376190    -0.0151270
  O        2.1293390     1.6156530    -0.0602560
  N        1.4328010    -0.5712990    -0.0002240
  C       -2.0712570     0.6114660     0.0102110
  C        0.0482060    -0.3546190     0.0027700
  C       -0.6600310     0.8254930     0.0130800
  C       -2.4003070    -0.7218620    -0.0026000
  C       -3.0748160     1.7280810     0.0214760
  C        2.3954760     0.4154750    -0.0251370
  C        3.8156290    -0.1071950     0.0454080
  H       -0.1788490     1.7941090     0.0202490
  H       -3.3868100    -1.1685230    -0.0043580
  H        1.7501540    -1.5327770     0.0300190
  H       -2.9198578     2.3786573    -0.8450335
  H       -4.0955650     1.3361040     0.0184570
  H       -2.9548850     2.3555760     0.9102830
  H        3.9313990    -1.0827470    -0.4343570
  H        4.1211000    -0.1952360     1.0924070
  H        4.4689380     0.6162650    -0.4426230
units angstrom
no_reorient  #important for SAPT in psi4, default
symmetry c1  #important for SAPT in psi4, default
}

set PROPERTIES_ORIGIN ["COM"]
properties('MP2/aug-cc-pvtz', properties = ['dipole'])
--------------------------------------------------------------------------

    Molecular point group: c1
  Charge       = 0
  Multiplicity = 1
  Basis Set: AUG-CC-PVTZ
    Blend: AUG-CC-PVTZ
  Basis Set: (AUG-CC-PVTZ AUX)
    Blend: AUG-CC-PVTZ-JKFIT

    Orbital Energies [Eh]
    ---------------------

    Doubly Occupied:

       1A    -91.984278     2A    -20.533008     3A    -15.619247
       4A    -11.369343     5A    -11.311749     6A    -11.249485
       7A    -11.249044     8A    -11.244808     9A    -11.226129
      10A    -11.221998    11A     -8.984762    12A     -6.665927
      13A     -6.665372    14A     -6.664482    15A     -1.388823
      16A     -1.264976    17A     -1.159580    18A     -1.038262
      19A     -1.012227    20A     -0.971786    21A     -0.912690
      22A     -0.825731    23A     -0.785301    24A     -0.727385
      25A     -0.688058    26A     -0.673791    27A     -0.632916
      28A     -0.610219    29A     -0.593247    30A     -0.580351
      31A     -0.578085    32A     -0.560268    33A     -0.557998
      34A     -0.524429    35A     -0.516440    36A     -0.502896
      37A     -0.472865    38A     -0.442406    39A     -0.433675
      40A     -0.340088    41A     -0.295512

  @DF-RHF Final Energy:  -797.31939294624863

   => Energetics <=

    Nuclear Repulsion Energy =            584.8763456016069995
    One-Electron Energy =               -2254.2322029441425002
    Two-Electron Energy =                 872.0364643962868740
    Total Energy =                       -797.3193929462486267
  Basis Set: (AUG-CC-PVTZ AUX)
    Blend: AUG-CC-PVTZ-RI
    Molecular point group: c1

    Geometry (in Angstrom), charge = 0, multiplicity = 1:

       Center              X                  Y                   Z               Mass
    ------------   -----------------  -----------------  -----------------  -----------------
         S           -1.000976439932    -1.709147284346    -0.013060905406    31.972071174400
         O            2.133441560068     1.644124715654    -0.058189905406    15.994914619570
         N            1.436903560068    -0.542827284346     0.001842094594    14.003074004430
         C           -2.067154439932     0.639937715654     0.012277094594    12.000000000000
         C            0.052308560068    -0.326147284346     0.004836094594    12.000000000000
         C           -0.655928439932     0.853964715654     0.015146094594    12.000000000000
         C           -2.396204439932    -0.693390284346    -0.000533905406    12.000000000000
         C           -3.070713439932     1.756552715654     0.023542094594    12.000000000000
         C            2.399578560068     0.443946715654    -0.023070905406    12.000000000000
         C            3.819731560068    -0.078723284346     0.047474094594    12.000000000000
         H           -0.174746439932     1.822580715654     0.022315094594     1.007825032230
         H           -3.382707439932    -1.140051284346    -0.002291905406     1.007825032230
         H            1.754256560068    -1.504305284346     0.032085094594     1.007825032230
         H           -2.915755239932     2.407129015654    -0.842967405406     1.007825032230
         H           -4.091462439932     1.364575715654     0.020523094594     1.007825032230
         H           -2.950782439932     2.384047715654     0.912349094594     1.007825032230
         H            3.935501560068    -1.054275284346    -0.432290905406     1.007825032230
         H            4.125202560068    -0.166764284346     1.094473094594     1.007825032230
         H            4.473040560068     0.644736715654    -0.440556905406     1.007825032230

  Basis Set: AUG-CC-PVTZ
    Blend: AUG-CC-PVTZ
  Basis Set: (AUG-CC-PVTZ AUX)
    Blend: AUG-CC-PVTZ-JKFIT
	 Reference Energy          =    -797.3193929462486267 [Eh]
	 Singles Energy            =      -0.0000000000000000 [Eh]
	 Same-Spin Energy          =      -0.4855318761485307 [Eh]
	 Opposite-Spin Energy      =      -1.5017026624887915 [Eh]
	 Correlation Energy        =      -1.9872345386373222 [Eh]
	 Total Energy              =    -799.3066274848858939 [Eh]

	 ================> DF-SCS-MP2 Energies <==================
	-----------------------------------------------------------
	 SCS Same-Spin Scale       =       0.3333333333333333 [-]
	 SCS Opposite-Spin Scale   =       1.2000000000000000 [-]
	 SCS Same-Spin Energy      =      -0.1618439587161769 [Eh]
	 SCS Opposite-Spin Energy  =      -1.8020431949865496 [Eh]
	 SCS Correlation Energy    =      -1.9638871537027265 [Eh]
	 SCS Total Energy          =    -799.2832800999512983 [Eh]
	-----------------------------------------------------------

  Dipole Moment: [D]
     X:     0.4355      Y:    -2.5193      Z:     0.1855     Total:     2.5634

*** Psi4 exiting successfully. Buy a developer a beer!
