                               Psi4 1.4a3.dev225

  ==> Input File <==

--------------------------------------------------------------------------
#psi4
#
memory 32 gb

molecule  {
0 1
  S       -1.0050790    -1.7376190    -0.0151270
  O        2.1293390     1.6156530    -0.0602560
  N        1.4328010    -0.5712990    -0.0002240
  C       -2.0712570     0.6114660     0.0102110
  C        0.0482060    -0.3546190     0.0027700
  C       -0.6600310     0.8254930     0.0130800
  C       -2.4003070    -0.7218620    -0.0026000
  C       -3.0748160     1.7280810     0.0214760
  C        2.4062960     0.3666807    -0.0237092
  C        3.8156290    -0.1071950     0.0454080
  H       -0.1788490     1.7941090     0.0202490
  H       -3.3868100    -1.1685230    -0.0043580
  H        1.7501540    -1.5327770     0.0300190
  H       -2.9559420     2.3719740    -0.8556620
  H       -4.0955650     1.3361040     0.0184570
  H       -2.9548850     2.3555760     0.9102830
  H        3.9313990    -1.0827470    -0.4343570
  H        4.1211000    -0.1952360     1.0924070
  H        4.4689380     0.6162650    -0.4426230
units angstrom
no_reorient  #important for SAPT in psi4, default
symmetry c1  #important for SAPT in psi4, default
}

set PROPERTIES_ORIGIN ["COM"]
properties('MP2/aug-cc-pvtz', properties = ['dipole'])
--------------------------------------------------------------------------

    Molecular point group: c1
  Charge       = 0
  Multiplicity = 1
  Basis Set: AUG-CC-PVTZ
    Blend: AUG-CC-PVTZ
  Basis Set: (AUG-CC-PVTZ AUX)
    Blend: AUG-CC-PVTZ-JKFIT

    Orbital Energies [Eh]
    ---------------------

    Doubly Occupied:

       1A    -91.986830     2A    -20.522085     3A    -15.625755
       4A    -11.368965     5A    -11.313628     6A    -11.251972
       7A    -11.250531     8A    -11.246371     9A    -11.226894
      10A    -11.224593    11A     -8.987247    12A     -6.668405
      13A     -6.667861    14A     -6.666966    15A     -1.363153
      16A     -1.263179    17A     -1.162822    18A     -1.043740
      19A     -1.015967    20A     -0.974711    21A     -0.916382
      22A     -0.831831    23A     -0.788410    24A     -0.727348
      25A     -0.690242    26A     -0.671445    27A     -0.633987
      28A     -0.609492    29A     -0.582295    30A     -0.581521
      31A     -0.574539    32A     -0.564403    33A     -0.560156
      34A     -0.523661    35A     -0.517507    36A     -0.496649
      37A     -0.474581    38A     -0.433064    39A     -0.428470
      40A     -0.341681    41A     -0.298729

  @DF-RHF Final Energy:  -797.31161913161293

   => Energetics <=

    Nuclear Repulsion Energy =            584.6347322990786779
    One-Electron Energy =               -2253.7365644079786762
    Two-Electron Energy =                 871.7902129772870694
    Total Energy =                       -797.3116191316129289
  Basis Set: (AUG-CC-PVTZ AUX)
    Blend: AUG-CC-PVTZ-RI
    Molecular point group: c1

    Geometry (in Angstrom), charge = 0, multiplicity = 1:

       Center              X                  Y                   Z               Mass
    ------------   -----------------  -----------------  -----------------  -----------------
         S           -1.001579336910    -1.705327203438    -0.013102326404    31.972071174400
         O            2.132838663090     1.647944796562    -0.058231326404    15.994914619570
         N            1.436300663090    -0.539007203438     0.001800673596    14.003074004430
         C           -2.067757336910     0.643757796562     0.012235673596    12.000000000000
         C            0.051705663090    -0.322327203438     0.004794673596    12.000000000000
         C           -0.656531336910     0.857784796562     0.015104673596    12.000000000000
         C           -2.396807336910    -0.689570203438    -0.000575326404    12.000000000000
         C           -3.071316336910     1.760372796562     0.023500673596    12.000000000000
         C            2.409795663090     0.398972496562    -0.021684526404    12.000000000000
         C            3.819128663090    -0.074903203438     0.047432673596    12.000000000000
         H           -0.175349336910     1.826400796562     0.022273673596     1.007825032230
         H           -3.383310336910    -1.136231203438    -0.002333326404     1.007825032230
         H            1.753653663090    -1.500485203438     0.032043673596     1.007825032230
         H           -2.952442336910     2.404265796562    -0.853637326404     1.007825032230
         H           -4.092065336910     1.368395796562     0.020481673596     1.007825032230
         H           -2.951385336910     2.387867796562     0.912307673596     1.007825032230
         H            3.934898663090    -1.050455203438    -0.432332326404     1.007825032230
         H            4.124599663090    -0.162944203438     1.094431673596     1.007825032230
         H            4.472437663090     0.648556796562    -0.440598326404     1.007825032230

  Basis Set: AUG-CC-PVTZ
    Blend: AUG-CC-PVTZ
  Basis Set: (AUG-CC-PVTZ AUX)
    Blend: AUG-CC-PVTZ-JKFIT
	 Reference Energy          =    -797.3116191316129289 [Eh]
	 Singles Energy            =      -0.0000000000000000 [Eh]
	 Same-Spin Energy          =      -0.4867461259976568 [Eh]
	 Opposite-Spin Energy      =      -1.5040193671721649 [Eh]
	 Correlation Energy        =      -1.9907654931698215 [Eh]
	 Total Energy              =    -799.3023846247828033 [Eh]

	 ================> DF-SCS-MP2 Energies <==================
	-----------------------------------------------------------
	 SCS Same-Spin Scale       =       0.3333333333333333 [-]
	 SCS Opposite-Spin Scale   =       1.2000000000000000 [-]
	 SCS Same-Spin Energy      =      -0.1622487086658856 [Eh]
	 SCS Opposite-Spin Energy  =      -1.8048232406065978 [Eh]
	 SCS Correlation Energy    =      -1.9670719492724833 [Eh]
	 SCS Total Energy          =    -799.2786910808854373 [Eh]
	-----------------------------------------------------------

  Dipole Moment: [D]
     X:     0.2428      Y:    -2.8427      Z:     0.1932     Total:     2.8596

*** Psi4 exiting successfully. Buy a developer a beer!
