                               Psi4 1.4a3.dev225

  ==> Input File <==

--------------------------------------------------------------------------
#psi4
#
memory 32 gb

molecule  {
0 1
  S       -1.0050790    -1.7376190    -0.0151270
  O        2.1293390     1.6156530    -0.0602560
  N        1.4328010    -0.5712990    -0.0002240
  C       -2.0712570     0.6114660     0.0102110
  C        0.0482060    -0.3546190     0.0027700
  C       -0.6600310     0.8254930     0.0130800
  C       -2.4003070    -0.7218620    -0.0026000
  C       -3.0748160     1.7280810     0.0214760
  C        2.3954760     0.4154750    -0.0251370
  C        3.8156290    -0.1071950     0.0454080
  H       -0.1788490     1.7941090     0.0202490
  H       -3.3868100    -1.1685230    -0.0043580
  H        1.7501540    -1.5327770     0.0300190
  H       -2.9559420     2.3719740    -0.8556620
  H       -4.0955650     1.3361040     0.0184570
  H       -2.9548850     2.3555760     0.9102830
  H        3.9313990    -1.0827470    -0.4343570
  H        4.1071413    -0.1912129     1.0445638
  H        4.4689380     0.6162650    -0.4426230
units angstrom
no_reorient  #important for SAPT in psi4, default
symmetry c1  #important for SAPT in psi4, default
}

set PROPERTIES_ORIGIN ["COM"]
properties('MP2/aug-cc-pvtz', properties = ['dipole'])
--------------------------------------------------------------------------

    Molecular point group: c1
  Charge       = 0
  Multiplicity = 1
  Basis Set: AUG-CC-PVTZ
    Blend: AUG-CC-PVTZ
  Basis Set: (AUG-CC-PVTZ AUX)
    Blend: AUG-CC-PVTZ-JKFIT

    Orbital Energies [Eh]
    ---------------------

    Doubly Occupied:

       1A    -91.984379     2A    -20.532888     3A    -15.619189
       4A    -11.369031     5A    -11.311666     6A    -11.249265
       7A    -11.244924     8A    -11.243634     9A    -11.225971
      10A    -11.221983    11A     -8.984862    12A     -6.666025
      13A     -6.665472    14A     -6.664582    15A     -1.388720
      16A     -1.264922    17A     -1.159603    18A     -1.039894
      19A     -1.013907    20A     -0.972569    21A     -0.913179
      22A     -0.826531    23A     -0.785418    24A     -0.727552
      25A     -0.688976    26A     -0.674049    27A     -0.637336
      28A     -0.610391    29A     -0.592880    30A     -0.582039
      31A     -0.577238    32A     -0.562575    33A     -0.559464
      34A     -0.523494    35A     -0.516159    36A     -0.503994
      37A     -0.472976    38A     -0.442476    39A     -0.433538
      40A     -0.340290    41A     -0.295582

  @DF-RHF Final Energy:  -797.31851152949400

   => Energetics <=

    Nuclear Repulsion Energy =            585.0597925388906333
    One-Electron Energy =               -2254.5773665996966884
    Two-Electron Energy =                 872.1990625313120518
    Total Energy =                       -797.3185115294940033
  Basis Set: (AUG-CC-PVTZ AUX)
    Blend: AUG-CC-PVTZ-RI
    Molecular point group: c1

    Geometry (in Angstrom), charge = 0, multiplicity = 1:

       Center              X                  Y                   Z               Mass
    ------------   -----------------  -----------------  -----------------  -----------------
         S           -1.000651141109    -1.709129991984    -0.012680816019    31.972071174400
         O            2.133766858891     1.644142008016    -0.057809816019    15.994914619570
         N            1.437228858891    -0.542809991984     0.002222183981    14.003074004430
         C           -2.066829141109     0.639955008016     0.012657183981    12.000000000000
         C            0.052633858891    -0.326129991984     0.005216183981    12.000000000000
         C           -0.655603141109     0.853982008016     0.015526183981    12.000000000000
         C           -2.395879141109    -0.693372991984    -0.000153816019    12.000000000000
         C           -3.070388141109     1.756570008016     0.023922183981    12.000000000000
         C            2.399903858891     0.443964008016    -0.022690816019    12.000000000000
         C            3.820056858891    -0.078705991984     0.047854183981    12.000000000000
         H           -0.174421141109     1.822598008016     0.022695183981     1.007825032230
         H           -3.382382141109    -1.140033991984    -0.001911816019     1.007825032230
         H            1.754581858891    -1.504287991984     0.032465183981     1.007825032230
         H           -2.951514141109     2.400463008016    -0.853215816019     1.007825032230
         H           -4.091137141109     1.364593008016     0.020903183981     1.007825032230
         H           -2.950457141109     2.384065008016     0.912729183981     1.007825032230
         H            3.935826858891    -1.054257991984    -0.431910816019     1.007825032230
         H            4.111569158891    -0.162723891984     1.047009983981     1.007825032230
         H            4.473365858891     0.644754008016    -0.440176816019     1.007825032230

  Basis Set: AUG-CC-PVTZ
    Blend: AUG-CC-PVTZ
  Basis Set: (AUG-CC-PVTZ AUX)
    Blend: AUG-CC-PVTZ-JKFIT
	 Reference Energy          =    -797.3185115294940033 [Eh]
	 Singles Energy            =      -0.0000000000000000 [Eh]
	 Same-Spin Energy          =      -0.4855360710727032 [Eh]
	 Opposite-Spin Energy      =      -1.5014433736241108 [Eh]
	 Correlation Energy        =      -1.9869794446968141 [Eh]
	 Total Energy              =    -799.3054909741907750 [Eh]

	 ================> DF-SCS-MP2 Energies <==================
	-----------------------------------------------------------
	 SCS Same-Spin Scale       =       0.3333333333333333 [-]
	 SCS Opposite-Spin Scale   =       1.2000000000000000 [-]
	 SCS Same-Spin Energy      =      -0.1618453570242344 [Eh]
	 SCS Opposite-Spin Energy  =      -1.8017320483489330 [Eh]
	 SCS Correlation Energy    =      -1.9635774053731674 [Eh]
	 SCS Total Energy          =    -799.2820889348671471 [Eh]
	-----------------------------------------------------------

  Dipole Moment: [D]
     X:     0.4354      Y:    -2.5293      Z:     0.1850     Total:     2.5731

*** Psi4 exiting successfully. Buy a developer a beer!
