                               Psi4 1.4a3.dev225

  ==> Input File <==

--------------------------------------------------------------------------
#psi4
#
memory 32 gb

molecule  {
0 1
  S       -1.0050790    -1.7376190    -0.0151270
  O        2.1293390     1.6156530    -0.0602560
  N        1.4328010    -0.5712990    -0.0002240
  C       -2.0712570     0.6114660     0.0102110
  C        0.0482060    -0.3546190     0.0027700
  C       -0.6600310     0.8254930     0.0130800
  C       -2.2386217    -0.8395725    -0.0040517
  C       -3.0748160     1.7280810     0.0214760
  C        2.3954760     0.4154750    -0.0251370
  C        3.8156290    -0.1071950     0.0454080
  H       -0.1788490     1.7941090     0.0202490
  H       -3.3868100    -1.1685230    -0.0043580
  H        1.7501540    -1.5327770     0.0300190
  H       -2.9559420     2.3719740    -0.8556620
  H       -4.0955650     1.3361040     0.0184570
  H       -2.9548850     2.3555760     0.9102830
  H        3.9313990    -1.0827470    -0.4343570
  H        4.1211000    -0.1952360     1.0924070
  H        4.4689380     0.6162650    -0.4426230
units angstrom
no_reorient  #important for SAPT in psi4, default
symmetry c1  #important for SAPT in psi4, default
}

set PROPERTIES_ORIGIN ["COM"]
properties('MP2/aug-cc-pvtz', properties = ['dipole'])
--------------------------------------------------------------------------

    Molecular point group: c1
  Charge       = 0
  Multiplicity = 1
  Basis Set: AUG-CC-PVTZ
    Blend: AUG-CC-PVTZ
  Basis Set: (AUG-CC-PVTZ AUX)
    Blend: AUG-CC-PVTZ-JKFIT

    Orbital Energies [Eh]
    ---------------------

    Doubly Occupied:

       1A    -91.989846     2A    -20.528214     3A    -15.614154
       4A    -11.364948     5A    -11.301100     6A    -11.251929
       7A    -11.247474     8A    -11.246745     9A    -11.228761
      10A    -11.222384    11A     -8.995285    12A     -6.677050
      13A     -6.675570    14A     -6.674633    15A     -1.384540
      16A     -1.262331    17A     -1.179395    18A     -1.037580
      19A     -1.026834    20A     -0.974271    21A     -0.904531
      22A     -0.817555    23A     -0.771893    24A     -0.728435
      25A     -0.685792    26A     -0.668432    27A     -0.630085
      28A     -0.612490    29A     -0.591887    30A     -0.582015
      31A     -0.569995    32A     -0.557859    33A     -0.546150
      34A     -0.536051    35A     -0.513427    36A     -0.510510
      37A     -0.473188    38A     -0.446502    39A     -0.430152
      40A     -0.344777    41A     -0.276168

  @DF-RHF Final Energy:  -797.26761313766315

   => Energetics <=

    Nuclear Repulsion Energy =            588.1361431091672785
    One-Electron Energy =               -2260.6456338159164261
    Two-Electron Energy =                 875.2418775690860002
    Total Energy =                       -797.2676131376631474
  Basis Set: (AUG-CC-PVTZ AUX)
    Blend: AUG-CC-PVTZ-RI
    Molecular point group: c1

    Geometry (in Angstrom), charge = 0, multiplicity = 1:

       Center              X                  Y                   Z               Mass
    ------------   -----------------  -----------------  -----------------  -----------------
         S           -1.013256181181    -1.699993148920    -0.012879455585    31.972071174400
         O            2.121161818819     1.653278851080    -0.058008455585    15.994914619570
         N            1.424623818819    -0.533673148920     0.002023544415    14.003074004430
         C           -2.079434181181     0.649091851080     0.012458544415    12.000000000000
         C            0.040028818819    -0.316993148920     0.005017544415    12.000000000000
         C           -0.668208181181     0.863118851080     0.015327544415    12.000000000000
         C           -2.246798881181    -0.801946648920    -0.001804155585    12.000000000000
         C           -3.082993181181     1.765706851080     0.023723544415    12.000000000000
         C            2.387298818819     0.453100851080    -0.022889455585    12.000000000000
         C            3.807451818819    -0.069569148920     0.047655544415    12.000000000000
         H           -0.187026181181     1.831734851080     0.022496544415     1.007825032230
         H           -3.394987181181    -1.130897148920    -0.002110455585     1.007825032230
         H            1.741976818819    -1.495151148920     0.032266544415     1.007825032230
         H           -2.964119181181     2.409599851080    -0.853414455585     1.007825032230
         H           -4.103742181181     1.373729851080     0.020704544415     1.007825032230
         H           -2.963062181181     2.393201851080     0.912530544415     1.007825032230
         H            3.923221818819    -1.045121148920    -0.432109455585     1.007825032230
         H            4.112922818819    -0.157610148920     1.094654544415     1.007825032230
         H            4.460760818819     0.653890851080    -0.440375455585     1.007825032230

  Basis Set: AUG-CC-PVTZ
    Blend: AUG-CC-PVTZ
  Basis Set: (AUG-CC-PVTZ AUX)
    Blend: AUG-CC-PVTZ-JKFIT
	 Reference Energy          =    -797.2676131376631474 [Eh]
	 Singles Energy            =      -0.0000000000000000 [Eh]
	 Same-Spin Energy          =      -0.4908985952422362 [Eh]
	 Opposite-Spin Energy      =      -1.5071309289632817 [Eh]
	 Correlation Energy        =      -1.9980295242055179 [Eh]
	 Total Energy              =    -799.2656426618686965 [Eh]

	 ================> DF-SCS-MP2 Energies <==================
	-----------------------------------------------------------
	 SCS Same-Spin Scale       =       0.3333333333333333 [-]
	 SCS Opposite-Spin Scale   =       1.2000000000000000 [-]
	 SCS Same-Spin Energy      =      -0.1636328650807454 [Eh]
	 SCS Opposite-Spin Energy  =      -1.8085571147559381 [Eh]
	 SCS Correlation Energy    =      -1.9721899798366835 [Eh]
	 SCS Total Energy          =    -799.2398031174998323 [Eh]
	-----------------------------------------------------------

  Dipole Moment: [D]
     X:     0.2552      Y:    -2.7977      Z:     0.1748     Total:     2.8148

*** Psi4 exiting successfully. Buy a developer a beer!
