                               Psi4 1.4a3.dev225

  ==> Input File <==

--------------------------------------------------------------------------
#psi4
#
memory 32 gb

molecule  {
0 1
  S       -1.0050790    -1.7376190    -0.0151270
  O        2.1293390     1.6156530    -0.0602560
  N        1.4328010    -0.5712990    -0.0002240
  C       -2.0712570     0.6114660     0.0102110
  C        0.0482060    -0.3546190     0.0027700
  C       -0.6600310     0.8254930     0.0130800
  C       -2.5619923    -0.6041515    -0.0011483
  C       -3.0748160     1.7280810     0.0214760
  C        2.3954760     0.4154750    -0.0251370
  C        3.8156290    -0.1071950     0.0454080
  H       -0.1788490     1.7941090     0.0202490
  H       -3.3868100    -1.1685230    -0.0043580
  H        1.7501540    -1.5327770     0.0300190
  H       -2.9559420     2.3719740    -0.8556620
  H       -4.0955650     1.3361040     0.0184570
  H       -2.9548850     2.3555760     0.9102830
  H        3.9313990    -1.0827470    -0.4343570
  H        4.1211000    -0.1952360     1.0924070
  H        4.4689380     0.6162650    -0.4426230
units angstrom
no_reorient  #important for SAPT in psi4, default
symmetry c1  #important for SAPT in psi4, default
}

set PROPERTIES_ORIGIN ["COM"]
properties('MP2/aug-cc-pvtz', properties = ['dipole'])
--------------------------------------------------------------------------

    Molecular point group: c1
  Charge       = 0
  Multiplicity = 1
  Basis Set: AUG-CC-PVTZ
    Blend: AUG-CC-PVTZ
  Basis Set: (AUG-CC-PVTZ AUX)
    Blend: AUG-CC-PVTZ-JKFIT

    Orbital Energies [Eh]
    ---------------------

    Doubly Occupied:

       1A    -91.970895     2A    -20.535987     3A    -15.622116
       4A    -11.371889     5A    -11.319300     6A    -11.255420
       7A    -11.250949     8A    -11.248075     9A    -11.226019
      10A    -11.222121    11A     -8.970089    12A     -6.651293
      13A     -6.650309    14A     -6.649732    15A     -1.391432
      16A     -1.266779    17A     -1.154518    18A     -1.046281
      19A     -1.005158    20A     -0.966480    21A     -0.916269
      22A     -0.830008    23A     -0.796192    24A     -0.743613
      25A     -0.690564    26A     -0.678491    27A     -0.634432
      28A     -0.610345    29A     -0.599139    30A     -0.589965
      31A     -0.583076    32A     -0.565910    33A     -0.559117
      34A     -0.530491    35A     -0.509768    36A     -0.497881
      37A     -0.440801    38A     -0.435729    39A     -0.429673
      40A     -0.342479    41A     -0.306674

  @DF-RHF Final Energy:  -797.29497054029093

   => Energetics <=

    Nuclear Repulsion Energy =            582.1727477957510928
    One-Electron Energy =               -2248.8045241719009937
    Two-Electron Energy =                 869.3368058358589678
    Total Energy =                       -797.2949705402909331
  Basis Set: (AUG-CC-PVTZ AUX)
    Blend: AUG-CC-PVTZ-RI
    Molecular point group: c1

    Geometry (in Angstrom), charge = 0, multiplicity = 1:

       Center              X                  Y                   Z               Mass
    ------------   -----------------  -----------------  -----------------  -----------------
         S           -0.988227575279    -1.718214531538    -0.013104176244    31.972071174400
         O            2.146190424721     1.635057468462    -0.058233176244    15.994914619570
         N            1.449652424721    -0.551894531538     0.001798823756    14.003074004430
         C           -2.054405575279     0.630870468462     0.012233823756    12.000000000000
         C            0.065057424721    -0.335214531538     0.004792823756    12.000000000000
         C           -0.643179575279     0.844897468462     0.015102823756    12.000000000000
         C           -2.545140875279    -0.584747031538     0.000874523756    12.000000000000
         C           -3.057964575279     1.747485468462     0.023498823756    12.000000000000
         C            2.412327424721     0.434879468462    -0.023114176244    12.000000000000
         C            3.832480424721    -0.087790531538     0.047430823756    12.000000000000
         H           -0.161997575279     1.813513468462     0.022271823756     1.007825032230
         H           -3.369958575279    -1.149118531538    -0.002335176244     1.007825032230
         H            1.767005424721    -1.513372531538     0.032041823756     1.007825032230
         H           -2.939090575279     2.391378468462    -0.853639176244     1.007825032230
         H           -4.078713575279     1.355508468462     0.020479823756     1.007825032230
         H           -2.938033575279     2.374980468462     0.912305823756     1.007825032230
         H            3.948250424721    -1.063342531538    -0.432334176244     1.007825032230
         H            4.137951424721    -0.175831531538     1.094429823756     1.007825032230
         H            4.485789424721     0.635669468462    -0.440600176244     1.007825032230

  Basis Set: AUG-CC-PVTZ
    Blend: AUG-CC-PVTZ
  Basis Set: (AUG-CC-PVTZ AUX)
    Blend: AUG-CC-PVTZ-JKFIT
	 Reference Energy          =    -797.2949705402909331 [Eh]
	 Singles Energy            =      -0.0000000000000000 [Eh]
	 Same-Spin Energy          =      -0.4834145399062842 [Eh]
	 Opposite-Spin Energy      =      -1.5007195857331428 [Eh]
	 Correlation Energy        =      -1.9841341256394269 [Eh]
	 Total Energy              =    -799.2791046659303902 [Eh]

	 ================> DF-SCS-MP2 Energies <==================
	-----------------------------------------------------------
	 SCS Same-Spin Scale       =       0.3333333333333333 [-]
	 SCS Opposite-Spin Scale   =       1.2000000000000000 [-]
	 SCS Same-Spin Energy      =      -0.1611381799687614 [Eh]
	 SCS Opposite-Spin Energy  =      -1.8008635028797713 [Eh]
	 SCS Correlation Energy    =      -1.9620016828485327 [Eh]
	 SCS Total Energy          =    -799.2569722231394280 [Eh]
	-----------------------------------------------------------

  Dipole Moment: [D]
     X:     0.3934      Y:    -2.1705      Z:     0.1815     Total:     2.2133

*** Psi4 exiting successfully. Buy a developer a beer!
