                               Psi4 1.4a3.dev225

  ==> Input File <==

--------------------------------------------------------------------------
#psi4
#
memory 32 gb

molecule  {
0 1
  S       -1.0050790    -1.7376190    -0.0151270
  O        2.1293390     1.6156530    -0.0602560
  N        1.4328010    -0.5712990    -0.0002240
  C       -2.0712570     0.6114660     0.0102110
  C        0.0482060    -0.3546190     0.0027700
  C       -0.6600310     0.8254930     0.0130800
  C       -2.4003070    -0.7218620    -0.0026000
  C       -3.0748160     1.7280810     0.0214760
  C        2.3954760     0.4154750    -0.0251370
  C        3.8156290    -0.1071950     0.0454080
  H       -0.1788490     1.7941090     0.0202490
  H       -3.3868100    -1.1685230    -0.0043580
  H        1.7501540    -1.5327770     0.0300190
  H       -2.9559420     2.3719740    -0.8556620
  H       -4.0955650     1.3361040     0.0184570
  H       -2.9548850     2.3555760     0.9102830
  H        3.9313990    -1.0827470    -0.4343570
  H        4.1211000    -0.1952360     1.0924070
  H        4.4989028     0.6494473    -0.4650071
units angstrom
no_reorient  #important for SAPT in psi4, default
symmetry c1  #important for SAPT in psi4, default
}

set PROPERTIES_ORIGIN ["COM"]
properties('MP2/aug-cc-pvtz', properties = ['dipole'])
--------------------------------------------------------------------------

    Molecular point group: c1
  Charge       = 0
  Multiplicity = 1
  Basis Set: AUG-CC-PVTZ
    Blend: AUG-CC-PVTZ
  Basis Set: (AUG-CC-PVTZ AUX)
    Blend: AUG-CC-PVTZ-JKFIT

    Orbital Energies [Eh]
    ---------------------

    Doubly Occupied:

       1A    -91.984510     2A    -20.532899     3A    -15.619523
       4A    -11.369607     5A    -11.311844     6A    -11.254939
       7A    -11.249388     8A    -11.245028     9A    -11.226044
      10A    -11.222122    11A     -8.984991    12A     -6.666155
      13A     -6.665601    14A     -6.664711    15A     -1.388764
      16A     -1.265151    17A     -1.159715    18A     -1.037110
      19A     -1.010555    20A     -0.971160    21A     -0.912328
      22A     -0.824843    23A     -0.785365    24A     -0.727512
      25A     -0.688044    26A     -0.673899    27A     -0.632311
      28A     -0.609235    29A     -0.592594    30A     -0.580916
      31A     -0.574405    32A     -0.559983    33A     -0.553427
      34A     -0.523371    35A     -0.516264    36A     -0.502815
      37A     -0.473083    38A     -0.442547    39A     -0.433791
      40A     -0.340397    41A     -0.295698

  @DF-RHF Final Energy:  -797.31730757889818

   => Energetics <=

    Nuclear Repulsion Energy =            584.6097896969937437
    One-Electron Energy =               -2253.7089063136345430
    Two-Electron Energy =                 871.7818090377427325
    Total Energy =                       -797.3173075788981805
  Basis Set: (AUG-CC-PVTZ AUX)
    Blend: AUG-CC-PVTZ-RI
    Molecular point group: c1

    Geometry (in Angstrom), charge = 0, multiplicity = 1:

       Center              X                  Y                   Z               Mass
    ------------   -----------------  -----------------  -----------------  -----------------
         S           -1.000936661389    -1.709319538422    -0.012846310330    31.972071174400
         O            2.133481338611     1.643952461578    -0.057975310330    15.994914619570
         N            1.436943338611    -0.542999538422     0.002056689670    14.003074004430
         C           -2.067114661389     0.639765461578     0.012491689670    12.000000000000
         C            0.052348338611    -0.326319538422     0.005050689670    12.000000000000
         C           -0.655888661389     0.853792461578     0.015360689670    12.000000000000
         C           -2.396164661389    -0.693562538422    -0.000319310330    12.000000000000
         C           -3.070673661389     1.756380461578     0.023756689670    12.000000000000
         C            2.399618338611     0.443774461578    -0.022856310330    12.000000000000
         C            3.819771338611    -0.078895538422     0.047688689670    12.000000000000
         H           -0.174706661389     1.822408461578     0.022529689670     1.007825032230
         H           -3.382667661389    -1.140223538422    -0.002077310330     1.007825032230
         H            1.754296338611    -1.504477538422     0.032299689670     1.007825032230
         H           -2.951799661389     2.400273461578    -0.853381310330     1.007825032230
         H           -4.091422661389     1.364403461578     0.020737689670     1.007825032230
         H           -2.950742661389     2.383875461578     0.912563689670     1.007825032230
         H            3.935541338611    -1.054447538422    -0.432076310330     1.007825032230
         H            4.125242338611    -0.166936538422     1.094687689670     1.007825032230
         H            4.503045138611     0.677746761578    -0.462726410330     1.007825032230

  Basis Set: AUG-CC-PVTZ
    Blend: AUG-CC-PVTZ
  Basis Set: (AUG-CC-PVTZ AUX)
    Blend: AUG-CC-PVTZ-JKFIT
	 Reference Energy          =    -797.3173075788981805 [Eh]
	 Singles Energy            =      -0.0000000000000000 [Eh]
	 Same-Spin Energy          =      -0.4855426875129197 [Eh]
	 Opposite-Spin Energy      =      -1.5020461465135646 [Eh]
	 Correlation Energy        =      -1.9875888340264842 [Eh]
	 Total Energy              =    -799.3048964129246770 [Eh]

	 ================> DF-SCS-MP2 Energies <==================
	-----------------------------------------------------------
	 SCS Same-Spin Scale       =       0.3333333333333333 [-]
	 SCS Opposite-Spin Scale   =       1.2000000000000000 [-]
	 SCS Same-Spin Energy      =      -0.1618475625043065 [Eh]
	 SCS Opposite-Spin Energy  =      -1.8024553758162773 [Eh]
	 SCS Correlation Energy    =      -1.9643029383205839 [Eh]
	 SCS Total Energy          =    -799.2816105172187235 [Eh]
	-----------------------------------------------------------

  Dipole Moment: [D]
     X:     0.4150      Y:    -2.5286      Z:     0.1805     Total:     2.5687

*** Psi4 exiting successfully. Buy a developer a beer!
