                               Psi4 1.4a3.dev225

  ==> Input File <==

--------------------------------------------------------------------------
#psi4
#
memory 32 gb

molecule  {
0 1
  S       -1.0050790    -1.7376190    -0.0151270
  O        2.1293390     1.6156530    -0.0602560
  N        1.4328010    -0.5712990    -0.0002240
  C       -2.0712570     0.6114660     0.0102110
  C        0.0482060    -0.3546190     0.0027700
  C       -0.6600310     0.8254930     0.0130800
  C       -2.4003070    -0.7218620    -0.0026000
  C       -3.0748160     1.7280810     0.0214760
  C        2.3954760     0.4154750    -0.0251370
  C        3.8156290    -0.1071950     0.0454080
  H       -0.1788490     1.7941090     0.0202490
  H       -3.4779073    -1.2097693    -0.0045203
  H        1.7501540    -1.5327770     0.0300190
  H       -2.9559420     2.3719740    -0.8556620
  H       -4.0955650     1.3361040     0.0184570
  H       -2.9548850     2.3555760     0.9102830
  H        3.9313990    -1.0827470    -0.4343570
  H        4.1211000    -0.1952360     1.0924070
  H        4.4689380     0.6162650    -0.4426230
units angstrom
no_reorient  #important for SAPT in psi4, default
symmetry c1  #important for SAPT in psi4, default
}

set PROPERTIES_ORIGIN ["COM"]
properties('MP2/aug-cc-pvtz', properties = ['dipole'])
--------------------------------------------------------------------------

    Molecular point group: c1
  Charge       = 0
  Multiplicity = 1
  Basis Set: AUG-CC-PVTZ
    Blend: AUG-CC-PVTZ
  Basis Set: (AUG-CC-PVTZ AUX)
    Blend: AUG-CC-PVTZ-JKFIT

    Orbital Energies [Eh]
    ---------------------

    Doubly Occupied:

       1A    -91.985244     2A    -20.533141     3A    -15.619440
       4A    -11.369488     5A    -11.311932     6A    -11.259681
       7A    -11.249587     8A    -11.245599     9A    -11.225852
      10A    -11.222585    11A     -8.985657    12A     -6.666807
      13A     -6.666262    14A     -6.665359    15A     -1.388963
      16A     -1.265186    17A     -1.159513    18A     -1.038137
      19A     -1.012102    20A     -0.969655    21A     -0.911830
      22A     -0.825113    23A     -0.781323    24A     -0.721291
      25A     -0.687312    26A     -0.670967    27A     -0.633055
      28A     -0.609657    29A     -0.592660    30A     -0.580928
      31A     -0.574285    32A     -0.558545    33A     -0.553810
      34A     -0.523625    35A     -0.512436    36A     -0.503395
      37A     -0.473404    38A     -0.442755    39A     -0.433826
      40A     -0.340729    41A     -0.295814

  @DF-RHF Final Energy:  -797.31188448209389

   => Energetics <=

    Nuclear Repulsion Energy =            584.2978479493000350
    One-Electron Energy =               -2253.0855696104617891
    Two-Electron Energy =                 871.4758371790679803
    Total Energy =                       -797.3118844820938875
  Basis Set: (AUG-CC-PVTZ AUX)
    Blend: AUG-CC-PVTZ-RI
    Molecular point group: c1

    Geometry (in Angstrom), charge = 0, multiplicity = 1:

       Center              X                  Y                   Z               Mass
    ------------   -----------------  -----------------  -----------------  -----------------
         S           -1.000149709422    -1.708835722817    -0.012990760900    31.972071174400
         O            2.134268290578     1.644436277183    -0.058119760900    15.994914619570
         N            1.437730290578    -0.542515722817     0.001912239100    14.003074004430
         C           -2.066327709422     0.640249277183     0.012347239100    12.000000000000
         C            0.053135290578    -0.325835722817     0.004906239100    12.000000000000
         C           -0.655101709422     0.854276277183     0.015216239100    12.000000000000
         C           -2.395377709422    -0.693078722817    -0.000463760900    12.000000000000
         C           -3.069886709422     1.756864277183     0.023612239100    12.000000000000
         C            2.400405290578     0.444258277183    -0.023000760900    12.000000000000
         C            3.820558290578    -0.078411722817     0.047544239100    12.000000000000
         H           -0.173919709422     1.822892277183     0.022385239100     1.007825032230
         H           -3.472978009422    -1.180986022817    -0.002384060900     1.007825032230
         H            1.755083290578    -1.503993722817     0.032155239100     1.007825032230
         H           -2.951012709422     2.400757277183    -0.853525760900     1.007825032230
         H           -4.090635709422     1.364887277183     0.020593239100     1.007825032230
         H           -2.949955709422     2.384359277183     0.912419239100     1.007825032230
         H            3.936328290578    -1.053963722817    -0.432220760900     1.007825032230
         H            4.126029290578    -0.166452722817     1.094543239100     1.007825032230
         H            4.473867290578     0.645048277183    -0.440486760900     1.007825032230

  Basis Set: AUG-CC-PVTZ
    Blend: AUG-CC-PVTZ
  Basis Set: (AUG-CC-PVTZ AUX)
    Blend: AUG-CC-PVTZ-JKFIT
	 Reference Energy          =    -797.3118844820938875 [Eh]
	 Singles Energy            =      -0.0000000000000000 [Eh]
	 Same-Spin Energy          =      -0.4857949763765175 [Eh]
	 Opposite-Spin Energy      =      -1.5026130897879200 [Eh]
	 Correlation Energy        =      -1.9884080661644374 [Eh]
	 Total Energy              =    -799.3002925482583123 [Eh]

	 ================> DF-SCS-MP2 Energies <==================
	-----------------------------------------------------------
	 SCS Same-Spin Scale       =       0.3333333333333333 [-]
	 SCS Opposite-Spin Scale   =       1.2000000000000000 [-]
	 SCS Same-Spin Energy      =      -0.1619316587921725 [Eh]
	 SCS Opposite-Spin Energy  =      -1.8031357077455039 [Eh]
	 SCS Correlation Energy    =      -1.9650673665376763 [Eh]
	 SCS Total Energy          =    -799.2769518486315974 [Eh]
	-----------------------------------------------------------

  Dipole Moment: [D]
     X:     0.4340      Y:    -2.5354      Z:     0.1778     Total:     2.5784

*** Psi4 exiting successfully. Buy a developer a beer!
