                               Psi4 1.4a3.dev225

  ==> Input File <==

--------------------------------------------------------------------------
#psi4
#
memory 32 gb

molecule  {
0 1
  S       -1.0050790    -1.7376190    -0.0151270
  O        2.1293390     1.6156530    -0.0602560
  N        1.4328010    -0.5712990    -0.0002240
  C       -2.0712570     0.6114660     0.0102110
  C        0.0482060    -0.3546190     0.0027700
  C       -0.6600310     0.8254930     0.0130800
  C       -2.4003070    -0.7218620    -0.0026000
  C       -3.0748160     1.7280810     0.0214760
  C        2.3954760     0.4154750    -0.0251370
  C        3.8156290    -0.1071950     0.0454080
  H       -0.2010935     1.7493310     0.0199176
  H       -3.3868100    -1.1685230    -0.0043580
  H        1.7501540    -1.5327770     0.0300190
  H       -2.9559420     2.3719740    -0.8556620
  H       -4.0955650     1.3361040     0.0184570
  H       -2.9548850     2.3555760     0.9102830
  H        3.9313990    -1.0827470    -0.4343570
  H        4.1211000    -0.1952360     1.0924070
  H        4.4689380     0.6162650    -0.4426230
units angstrom
no_reorient  #important for SAPT in psi4, default
symmetry c1  #important for SAPT in psi4, default
}

set PROPERTIES_ORIGIN ["COM"]
properties('MP2/aug-cc-pvtz', properties = ['dipole'])
--------------------------------------------------------------------------

    Molecular point group: c1
  Charge       = 0
  Multiplicity = 1
  Basis Set: AUG-CC-PVTZ
    Blend: AUG-CC-PVTZ
  Basis Set: (AUG-CC-PVTZ AUX)
    Blend: AUG-CC-PVTZ-JKFIT

    Orbital Energies [Eh]
    ---------------------

    Doubly Occupied:

       1A    -91.984318     2A    -20.533089     3A    -15.619270
       4A    -11.369292     5A    -11.311692     6A    -11.249478
       7A    -11.249152     8A    -11.244772     9A    -11.226112
      10A    -11.216873    11A     -8.984808    12A     -6.665972
      13A     -6.665419    14A     -6.664532    15A     -1.388787
      16A     -1.265029    17A     -1.159776    18A     -1.038172
      19A     -1.012507    20A     -0.973961    21A     -0.912898
      22A     -0.826047    23A     -0.785510    24A     -0.732942
      25A     -0.688697    26A     -0.676158    27A     -0.632912
      28A     -0.610732    29A     -0.593456    30A     -0.580966
      31A     -0.579279    32A     -0.562132    33A     -0.558325
      34A     -0.525453    35A     -0.516124    36A     -0.503093
      37A     -0.473204    38A     -0.442481    39A     -0.434581
      40A     -0.340370    41A     -0.295563

  @DF-RHF Final Energy:  -797.31872103669252

   => Energetics <=

    Nuclear Repulsion Energy =            585.0855281464578184
    One-Electron Energy =               -2254.6206320174333086
    Two-Electron Energy =                 872.2163828342829675
    Total Energy =                       -797.3187210366925228
  Basis Set: (AUG-CC-PVTZ AUX)
    Blend: AUG-CC-PVTZ-RI
    Molecular point group: c1

    Geometry (in Angstrom), charge = 0, multiplicity = 1:

       Center              X                  Y                   Z               Mass
    ------------   -----------------  -----------------  -----------------  -----------------
         S           -1.000597280102    -1.708812765357    -0.012989661682    31.972071174400
         O            2.133820719898     1.644459234643    -0.058118661682    15.994914619570
         N            1.437282719898    -0.542492765357     0.001913338318    14.003074004430
         C           -2.066775280102     0.640272234643     0.012348338318    12.000000000000
         C            0.052687719898    -0.325812765357     0.004907338318    12.000000000000
         C           -0.655549280102     0.854299234643     0.015217338318    12.000000000000
         C           -2.395825280102    -0.693055765357    -0.000462661682    12.000000000000
         C           -3.070334280102     1.756887234643     0.023613338318    12.000000000000
         C            2.399957719898     0.444281234643    -0.022999661682    12.000000000000
         C            3.820110719898    -0.078388765357     0.047545338318    12.000000000000
         H           -0.196611780102     1.778137234643     0.022054938318     1.007825032230
         H           -3.382328280102    -1.139716765357    -0.002220661682     1.007825032230
         H            1.754635719898    -1.503970765357     0.032156338318     1.007825032230
         H           -2.951460280102     2.400780234643    -0.853524661682     1.007825032230
         H           -4.091083280102     1.364910234643     0.020594338318     1.007825032230
         H           -2.950403280102     2.384382234643     0.912420338318     1.007825032230
         H            3.935880719898    -1.053940765357    -0.432219661682     1.007825032230
         H            4.125581719898    -0.166429765357     1.094544338318     1.007825032230
         H            4.473419719898     0.645071234643    -0.440485661682     1.007825032230

  Basis Set: AUG-CC-PVTZ
    Blend: AUG-CC-PVTZ
  Basis Set: (AUG-CC-PVTZ AUX)
    Blend: AUG-CC-PVTZ-JKFIT
	 Reference Energy          =    -797.3187210366925228 [Eh]
	 Singles Energy            =      -0.0000000000000000 [Eh]
	 Same-Spin Energy          =      -0.4853481442077287 [Eh]
	 Opposite-Spin Energy      =      -1.5013679593003975 [Eh]
	 Correlation Energy        =      -1.9867161035081262 [Eh]
	 Total Energy              =    -799.3054371402006382 [Eh]

	 ================> DF-SCS-MP2 Energies <==================
	-----------------------------------------------------------
	 SCS Same-Spin Scale       =       0.3333333333333333 [-]
	 SCS Opposite-Spin Scale   =       1.2000000000000000 [-]
	 SCS Same-Spin Energy      =      -0.1617827147359095 [Eh]
	 SCS Opposite-Spin Energy  =      -1.8016415511604769 [Eh]
	 SCS Correlation Energy    =      -1.9634242658963865 [Eh]
	 SCS Total Energy          =    -799.2821453025889014 [Eh]
	-----------------------------------------------------------

  Dipole Moment: [D]
     X:     0.4188      Y:    -2.5378      Z:     0.1781     Total:     2.5783

*** Psi4 exiting successfully. Buy a developer a beer!
