                               Psi4 1.4a3.dev225

  ==> Input File <==

--------------------------------------------------------------------------
#psi4
#
memory 32 gb

molecule  {
0 1
  S       -1.0050790    -1.7376190    -0.0151270
  O        2.1293390     1.6156530    -0.0602560
  N        1.4328010    -0.5712990    -0.0002240
  C       -2.0712570     0.6114660     0.0102110
  C        0.0482060    -0.3546190     0.0027700
  C       -0.6600310     0.8254930     0.0130800
  C       -2.4003070    -0.7218620    -0.0026000
  C       -3.0748160     1.7280810     0.0214760
  C        2.3954760     0.4154750    -0.0251370
  C        3.8156290    -0.1071950     0.0454080
  H       -0.1788490     1.7941090     0.0202490
  H       -3.3868100    -1.1685230    -0.0043580
  H        1.7501540    -1.5327770     0.0300190
  H       -3.0648869     2.3472546    -0.8810902
  H       -4.0955650     1.3361040     0.0184570
  H       -2.9548850     2.3555760     0.9102830
  H        3.9313990    -1.0827470    -0.4343570
  H        4.1211000    -0.1952360     1.0924070
  H        4.4689380     0.6162650    -0.4426230
units angstrom
no_reorient  #important for SAPT in psi4, default
symmetry c1  #important for SAPT in psi4, default
}

set PROPERTIES_ORIGIN ["COM"]
properties('MP2/aug-cc-pvtz', properties = ['dipole'])
--------------------------------------------------------------------------

    Molecular point group: c1
  Charge       = 0
  Multiplicity = 1
  Basis Set: AUG-CC-PVTZ
    Blend: AUG-CC-PVTZ
  Basis Set: (AUG-CC-PVTZ AUX)
    Blend: AUG-CC-PVTZ-JKFIT

    Orbital Energies [Eh]
    ---------------------

    Doubly Occupied:

       1A    -91.984753     2A    -20.532899     3A    -15.619187
       4A    -11.369252     5A    -11.311606     6A    -11.249952
       7A    -11.249428     8A    -11.245409     9A    -11.225612
      10A    -11.222049    11A     -8.985231    12A     -6.666391
      13A     -6.665839    14A     -6.664951    15A     -1.388721
      16A     -1.264935    17A     -1.159698    18A     -1.037936
      19A     -1.011875    20A     -0.972009    21A     -0.913120
      22A     -0.825781    23A     -0.785521    24A     -0.727595
      25A     -0.689059    26A     -0.673980    27A     -0.632861
      28A     -0.610261    29A     -0.592090    30A     -0.584570
      31A     -0.574050    32A     -0.562012    33A     -0.557625
      34A     -0.521897    35A     -0.513854    36A     -0.503171
      37A     -0.473187    38A     -0.442707    39A     -0.433576
      40A     -0.340891    41A     -0.295754

  @DF-RHF Final Energy:  -797.31815681601495

   => Energetics <=

    Nuclear Repulsion Energy =            584.7083149892569054
    One-Electron Energy =               -2253.8903463497913435
    Two-Electron Energy =                 871.8638745445194900
    Total Energy =                       -797.3181568160149482
  Basis Set: (AUG-CC-PVTZ AUX)
    Blend: AUG-CC-PVTZ-RI
    Molecular point group: c1

    Geometry (in Angstrom), charge = 0, multiplicity = 1:

       Center              X                  Y                   Z               Mass
    ------------   -----------------  -----------------  -----------------  -----------------
         S           -1.000033692898    -1.708943154263    -0.012826522466    31.972071174400
         O            2.134384307102     1.644328845737    -0.057955522466    15.994914619570
         N            1.437846307102    -0.542623154263     0.002076477534    14.003074004430
         C           -2.066211692898     0.640141845737     0.012511477534    12.000000000000
         C            0.053251307102    -0.325943154263     0.005070477534    12.000000000000
         C           -0.654985692898     0.854168845737     0.015380477534    12.000000000000
         C           -2.395261692898    -0.693186154263    -0.000299522466    12.000000000000
         C           -3.069770692898     1.756756845737     0.023776477534    12.000000000000
         C            2.400521307102     0.444150845737    -0.022836522466    12.000000000000
         C            3.820674307102    -0.078519154263     0.047708477534    12.000000000000
         H           -0.173803692898     1.822784845737     0.022549477534     1.007825032230
         H           -3.381764692898    -1.139847154263    -0.002057522466     1.007825032230
         H            1.755199307102    -1.504101154263     0.032319477534     1.007825032230
         H           -3.059841592898     2.375930445737    -0.878789722466     1.007825032230
         H           -4.090519692898     1.364779845737     0.020757477534     1.007825032230
         H           -2.949839692898     2.384251845737     0.912583477534     1.007825032230
         H            3.936444307102    -1.054071154263    -0.432056522466     1.007825032230
         H            4.126145307102    -0.166560154263     1.094707477534     1.007825032230
         H            4.473983307102     0.644940845737    -0.440322522466     1.007825032230

  Basis Set: AUG-CC-PVTZ
    Blend: AUG-CC-PVTZ
  Basis Set: (AUG-CC-PVTZ AUX)
    Blend: AUG-CC-PVTZ-JKFIT
	 Reference Energy          =    -797.3181568160149482 [Eh]
	 Singles Energy            =      -0.0000000000000000 [Eh]
	 Same-Spin Energy          =      -0.4855936344813808 [Eh]
	 Opposite-Spin Energy      =      -1.5017726543278656 [Eh]
	 Correlation Energy        =      -1.9873662888092465 [Eh]
	 Total Energy              =    -799.3055231048241467 [Eh]

	 ================> DF-SCS-MP2 Energies <==================
	-----------------------------------------------------------
	 SCS Same-Spin Scale       =       0.3333333333333333 [-]
	 SCS Opposite-Spin Scale   =       1.2000000000000000 [-]
	 SCS Same-Spin Energy      =      -0.1618645448271269 [Eh]
	 SCS Opposite-Spin Energy  =      -1.8021271851934386 [Eh]
	 SCS Correlation Energy    =      -1.9639917300205656 [Eh]
	 SCS Total Energy          =    -799.2821485460355007 [Eh]
	-----------------------------------------------------------

  Dipole Moment: [D]
     X:     0.4089      Y:    -2.5548      Z:     0.1576     Total:     2.5921

*** Psi4 exiting successfully. Buy a developer a beer!
