                               Psi4 1.4a3.dev225

  ==> Input File <==

--------------------------------------------------------------------------
#psi4
#
memory 32 gb

molecule  {
0 1
  S       -1.0050790    -1.7376190    -0.0151270
  O        2.1293390     1.6156530    -0.0602560
  N        1.4328010    -0.5712990    -0.0002240
  C       -2.0712570     0.6114660     0.0102110
  C        0.0482060    -0.3546190     0.0027700
  C       -0.6600310     0.8254930     0.0130800
  C       -2.4003070    -0.7218620    -0.0026000
  C       -3.0748160     1.7280810     0.0214760
  C        2.3998040     0.3959573    -0.0245659
  C        3.8156290    -0.1071950     0.0454080
  H       -0.1788490     1.7941090     0.0202490
  H       -3.3868100    -1.1685230    -0.0043580
  H        1.7501540    -1.5327770     0.0300190
  H       -2.9559420     2.3719740    -0.8556620
  H       -4.0955650     1.3361040     0.0184570
  H       -2.9548850     2.3555760     0.9102830
  H        3.9313990    -1.0827470    -0.4343570
  H        4.1211000    -0.1952360     1.0924070
  H        4.4689380     0.6162650    -0.4426230
units angstrom
no_reorient  #important for SAPT in psi4, default
symmetry c1  #important for SAPT in psi4, default
}

set PROPERTIES_ORIGIN ["COM"]
properties('MP2/aug-cc-pvtz', properties = ['dipole'])
--------------------------------------------------------------------------

    Molecular point group: c1
  Charge       = 0
  Multiplicity = 1
  Basis Set: AUG-CC-PVTZ
    Blend: AUG-CC-PVTZ
  Basis Set: (AUG-CC-PVTZ AUX)
    Blend: AUG-CC-PVTZ-JKFIT

    Orbital Energies [Eh]
    ---------------------

    Doubly Occupied:

       1A    -91.985374     2A    -20.528633     3A    -15.621853
       4A    -11.369243     5A    -11.312478     6A    -11.250351
       7A    -11.249928     8A    -11.245511     9A    -11.226344
      10A    -11.223029    11A     -8.985830    12A     -6.666992
      13A     -6.666442    14A     -6.665550    15A     -1.377255
      16A     -1.265098    17A     -1.160913    18A     -1.040363
      19A     -1.013697    20A     -0.972967    21A     -0.914190
      22A     -0.828206    23A     -0.786574    24A     -0.727299
      25A     -0.688934    26A     -0.672647    27A     -0.633095
      28A     -0.609281    29A     -0.587180    30A     -0.581420
      31A     -0.578082    32A     -0.562211    33A     -0.558923
      34A     -0.523516    35A     -0.516723    36A     -0.500025
      37A     -0.473617    38A     -0.439218    39A     -0.431997
      40A     -0.340854    41A     -0.296840

  @DF-RHF Final Energy:  -797.31721814345440

   => Energetics <=

    Nuclear Repulsion Energy =            584.7463243365383505
    One-Electron Energy =               -2253.9697180093444331
    Two-Electron Energy =                 871.9061755293517990
    Total Energy =                       -797.3172181434543973
  Basis Set: (AUG-CC-PVTZ AUX)
    Blend: AUG-CC-PVTZ-RI
    Molecular point group: c1

    Geometry (in Angstrom), charge = 0, multiplicity = 1:

       Center              X                  Y                   Z               Mass
    ------------   -----------------  -----------------  -----------------  -----------------
         S           -1.001076861702    -1.707593187061    -0.013036018562    31.972071174400
         O            2.133341138298     1.645678812939    -0.058165018562    15.994914619570
         N            1.436803138298    -0.541273187061     0.001866981438    14.003074004430
         C           -2.067254861702     0.641491812939     0.012301981438    12.000000000000
         C            0.052208138298    -0.324593187061     0.004860981438    12.000000000000
         C           -0.656028861702     0.855518812939     0.015170981438    12.000000000000
         C           -2.396304861702    -0.691836187061    -0.000509018562    12.000000000000
         C           -3.070813861702     1.758106812939     0.023566981438    12.000000000000
         C            2.403806138298     0.425983112939    -0.022474918562    12.000000000000
         C            3.819631138298    -0.077169187061     0.047498981438    12.000000000000
         H           -0.174846861702     1.824134812939     0.022339981438     1.007825032230
         H           -3.382807861702    -1.138497187061    -0.002267018562     1.007825032230
         H            1.754156138298    -1.502751187061     0.032109981438     1.007825032230
         H           -2.951939861702     2.401999812939    -0.853571018562     1.007825032230
         H           -4.091562861702     1.366129812939     0.020547981438     1.007825032230
         H           -2.950882861702     2.385601812939     0.912373981438     1.007825032230
         H            3.935401138298    -1.052721187061    -0.432266018562     1.007825032230
         H            4.125102138298    -0.165210187061     1.094497981438     1.007825032230
         H            4.472940138298     0.646290812939    -0.440532018562     1.007825032230

  Basis Set: AUG-CC-PVTZ
    Blend: AUG-CC-PVTZ
  Basis Set: (AUG-CC-PVTZ AUX)
    Blend: AUG-CC-PVTZ-JKFIT
	 Reference Energy          =    -797.3172181434543973 [Eh]
	 Singles Energy            =      -0.0000000000000000 [Eh]
	 Same-Spin Energy          =      -0.4860074421266605 [Eh]
	 Opposite-Spin Energy      =      -1.5026117752926060 [Eh]
	 Correlation Energy        =      -1.9886192174192665 [Eh]
	 Total Energy              =    -799.3058373608736247 [Eh]

	 ================> DF-SCS-MP2 Energies <==================
	-----------------------------------------------------------
	 SCS Same-Spin Scale       =       0.3333333333333333 [-]
	 SCS Opposite-Spin Scale   =       1.2000000000000000 [-]
	 SCS Same-Spin Energy      =      -0.1620024807088868 [Eh]
	 SCS Opposite-Spin Energy  =      -1.8031341303511272 [Eh]
	 SCS Correlation Energy    =      -1.9651366110600141 [Eh]
	 SCS Total Energy          =    -799.2823547545143583 [Eh]
	-----------------------------------------------------------

  Dipole Moment: [D]
     X:     0.3549      Y:    -2.6566      Z:     0.1840     Total:     2.6865

*** Psi4 exiting successfully. Buy a developer a beer!
