                               Psi4 1.4a3.dev225

  ==> Input File <==

--------------------------------------------------------------------------
#psi4
#
memory 32 gb

molecule  {
0 1
  S       -1.0050790    -1.7376190    -0.0151270
  O        2.1293390     1.6156530    -0.0602560
  N        1.4328010    -0.5712990    -0.0002240
  C       -2.0712570     0.6114660     0.0102110
  C        0.0482060    -0.3546190     0.0027700
  C       -0.6600310     0.8254930     0.0130800
  C       -2.4003070    -0.7218620    -0.0026000
  C       -3.0748160     1.7280810     0.0214760
  C        2.3954760     0.4154750    -0.0251370
  C        3.8156290    -0.1071950     0.0454080
  H       -0.1788490     1.7941090     0.0202490
  H       -3.3868100    -1.1685230    -0.0043580
  H        1.7501540    -1.5327770     0.0300190
  H       -2.9559420     2.3719740    -0.8556620
  H       -4.0955650     1.3361040     0.0184570
  H       -2.9548850     2.3555760     0.9102830
  H        3.9313990    -1.0827470    -0.4343570
  H        4.1769347    -0.2113283     1.2837797
  H        4.4689380     0.6162650    -0.4426230
units angstrom
no_reorient  #important for SAPT in psi4, default
symmetry c1  #important for SAPT in psi4, default
}

set PROPERTIES_ORIGIN ["COM"]
properties('MP2/aug-cc-pvtz', properties = ['dipole'])
--------------------------------------------------------------------------

    Molecular point group: c1
  Charge       = 0
  Multiplicity = 1
  Basis Set: AUG-CC-PVTZ
    Blend: AUG-CC-PVTZ
  Basis Set: (AUG-CC-PVTZ AUX)
    Blend: AUG-CC-PVTZ-JKFIT

    Orbital Energies [Eh]
    ---------------------

    Doubly Occupied:

       1A    -91.984633     2A    -20.533804     3A    -15.619721
       4A    -11.370907     5A    -11.312037     6A    -11.270840
       7A    -11.249524     8A    -11.245150     9A    -11.226137
      10A    -11.222300    11A     -8.985113    12A     -6.666276
      13A     -6.665723    14A     -6.664832    15A     -1.389503
      16A     -1.265413    17A     -1.159823    18A     -1.035171
      19A     -1.007263    20A     -0.969685    21A     -0.911690
      22A     -0.823918    23A     -0.785391    24A     -0.727455
      25A     -0.687321    26A     -0.674119    27A     -0.621992
      28A     -0.609428    29A     -0.593567    30A     -0.578924
      31A     -0.577972    32A     -0.561419    33A     -0.538813
      34A     -0.523746    35A     -0.516400    36A     -0.496175
      37A     -0.473204    38A     -0.442778    39A     -0.434345
      40A     -0.340513    41A     -0.295721

  @DF-RHF Final Energy:  -797.29928402006021

   => Energetics <=

    Nuclear Repulsion Energy =            584.0353956189456994
    One-Electron Energy =               -2252.5518693504222938
    Two-Electron Energy =                 871.2171897114164949
    Total Energy =                       -797.2992840200602132
  Basis Set: (AUG-CC-PVTZ AUX)
    Blend: AUG-CC-PVTZ-RI
    Molecular point group: c1

    Geometry (in Angstrom), charge = 0, multiplicity = 1:

       Center              X                  Y                   Z               Mass
    ------------   -----------------  -----------------  -----------------  -----------------
         S           -1.001104826065    -1.708999233856    -0.014235814844    31.972071174400
         O            2.133313173935     1.644272766144    -0.059364814844    15.994914619570
         N            1.436775173935    -0.542679233856     0.000667185156    14.003074004430
         C           -2.067282826065     0.640085766144     0.011102185156    12.000000000000
         C            0.052180173935    -0.325999233856     0.003661185156    12.000000000000
         C           -0.656056826065     0.854112766144     0.013971185156    12.000000000000
         C           -2.396332826065    -0.693242233856    -0.001708814844    12.000000000000
         C           -3.070841826065     1.756700766144     0.022367185156    12.000000000000
         C            2.399450173935     0.444094766144    -0.024245814844    12.000000000000
         C            3.819603173935    -0.078575233856     0.046299185156    12.000000000000
         H           -0.174874826065     1.822728766144     0.021140185156     1.007825032230
         H           -3.382835826065    -1.139903233856    -0.003466814844     1.007825032230
         H            1.754128173935    -1.504157233856     0.030910185156     1.007825032230
         H           -2.951967826065     2.400593766144    -0.854770814844     1.007825032230
         H           -4.091590826065     1.364723766144     0.019348185156     1.007825032230
         H           -2.950910826065     2.384195766144     0.911174185156     1.007825032230
         H            3.935373173935    -1.054127233856    -0.433465814844     1.007825032230
         H            4.180908873935    -0.182708533856     1.284670885156     1.007825032230
         H            4.472912173935     0.644884766144    -0.441731814844     1.007825032230

  Basis Set: AUG-CC-PVTZ
    Blend: AUG-CC-PVTZ
  Basis Set: (AUG-CC-PVTZ AUX)
    Blend: AUG-CC-PVTZ-JKFIT
	 Reference Energy          =    -797.2992840200602132 [Eh]
	 Singles Energy            =      -0.0000000000000000 [Eh]
	 Same-Spin Energy          =      -0.4855578399526738 [Eh]
	 Opposite-Spin Energy      =      -1.5032520619119922 [Eh]
	 Correlation Energy        =      -1.9888099018646659 [Eh]
	 Total Energy              =    -799.2880939219248830 [Eh]

	 ================> DF-SCS-MP2 Energies <==================
	-----------------------------------------------------------
	 SCS Same-Spin Scale       =       0.3333333333333333 [-]
	 SCS Opposite-Spin Scale   =       1.2000000000000000 [-]
	 SCS Same-Spin Energy      =      -0.1618526133175579 [Eh]
	 SCS Opposite-Spin Energy  =      -1.8039024742943905 [Eh]
	 SCS Correlation Energy    =      -1.9657550876119485 [Eh]
	 SCS Total Energy          =    -799.2650391076721235 [Eh]
	-----------------------------------------------------------

  Dipole Moment: [D]
     X:     0.3792      Y:    -2.5176      Z:     0.1264     Total:     2.5491

*** Psi4 exiting successfully. Buy a developer a beer!
