                               Psi4 1.4a3.dev225

  ==> Input File <==

--------------------------------------------------------------------------
#psi4
#
memory 32 gb

molecule  {
0 1
  S       -1.0050790    -1.7376190    -0.0151270
  O        2.1293390     1.6156530    -0.0602560
  N        1.4328010    -0.5712990    -0.0002240
  C       -2.0712570     0.6114660     0.0102110
  C        0.0482060    -0.3546190     0.0027700
  C       -0.6600310     0.8254930     0.0130800
  C       -2.4003070    -0.7218620    -0.0026000
  C       -3.0881847     1.7429557     0.0216261
  C        2.3954760     0.4154750    -0.0251370
  C        3.8156290    -0.1071950     0.0454080
  H       -0.1788490     1.7941090     0.0202490
  H       -3.3868100    -1.1685230    -0.0043580
  H        1.7501540    -1.5327770     0.0300190
  H       -2.9559420     2.3719740    -0.8556620
  H       -4.0955650     1.3361040     0.0184570
  H       -2.9548850     2.3555760     0.9102830
  H        3.9313990    -1.0827470    -0.4343570
  H        4.1211000    -0.1952360     1.0924070
  H        4.4689380     0.6162650    -0.4426230
units angstrom
no_reorient  #important for SAPT in psi4, default
symmetry c1  #important for SAPT in psi4, default
}

set PROPERTIES_ORIGIN ["COM"]
properties('MP2/aug-cc-pvtz', properties = ['dipole'])
--------------------------------------------------------------------------

    Molecular point group: c1
  Charge       = 0
  Multiplicity = 1
  Basis Set: AUG-CC-PVTZ
    Blend: AUG-CC-PVTZ
  Basis Set: (AUG-CC-PVTZ AUX)
    Blend: AUG-CC-PVTZ-JKFIT

    Orbital Energies [Eh]
    ---------------------

    Doubly Occupied:

       1A    -91.984323     2A    -20.532911     3A    -15.619152
       4A    -11.369253     5A    -11.311584     6A    -11.249424
       7A    -11.249188     8A    -11.245687     9A    -11.225531
      10A    -11.221972    11A     -8.984802    12A     -6.665964
      13A     -6.665412    14A     -6.664521    15A     -1.388730
      16A     -1.264872    17A     -1.158896    18A     -1.036869
      19A     -1.011081    20A     -0.971615    21A     -0.913733
      22A     -0.825744    23A     -0.785109    24A     -0.727113
      25A     -0.687477    26A     -0.673553    27A     -0.632838
      28A     -0.608902    29A     -0.592771    30A     -0.582236
      31A     -0.578028    32A     -0.560230    33A     -0.558497
      34A     -0.525100    35A     -0.514707    36A     -0.503651
      37A     -0.472082    38A     -0.442673    39A     -0.433590
      40A     -0.340556    41A     -0.295538

  @DF-RHF Final Energy:  -797.31938340897580

   => Energetics <=

    Nuclear Repulsion Energy =            584.4712712549252274
    One-Electron Energy =               -2253.4294816804463153
    Two-Electron Energy =                 871.6388270165451786
    Total Energy =                       -797.3193834089757956
  Basis Set: (AUG-CC-PVTZ AUX)
    Blend: AUG-CC-PVTZ-RI
    Molecular point group: c1

    Geometry (in Angstrom), charge = 0, multiplicity = 1:

       Center              X                  Y                   Z               Mass
    ------------   -----------------  -----------------  -----------------  -----------------
         S           -0.999707152365    -1.710255129196    -0.013003433525    31.972071174400
         O            2.134710847635     1.643016870804    -0.058132433525    15.994914619570
         N            1.438172847635    -0.543935129196     0.001899566475    14.003074004430
         C           -2.065885152365     0.638829870804     0.012334566475    12.000000000000
         C            0.053577847635    -0.327255129196     0.004893566475    12.000000000000
         C           -0.654659152365     0.852856870804     0.015203566475    12.000000000000
         C           -2.394935152365    -0.694498129196    -0.000476433525    12.000000000000
         C           -3.082812852365     1.770319570804     0.023749666475    12.000000000000
         C            2.400847847635     0.442838870804    -0.023013433525    12.000000000000
         C            3.821000847635    -0.079831129196     0.047531566475    12.000000000000
         H           -0.173477152365     1.821472870804     0.022372566475     1.007825032230
         H           -3.381438152365    -1.141159129196    -0.002234433525     1.007825032230
         H            1.755525847635    -1.505413129196     0.032142566475     1.007825032230
         H           -2.950570152365     2.399337870804    -0.853538433525     1.007825032230
         H           -4.090193152365     1.363467870804     0.020580566475     1.007825032230
         H           -2.949513152365     2.382939870804     0.912406566475     1.007825032230
         H            3.936770847635    -1.055383129196    -0.432233433525     1.007825032230
         H            4.126471847635    -0.167872129196     1.094530566475     1.007825032230
         H            4.474309847635     0.643628870804    -0.440499433525     1.007825032230

  Basis Set: AUG-CC-PVTZ
    Blend: AUG-CC-PVTZ
  Basis Set: (AUG-CC-PVTZ AUX)
    Blend: AUG-CC-PVTZ-JKFIT
	 Reference Energy          =    -797.3193834089757956 [Eh]
	 Singles Energy            =      -0.0000000000000000 [Eh]
	 Same-Spin Energy          =      -0.4853887682172230 [Eh]
	 Opposite-Spin Energy      =      -1.5015738873466669 [Eh]
	 Correlation Energy        =      -1.9869626555638900 [Eh]
	 Total Energy              =    -799.3063460645396390 [Eh]

	 ================> DF-SCS-MP2 Energies <==================
	-----------------------------------------------------------
	 SCS Same-Spin Scale       =       0.3333333333333333 [-]
	 SCS Opposite-Spin Scale   =       1.2000000000000000 [-]
	 SCS Same-Spin Energy      =      -0.1617962560724077 [Eh]
	 SCS Opposite-Spin Energy  =      -1.8018886648160002 [Eh]
	 SCS Correlation Energy    =      -1.9636849208884077 [Eh]
	 SCS Total Energy          =    -799.2830683298642498 [Eh]
	-----------------------------------------------------------

  Dipole Moment: [D]
     X:     0.4255      Y:    -2.5260      Z:     0.1779     Total:     2.5678

*** Psi4 exiting successfully. Buy a developer a beer!
