                               Psi4 1.4a3.dev225

  ==> Input File <==

--------------------------------------------------------------------------
#psi4
#
memory 32 gb

molecule  {
0 1
  S       -1.0050790    -1.7376190    -0.0151270
  O        2.1293390     1.6156530    -0.0602560
  N        1.4328010    -0.5712990    -0.0002240
  C       -2.0712570     0.6114660     0.0102110
  C        0.0482060    -0.3546190     0.0027700
  C       -0.6600310     0.8254930     0.0130800
  C       -2.4003070    -0.7218620    -0.0026000
  C       -3.0748160     1.7280810     0.0214760
  C        2.3954760     0.4154750    -0.0251370
  C        3.8156290    -0.1071950     0.0454080
  H       -0.1788490     1.7941090     0.0202490
  H       -3.3868100    -1.1685230    -0.0043580
  H        1.7501540    -1.5327770     0.0300190
  H       -2.8839624     2.3845479    -0.8333493
  H       -4.0955650     1.3361040     0.0184570
  H       -2.9548850     2.3555760     0.9102830
  H        3.9313990    -1.0827470    -0.4343570
  H        4.1211000    -0.1952360     1.0924070
  H        4.4689380     0.6162650    -0.4426230
units angstrom
no_reorient  #important for SAPT in psi4, default
symmetry c1  #important for SAPT in psi4, default
}

set PROPERTIES_ORIGIN ["COM"]
properties('MP2/aug-cc-pvtz', properties = ['dipole'])
--------------------------------------------------------------------------

    Molecular point group: c1
  Charge       = 0
  Multiplicity = 1
  Basis Set: AUG-CC-PVTZ
    Blend: AUG-CC-PVTZ
  Basis Set: (AUG-CC-PVTZ AUX)
    Blend: AUG-CC-PVTZ-JKFIT

    Orbital Energies [Eh]
    ---------------------

    Doubly Occupied:

       1A    -91.984154     2A    -20.533039     3A    -15.619266
       4A    -11.369369     5A    -11.311793     6A    -11.249501
       7A    -11.248797     8A    -11.244684     9A    -11.226282
      10A    -11.221994    11A     -8.984640    12A     -6.665805
      13A     -6.665250    14A     -6.664359    15A     -1.388853
      16A     -1.264990    17A     -1.159560    18A     -1.038380
      19A     -1.012353    20A     -0.971740    21A     -0.912648
      22A     -0.825730    23A     -0.785265    24A     -0.727345
      25A     -0.687889    26A     -0.673781    27A     -0.632933
      28A     -0.610265    29A     -0.593719    30A     -0.580952
      31A     -0.577659    32A     -0.560085    33A     -0.557586
      34A     -0.525416    35A     -0.516523    36A     -0.502590
      37A     -0.472705    38A     -0.442298    39A     -0.433703
      40A     -0.339857    41A     -0.295438

  @DF-RHF Final Energy:  -797.31901323480542

   => Energetics <=

    Nuclear Repulsion Energy =            584.9231097562500281
    One-Electron Energy =               -2254.3258529731569979
    Two-Electron Energy =                 872.0837299821014312
    Total Energy =                       -797.3190132348054249
  Basis Set: (AUG-CC-PVTZ AUX)
    Blend: AUG-CC-PVTZ-RI
    Molecular point group: c1

    Geometry (in Angstrom), charge = 0, multiplicity = 1:

       Center              X                  Y                   Z               Mass
    ------------   -----------------  -----------------  -----------------  -----------------
         S           -1.001209774358    -1.709185575597    -0.013136857370    31.972071174400
         O            2.133208225642     1.644086424403    -0.058265857370    15.994914619570
         N            1.436670225642    -0.542865575597     0.001766142630    14.003074004430
         C           -2.067387774358     0.639899424403     0.012201142630    12.000000000000
         C            0.052075225642    -0.326185575597     0.004760142630    12.000000000000
         C           -0.656161774358     0.853926424403     0.015070142630    12.000000000000
         C           -2.396437774358    -0.693428575597    -0.000609857370    12.000000000000
         C           -3.070946774358     1.756514424403     0.023466142630    12.000000000000
         C            2.399345225642     0.443908424403    -0.023146857370    12.000000000000
         C            3.819498225642    -0.078761575597     0.047398142630    12.000000000000
         H           -0.174979774358     1.822542424403     0.022239142630     1.007825032230
         H           -3.382940774358    -1.140089575597    -0.002367857370     1.007825032230
         H            1.754023225642    -1.504343575597     0.032009142630     1.007825032230
         H           -2.880093174358     2.412981324403    -0.831359157370     1.007825032230
         H           -4.091695774358     1.364537424403     0.020447142630     1.007825032230
         H           -2.951015774358     2.384009424403     0.912273142630     1.007825032230
         H            3.935268225642    -1.054313575597    -0.432366857370     1.007825032230
         H            4.124969225642    -0.166802575597     1.094397142630     1.007825032230
         H            4.472807225642     0.644698424403    -0.440632857370     1.007825032230

  Basis Set: AUG-CC-PVTZ
    Blend: AUG-CC-PVTZ
  Basis Set: (AUG-CC-PVTZ AUX)
    Blend: AUG-CC-PVTZ-JKFIT
	 Reference Energy          =    -797.3190132348054249 [Eh]
	 Singles Energy            =      -0.0000000000000000 [Eh]
	 Same-Spin Energy          =      -0.4855510636240092 [Eh]
	 Opposite-Spin Energy      =      -1.5017267754534074 [Eh]
	 Correlation Energy        =      -1.9872778390774166 [Eh]
	 Total Energy              =    -799.3062910738827895 [Eh]

	 ================> DF-SCS-MP2 Energies <==================
	-----------------------------------------------------------
	 SCS Same-Spin Scale       =       0.3333333333333333 [-]
	 SCS Opposite-Spin Scale   =       1.2000000000000000 [-]
	 SCS Same-Spin Energy      =      -0.1618503545413364 [Eh]
	 SCS Opposite-Spin Energy  =      -1.8020721305440888 [Eh]
	 SCS Correlation Energy    =      -1.9639224850854251 [Eh]
	 SCS Total Energy          =    -799.2829357198908156 [Eh]
	-----------------------------------------------------------

  Dipole Moment: [D]
     X:     0.4406      Y:    -2.5114      Z:     0.1937     Total:     2.5571

*** Psi4 exiting successfully. Buy a developer a beer!
