                               Psi4 1.4a3.dev225

  ==> Input File <==

--------------------------------------------------------------------------
#psi4
#
memory 32 gb

molecule  {
0 1
  S       -1.0050790    -1.7376190    -0.0151270
  O        2.1293390     1.6156530    -0.0602560
  N        1.4328010    -0.5712990    -0.0002240
  C       -2.0712570     0.6114660     0.0102110
  C        0.0482060    -0.3546190     0.0027700
  C       -0.6600310     0.8254930     0.0130800
  C       -2.4003070    -0.7218620    -0.0026000
  C       -3.0748160     1.7280810     0.0214760
  C        2.3954760     0.4154750    -0.0251370
  C        3.8156290    -0.1071950     0.0454080
  H       -0.1788490     1.7941090     0.0202490
  H       -3.3868100    -1.1685230    -0.0043580
  H        1.7501540    -1.5327770     0.0300190
  H       -2.9559420     2.3719740    -0.8556620
  H       -4.0955650     1.3361040     0.0184570
  H       -2.9548850     2.3555760     0.9102830
  H        3.9313990    -1.0827470    -0.4343570
  H        4.1211000    -0.1952360     1.0924070
  H        4.5887970     0.7489942    -0.5321594
units angstrom
no_reorient  #important for SAPT in psi4, default
symmetry c1  #important for SAPT in psi4, default
}

set PROPERTIES_ORIGIN ["COM"]
properties('MP2/aug-cc-pvtz', properties = ['dipole'])
--------------------------------------------------------------------------

    Molecular point group: c1
  Charge       = 0
  Multiplicity = 1
  Basis Set: AUG-CC-PVTZ
    Blend: AUG-CC-PVTZ
  Basis Set: (AUG-CC-PVTZ AUX)
    Blend: AUG-CC-PVTZ-JKFIT

    Orbital Energies [Eh]
    ---------------------

    Doubly Occupied:

       1A    -91.984935     2A    -20.532863     3A    -15.620610
       4A    -11.370752     5A    -11.312362     6A    -11.270113
       7A    -11.249793     8A    -11.245365     9A    -11.226283
      10A    -11.222581    11A     -8.985412    12A     -6.666575
      13A     -6.666022    14A     -6.665131    15A     -1.388867
      16A     -1.265885    17A     -1.160166    18A     -1.035715
      19A     -1.007438    20A     -0.969676    21A     -0.911464
      22A     -0.823080    23A     -0.785652    24A     -0.727915
      25A     -0.688036    26A     -0.674380    27A     -0.632104
      28A     -0.608164    29A     -0.592575    30A     -0.581414
      31A     -0.571268    32A     -0.560846    33A     -0.531986
      34A     -0.520693    35A     -0.516547    36A     -0.500154
      37A     -0.473421    38A     -0.442782    39A     -0.434412
      40A     -0.340752    41A     -0.296155

  @DF-RHF Final Energy:  -797.29862411923443

   => Energetics <=

    Nuclear Repulsion Energy =            584.0112037447339617
    One-Electron Energy =               -2252.4989741307472286
    Two-Electron Energy =                 871.1891462667789483
    Total Energy =                       -797.2986241192344323
  Basis Set: (AUG-CC-PVTZ AUX)
    Blend: AUG-CC-PVTZ-RI
    Molecular point group: c1

    Geometry (in Angstrom), charge = 0, multiplicity = 1:

       Center              X                  Y                   Z               Mass
    ------------   -----------------  -----------------  -----------------  -----------------
         S           -1.001521009568    -1.709966633003    -0.012409793579    31.972071174400
         O            2.132896990432     1.643305366997    -0.057538793579    15.994914619570
         N            1.436358990432    -0.543646633003     0.002493206421    14.003074004430
         C           -2.067699009568     0.639118366997     0.012928206421    12.000000000000
         C            0.051763990432    -0.326966633003     0.005487206421    12.000000000000
         C           -0.656473009568     0.853145366997     0.015797206421    12.000000000000
         C           -2.396749009568    -0.694209633003     0.000117206421    12.000000000000
         C           -3.071258009568     1.755733366997     0.024193206421    12.000000000000
         C            2.399033990432     0.443127366997    -0.022419793579    12.000000000000
         C            3.819186990432    -0.079542633003     0.048125206421    12.000000000000
         H           -0.175291009568     1.821761366997     0.022966206421     1.007825032230
         H           -3.383252009568    -1.140870633003    -0.001640793579     1.007825032230
         H            1.753711990432    -1.505124633003     0.032736206421     1.007825032230
         H           -2.952384009568     2.399626366997    -0.852944793579     1.007825032230
         H           -4.092007009568     1.363756366997     0.021174206421     1.007825032230
         H           -2.951327009568     2.383228366997     0.913000206421     1.007825032230
         H            3.934956990432    -1.055094633003    -0.431639793579     1.007825032230
         H            4.124657990432    -0.167583633003     1.095124206421     1.007825032230
         H            4.592354990432     0.776646566997    -0.529442193579     1.007825032230

  Basis Set: AUG-CC-PVTZ
    Blend: AUG-CC-PVTZ
  Basis Set: (AUG-CC-PVTZ AUX)
    Blend: AUG-CC-PVTZ-JKFIT
	 Reference Energy          =    -797.2986241192344323 [Eh]
	 Singles Energy            =      -0.0000000000000000 [Eh]
	 Same-Spin Energy          =      -0.4856233525690300 [Eh]
	 Opposite-Spin Energy      =      -1.5034173063862468 [Eh]
	 Correlation Energy        =      -1.9890406589552767 [Eh]
	 Total Energy              =    -799.2876647781897645 [Eh]

	 ================> DF-SCS-MP2 Energies <==================
	-----------------------------------------------------------
	 SCS Same-Spin Scale       =       0.3333333333333333 [-]
	 SCS Opposite-Spin Scale   =       1.2000000000000000 [-]
	 SCS Same-Spin Energy      =      -0.1618744508563433 [Eh]
	 SCS Opposite-Spin Energy  =      -1.8041007676634961 [Eh]
	 SCS Correlation Energy    =      -1.9659752185198394 [Eh]
	 SCS Total Energy          =    -799.2645993377542482 [Eh]
	-----------------------------------------------------------

  Dipole Moment: [D]
     X:     0.3545      Y:    -2.5372      Z:     0.1941     Total:     2.5692

*** Psi4 exiting successfully. Buy a developer a beer!
