                               Psi4 1.4a3.dev225

  ==> Input File <==

--------------------------------------------------------------------------
#psi4
#
memory 32 gb

molecule  {
0 1
  S       -0.9561673    -1.7735324    -0.0156011
  O        2.1293390     1.6156530    -0.0602560
  N        1.4328010    -0.5712990    -0.0002240
  C       -2.0712570     0.6114660     0.0102110
  C        0.0482060    -0.3546190     0.0027700
  C       -0.6600310     0.8254930     0.0130800
  C       -2.4003070    -0.7218620    -0.0026000
  C       -3.0748160     1.7280810     0.0214760
  C        2.3954760     0.4154750    -0.0251370
  C        3.8156290    -0.1071950     0.0454080
  H       -0.1788490     1.7941090     0.0202490
  H       -3.3868100    -1.1685230    -0.0043580
  H        1.7501540    -1.5327770     0.0300190
  H       -2.9559420     2.3719740    -0.8556620
  H       -4.0955650     1.3361040     0.0184570
  H       -2.9548850     2.3555760     0.9102830
  H        3.9313990    -1.0827470    -0.4343570
  H        4.1211000    -0.1952360     1.0924070
  H        4.4689380     0.6162650    -0.4426230
units angstrom
no_reorient  #important for SAPT in psi4, default
symmetry c1  #important for SAPT in psi4, default
}

set PROPERTIES_ORIGIN ["COM"]
properties('MP2/aug-cc-pvtz', properties = ['dipole'])
--------------------------------------------------------------------------

    Molecular point group: c1
  Charge       = 0
  Multiplicity = 1
  Basis Set: AUG-CC-PVTZ
    Blend: AUG-CC-PVTZ
  Basis Set: (AUG-CC-PVTZ AUX)
    Blend: AUG-CC-PVTZ-JKFIT

    Orbital Energies [Eh]
    ---------------------

    Doubly Occupied:

       1A    -91.985785     2A    -20.533054     3A    -15.618724
       4A    -11.369035     5A    -11.313356     6A    -11.254094
       7A    -11.249323     8A    -11.247842     9A    -11.227698
      10A    -11.222260    11A     -8.985265    12A     -6.666444
      13A     -6.665694    14A     -6.664947    15A     -1.388809
      16A     -1.265230    17A     -1.153287    18A     -1.039429
      19A     -1.009128    20A     -0.967624    21A     -0.915235
      22A     -0.825637    23A     -0.786302    24A     -0.724243
      25A     -0.689278    26A     -0.673009    27A     -0.632769
      28A     -0.608457    29A     -0.591566    30A     -0.581127
      31A     -0.578285    32A     -0.559310    33A     -0.557870
      34A     -0.522680    35A     -0.516818    36A     -0.500687
      37A     -0.472736    38A     -0.439735    39A     -0.433512
      40A     -0.342847    41A     -0.295635

  @DF-RHF Final Energy:  -797.31730004821748

   => Energetics <=

    Nuclear Repulsion Energy =            583.3525629667218482
    One-Electron Energy =               -2251.1901886382629527
    Two-Electron Energy =                 870.5203256233235152
    Total Energy =                       -797.3173000482174757
  Basis Set: (AUG-CC-PVTZ AUX)
    Blend: AUG-CC-PVTZ-RI
    Molecular point group: c1

    Geometry (in Angstrom), charge = 0, multiplicity = 1:

       Center              X                  Y                   Z               Mass
    ------------   -----------------  -----------------  -----------------  -----------------
         S           -0.961916629861    -1.737611266362    -0.013368148167    31.972071174400
         O            2.123589670139     1.651574133638    -0.058023048167    15.994914619570
         N            1.427051670139    -0.535377866362     0.002008951833    14.003074004430
         C           -2.077006329861     0.647387133638     0.012443951833    12.000000000000
         C            0.042456670139    -0.318697866362     0.005002951833    12.000000000000
         C           -0.665780329861     0.861414133638     0.015312951833    12.000000000000
         C           -2.406056329861    -0.685940866362    -0.000367048167    12.000000000000
         C           -3.080565329861     1.764002133638     0.023708951833    12.000000000000
         C            2.389726670139     0.451396133638    -0.022904048167    12.000000000000
         C            3.809879670139    -0.071273866362     0.047640951833    12.000000000000
         H           -0.184598329861     1.830030133638     0.022481951833     1.007825032230
         H           -3.392559329861    -1.132601866362    -0.002125048167     1.007825032230
         H            1.744404670139    -1.496855866362     0.032251951833     1.007825032230
         H           -2.961691329861     2.407895133638    -0.853429048167     1.007825032230
         H           -4.101314329861     1.372025133638     0.020689951833     1.007825032230
         H           -2.960634329861     2.391497133638     0.912515951833     1.007825032230
         H            3.925649670139    -1.046825866362    -0.432124048167     1.007825032230
         H            4.115350670139    -0.159314866362     1.094639951833     1.007825032230
         H            4.463188670139     0.652186133638    -0.440390048167     1.007825032230

  Basis Set: AUG-CC-PVTZ
    Blend: AUG-CC-PVTZ
  Basis Set: (AUG-CC-PVTZ AUX)
    Blend: AUG-CC-PVTZ-JKFIT
	 Reference Energy          =    -797.3173000482174757 [Eh]
	 Singles Energy            =      -0.0000000000000000 [Eh]
	 Same-Spin Energy          =      -0.4849071179989150 [Eh]
	 Opposite-Spin Energy      =      -1.5020716396842899 [Eh]
	 Correlation Energy        =      -1.9869787576832050 [Eh]
	 Total Energy              =    -799.3042788059007080 [Eh]

	 ================> DF-SCS-MP2 Energies <==================
	-----------------------------------------------------------
	 SCS Same-Spin Scale       =       0.3333333333333333 [-]
	 SCS Opposite-Spin Scale   =       1.2000000000000000 [-]
	 SCS Same-Spin Energy      =      -0.1616357059996383 [Eh]
	 SCS Opposite-Spin Energy  =      -1.8024859676211478 [Eh]
	 SCS Correlation Energy    =      -1.9641216736207860 [Eh]
	 SCS Total Energy          =    -799.2814217218382282 [Eh]
	-----------------------------------------------------------

  Dipole Moment: [D]
     X:     0.4040      Y:    -2.4524      Z:     0.1784     Total:     2.4918

*** Psi4 exiting successfully. Buy a developer a beer!
