                               Psi4 1.4a3.dev225

  ==> Input File <==

--------------------------------------------------------------------------
#psi4
#
memory 32 gb

molecule  {
0 1
  S       -1.0050790    -1.7376190    -0.0151270
  O        2.1293390     1.6156530    -0.0602560
  N        1.4328010    -0.5712990    -0.0002240
  C       -2.0712570     0.6114660     0.0102110
  C        0.0482060    -0.3546190     0.0027700
  C       -0.6600310     0.8254930     0.0130800
  C       -2.4003070    -0.7218620    -0.0026000
  C       -3.0748160     1.7280810     0.0214760
  C        2.3954760     0.4154750    -0.0251370
  C        3.8156290    -0.1071950     0.0454080
  H       -0.1788490     1.7941090     0.0202490
  H       -3.3868100    -1.1685230    -0.0043580
  H        1.7501540    -1.5327770     0.0300190
  H       -2.9559420     2.3719740    -0.8556620
  H       -4.0955650     1.3361040     0.0184570
  H       -2.9548850     2.3555760     0.9102830
  H        3.9313990    -1.0827470    -0.4343570
  H        4.1211000    -0.1952360     1.0924070
  H        4.4809239     0.6295379    -0.4515766
units angstrom
no_reorient  #important for SAPT in psi4, default
symmetry c1  #important for SAPT in psi4, default
}

set PROPERTIES_ORIGIN ["COM"]
properties('MP2/aug-cc-pvtz', properties = ['dipole'])
--------------------------------------------------------------------------

    Molecular point group: c1
  Charge       = 0
  Multiplicity = 1
  Basis Set: AUG-CC-PVTZ
    Blend: AUG-CC-PVTZ
  Basis Set: (AUG-CC-PVTZ AUX)
    Blend: AUG-CC-PVTZ-JKFIT

    Orbital Energies [Eh]
    ---------------------

    Doubly Occupied:

       1A    -91.984442     2A    -20.532943     3A    -15.619343
       4A    -11.369428     5A    -11.311761     6A    -11.251680
       7A    -11.249324     8A    -11.244975     9A    -11.226007
      10A    -11.222051    11A     -8.984924    12A     -6.666088
      13A     -6.665534    14A     -6.664644    15A     -1.388779
      16A     -1.265035    17A     -1.159646    18A     -1.037688
      19A     -1.011461    20A     -0.971557    21A     -0.912577
      22A     -0.825360    23A     -0.785348    24A     -0.727460
      25A     -0.688158    26A     -0.673846    27A     -0.632618
      28A     -0.609757    29A     -0.592728    30A     -0.580865
      31A     -0.576074    32A     -0.560128    33A     -0.556755
      34A     -0.523471    35A     -0.516212    36A     -0.503016
      37A     -0.473029    38A     -0.442518    39A     -0.433701
      40A     -0.340342    41A     -0.295625

  @DF-RHF Final Energy:  -797.31895466079163

   => Energetics <=

    Nuclear Repulsion Energy =            584.7412829614443126
    One-Electron Energy =               -2253.9666757550708098
    Two-Electron Energy =                 871.9064381328348645
    Total Energy =                       -797.3189546607916327
  Basis Set: (AUG-CC-PVTZ AUX)
    Blend: AUG-CC-PVTZ-RI
    Molecular point group: c1

    Geometry (in Angstrom), charge = 0, multiplicity = 1:

       Center              X                  Y                   Z               Mass
    ------------   -----------------  -----------------  -----------------  -----------------
         S           -1.000819791364    -1.709190119376    -0.012933613941    31.972071174400
         O            2.133598208636     1.644081880624    -0.058062613941    15.994914619570
         N            1.437060208636    -0.542870119376     0.001969386059    14.003074004430
         C           -2.066997791364     0.639894880624     0.012404386059    12.000000000000
         C            0.052465208636    -0.326190119376     0.004963386059    12.000000000000
         C           -0.655771791364     0.853921880624     0.015273386059    12.000000000000
         C           -2.396047791364    -0.693433119376    -0.000406613941    12.000000000000
         C           -3.070556791364     1.756509880624     0.023669386059    12.000000000000
         C            2.399735208636     0.443903880624    -0.022943613941    12.000000000000
         C            3.819888208636    -0.078766119376     0.047601386059    12.000000000000
         H           -0.174589791364     1.822537880624     0.022442386059     1.007825032230
         H           -3.382550791364    -1.140094119376    -0.002164613941     1.007825032230
         H            1.754413208636    -1.504348119376     0.032212386059     1.007825032230
         H           -2.951682791364     2.400402880624    -0.853468613941     1.007825032230
         H           -4.091305791364     1.364532880624     0.020650386059     1.007825032230
         H           -2.950625791364     2.384004880624     0.912476386059     1.007825032230
         H            3.935658208636    -1.054318119376    -0.432163613941     1.007825032230
         H            4.125359208636    -0.166807119376     1.094600386059     1.007825032230
         H            4.485183108636     0.657966780624    -0.449383213941     1.007825032230

  Basis Set: AUG-CC-PVTZ
    Blend: AUG-CC-PVTZ
  Basis Set: (AUG-CC-PVTZ AUX)
    Blend: AUG-CC-PVTZ-JKFIT
	 Reference Energy          =    -797.3189546607916327 [Eh]
	 Singles Energy            =      -0.0000000000000000 [Eh]
	 Same-Spin Energy          =      -0.4855318659872907 [Eh]
	 Opposite-Spin Energy      =      -1.5018275097043063 [Eh]
	 Correlation Energy        =      -1.9873593756915970 [Eh]
	 Total Energy              =    -799.3063140364832861 [Eh]

	 ================> DF-SCS-MP2 Energies <==================
	-----------------------------------------------------------
	 SCS Same-Spin Scale       =       0.3333333333333333 [-]
	 SCS Opposite-Spin Scale   =       1.2000000000000000 [-]
	 SCS Same-Spin Energy      =      -0.1618439553290969 [Eh]
	 SCS Opposite-Spin Energy  =      -1.8021930116451674 [Eh]
	 SCS Correlation Energy    =      -1.9640369669742643 [Eh]
	 SCS Total Energy          =    -799.2829916277659095 [Eh]
	-----------------------------------------------------------

  Dipole Moment: [D]
     X:     0.4242      Y:    -2.5279      Z:     0.1788     Total:     2.5695

*** Psi4 exiting successfully. Buy a developer a beer!
