                               Psi4 1.4a3.dev225

  ==> Input File <==

--------------------------------------------------------------------------
#psi4
#
memory 32 gb

molecule  {
0 1
  S       -1.0050790    -1.7376190    -0.0151270
  O        2.1293390     1.6156530    -0.0602560
  N        1.4328010    -0.5712990    -0.0002240
  C       -2.0712570     0.6114660     0.0102110
  C        0.0482060    -0.3546190     0.0027700
  C       -0.6600310     0.8254930     0.0130800
  C       -2.4003070    -0.7218620    -0.0026000
  C       -3.0748160     1.7280810     0.0214760
  C        2.3954760     0.4154750    -0.0251370
  C        3.8156290    -0.1071950     0.0454080
  H       -0.1788490     1.7941090     0.0202490
  H       -3.2957127    -1.1272767    -0.0041957
  H        1.7501540    -1.5327770     0.0300190
  H       -2.9559420     2.3719740    -0.8556620
  H       -4.0955650     1.3361040     0.0184570
  H       -2.9548850     2.3555760     0.9102830
  H        3.9313990    -1.0827470    -0.4343570
  H        4.1211000    -0.1952360     1.0924070
  H        4.4689380     0.6162650    -0.4426230
units angstrom
no_reorient  #important for SAPT in psi4, default
symmetry c1  #important for SAPT in psi4, default
}

set PROPERTIES_ORIGIN ["COM"]
properties('MP2/aug-cc-pvtz', properties = ['dipole'])
--------------------------------------------------------------------------

    Molecular point group: c1
  Charge       = 0
  Multiplicity = 1
  Basis Set: AUG-CC-PVTZ
    Blend: AUG-CC-PVTZ
  Basis Set: (AUG-CC-PVTZ AUX)
    Blend: AUG-CC-PVTZ-JKFIT

    Orbital Energies [Eh]
    ---------------------

    Doubly Occupied:

       1A    -91.983753     2A    -20.532904     3A    -15.619127
       4A    -11.369239     5A    -11.311662     6A    -11.249416
       7A    -11.244790     8A    -11.237800     9A    -11.226153
      10A    -11.221559    11A     -8.984285    12A     -6.665461
      13A     -6.664900    14A     -6.664022    15A     -1.388717
      16A     -1.264856    17A     -1.160122    18A     -1.038398
      19A     -1.012373    20A     -0.975338    21A     -0.914284
      22A     -0.827292    23A     -0.791781    24A     -0.734871
      25A     -0.689542    26A     -0.676076    27A     -0.632828
      28A     -0.611054    29A     -0.593429    30A     -0.582305
      31A     -0.580852    32A     -0.564211    33A     -0.558226
      34A     -0.523531    35A     -0.518320    36A     -0.502964
      37A     -0.472641    38A     -0.442374    39A     -0.433558
      40A     -0.339991    41A     -0.295561

  @DF-RHF Final Energy:  -797.31346688522717

   => Energetics <=

    Nuclear Repulsion Energy =            585.4281927348550880
    One-Electron Energy =               -2255.2821871776436637
    Two-Electron Energy =                 872.5405275575612905
    Total Energy =                       -797.3134668852271716
  Basis Set: (AUG-CC-PVTZ AUX)
    Blend: AUG-CC-PVTZ-RI
    Molecular point group: c1

    Geometry (in Angstrom), charge = 0, multiplicity = 1:

       Center              X                  Y                   Z               Mass
    ------------   -----------------  -----------------  -----------------  -----------------
         S           -1.001334047038    -1.709371957641    -0.012992870929    31.972071174400
         O            2.133083952962     1.643900042359    -0.058121870929    15.994914619570
         N            1.436545952962    -0.543051957641     0.001910129071    14.003074004430
         C           -2.067512047038     0.639713042359     0.012345129071    12.000000000000
         C            0.051950952962    -0.326371957641     0.004904129071    12.000000000000
         C           -0.656286047038     0.853740042359     0.015214129071    12.000000000000
         C           -2.396562047038    -0.693614957641    -0.000465870929    12.000000000000
         C           -3.071071047038     1.756328042359     0.023610129071    12.000000000000
         C            2.399220952962     0.443722042359    -0.023002870929    12.000000000000
         C            3.819373952962    -0.078947957641     0.047542129071    12.000000000000
         H           -0.175104047038     1.822356042359     0.022383129071     1.007825032230
         H           -3.291967747038    -1.099029657641    -0.002061570929     1.007825032230
         H            1.753898952962    -1.504529957641     0.032153129071     1.007825032230
         H           -2.952197047038     2.400221042359    -0.853527870929     1.007825032230
         H           -4.091820047038     1.364351042359     0.020591129071     1.007825032230
         H           -2.951140047038     2.383823042359     0.912417129071     1.007825032230
         H            3.935143952962    -1.054499957641    -0.432222870929     1.007825032230
         H            4.124844952962    -0.166988957641     1.094541129071     1.007825032230
         H            4.472682952962     0.644512042359    -0.440488870929     1.007825032230

  Basis Set: AUG-CC-PVTZ
    Blend: AUG-CC-PVTZ
  Basis Set: (AUG-CC-PVTZ AUX)
    Blend: AUG-CC-PVTZ-JKFIT
	 Reference Energy          =    -797.3134668852271716 [Eh]
	 Singles Energy            =      -0.0000000000000000 [Eh]
	 Same-Spin Energy          =      -0.4853283757474991 [Eh]
	 Opposite-Spin Energy      =      -1.5012332902575873 [Eh]
	 Correlation Energy        =      -1.9865616660050864 [Eh]
	 Total Energy              =    -799.3000285512322307 [Eh]

	 ================> DF-SCS-MP2 Energies <==================
	-----------------------------------------------------------
	 SCS Same-Spin Scale       =       0.3333333333333333 [-]
	 SCS Opposite-Spin Scale   =       1.2000000000000000 [-]
	 SCS Same-Spin Energy      =      -0.1617761252491663 [Eh]
	 SCS Opposite-Spin Energy  =      -1.8014799483091046 [Eh]
	 SCS Correlation Energy    =      -1.9632560735582709 [Eh]
	 SCS Total Energy          =    -799.2767229587853990 [Eh]
	-----------------------------------------------------------

  Dipole Moment: [D]
     X:     0.4360      Y:    -2.5164      Z:     0.1779     Total:     2.5601

*** Psi4 exiting successfully. Buy a developer a beer!
