                               Psi4 1.4a3.dev225

  ==> Input File <==

--------------------------------------------------------------------------
#psi4
#
memory 32 gb

molecule  {
0 1
  S       -1.0050790    -1.7376190    -0.0151270
  O        2.1293390     1.6156530    -0.0602560
  N        1.4328010    -0.5712990    -0.0002240
  C       -2.0712570     0.6114660     0.0102110
  C        0.0976047    -0.3623496     0.0026632
  C       -0.6600310     0.8254930     0.0130800
  C       -2.4003070    -0.7218620    -0.0026000
  C       -3.0748160     1.7280810     0.0214760
  C        2.3954760     0.4154750    -0.0251370
  C        3.8156290    -0.1071950     0.0454080
  H       -0.1788490     1.7941090     0.0202490
  H       -3.3868100    -1.1685230    -0.0043580
  H        1.7501540    -1.5327770     0.0300190
  H       -2.9559420     2.3719740    -0.8556620
  H       -4.0955650     1.3361040     0.0184570
  H       -2.9548850     2.3555760     0.9102830
  H        3.9313990    -1.0827470    -0.4343570
  H        4.1211000    -0.1952360     1.0924070
  H        4.4689380     0.6162650    -0.4426230
units angstrom
no_reorient  #important for SAPT in psi4, default
symmetry c1  #important for SAPT in psi4, default
}

set PROPERTIES_ORIGIN ["COM"]
properties('MP2/aug-cc-pvtz', properties = ['dipole'])
--------------------------------------------------------------------------

    Molecular point group: c1
  Charge       = 0
  Multiplicity = 1
  Basis Set: AUG-CC-PVTZ
    Blend: AUG-CC-PVTZ
  Basis Set: (AUG-CC-PVTZ AUX)
    Blend: AUG-CC-PVTZ-JKFIT

    Orbital Energies [Eh]
    ---------------------

    Doubly Occupied:

       1A    -91.983249     2A    -20.537297     3A    -15.623535
       4A    -11.372678     5A    -11.315102     6A    -11.251958
       7A    -11.247431     8A    -11.243894     9A    -11.225079
      10A    -11.223008    11A     -8.983200    12A     -6.664322
      13A     -6.663846    14A     -6.662965    15A     -1.394211
      16A     -1.280237    17A     -1.152980    18A     -1.040756
      19A     -1.011507    20A     -0.965503    21A     -0.913102
      22A     -0.834629    23A     -0.793432    24A     -0.725631
      25A     -0.687844    26A     -0.675246    27A     -0.638177
      28A     -0.610808    29A     -0.597417    30A     -0.580375
      31A     -0.578103    32A     -0.563326    33A     -0.561625
      34A     -0.520804    35A     -0.512030    36A     -0.501312
      37A     -0.467373    38A     -0.447278    39A     -0.436065
      40A     -0.337325    41A     -0.288170

  @DF-RHF Final Energy:  -797.31477181083699

   => Energetics <=

    Nuclear Repulsion Energy =            584.6412138354316994
    One-Electron Energy =               -2253.6863171320383117
    Two-Electron Energy =                 871.7303314857696250
    Total Energy =                       -797.3147718108369872
  Basis Set: (AUG-CC-PVTZ AUX)
    Blend: AUG-CC-PVTZ-RI
    Molecular point group: c1

    Geometry (in Angstrom), charge = 0, multiplicity = 1:

       Center              X                  Y                   Z               Mass
    ------------   -----------------  -----------------  -----------------  -----------------
         S           -1.004565295060    -1.708505498448    -0.012983549686    31.972071174400
         O            2.129852704940     1.644766501552    -0.058112549686    15.994914619570
         N            1.433314704940    -0.542185498448     0.001919450314    14.003074004430
         C           -2.070743295060     0.640579501552     0.012354450314    12.000000000000
         C            0.098118404940    -0.333236098448     0.004806650314    12.000000000000
         C           -0.659517295060     0.854606501552     0.015223450314    12.000000000000
         C           -2.399793295060    -0.692748498448    -0.000456549686    12.000000000000
         C           -3.074302295060     1.757194501552     0.023619450314    12.000000000000
         C            2.395989704940     0.444588501552    -0.022993549686    12.000000000000
         C            3.816142704940    -0.078081498448     0.047551450314    12.000000000000
         H           -0.178335295060     1.823222501552     0.022392450314     1.007825032230
         H           -3.386296295060    -1.139409498448    -0.002214549686     1.007825032230
         H            1.750667704940    -1.503663498448     0.032162450314     1.007825032230
         H           -2.955428295060     2.401087501552    -0.853518549686     1.007825032230
         H           -4.095051295060     1.365217501552     0.020600450314     1.007825032230
         H           -2.954371295060     2.384689501552     0.912426450314     1.007825032230
         H            3.931912704940    -1.053633498448    -0.432213549686     1.007825032230
         H            4.121613704940    -0.166122498448     1.094550450314     1.007825032230
         H            4.469451704940     0.645378501552    -0.440479549686     1.007825032230

  Basis Set: AUG-CC-PVTZ
    Blend: AUG-CC-PVTZ
  Basis Set: (AUG-CC-PVTZ AUX)
    Blend: AUG-CC-PVTZ-JKFIT
	 Reference Energy          =    -797.3147718108369872 [Eh]
	 Singles Energy            =      -0.0000000000000000 [Eh]
	 Same-Spin Energy          =      -0.4863502255584006 [Eh]
	 Opposite-Spin Energy      =      -1.5026574616876518 [Eh]
	 Correlation Energy        =      -1.9890076872460525 [Eh]
	 Total Energy              =    -799.3037794980830313 [Eh]

	 ================> DF-SCS-MP2 Energies <==================
	-----------------------------------------------------------
	 SCS Same-Spin Scale       =       0.3333333333333333 [-]
	 SCS Opposite-Spin Scale   =       1.2000000000000000 [-]
	 SCS Same-Spin Energy      =      -0.1621167418528002 [Eh]
	 SCS Opposite-Spin Energy  =      -1.8031889540251820 [Eh]
	 SCS Correlation Energy    =      -1.9653056958779822 [Eh]
	 SCS Total Energy          =    -799.2800775067149743 [Eh]
	-----------------------------------------------------------

  Dipole Moment: [D]
     X:     0.6788      Y:    -2.4954      Z:     0.1773     Total:     2.5922

*** Psi4 exiting successfully. Buy a developer a beer!
