                               Psi4 1.4a3.dev225

  ==> Input File <==

--------------------------------------------------------------------------
#psi4
#
memory 32 gb

molecule  {
0 1
  S       -1.0050790    -1.7376190    -0.0151270
  O        2.1293390     1.6156530    -0.0602560
  N        1.4328010    -0.5712990    -0.0002240
  C       -2.0712570     0.6114660     0.0102110
  C        0.0482060    -0.3546190     0.0027700
  C       -0.6600310     0.8254930     0.0130800
  C       -2.4003070    -0.7218620    -0.0026000
  C       -3.0748160     1.7280810     0.0214760
  C        2.4171161     0.3178863    -0.0222814
  C        3.8156290    -0.1071950     0.0454080
  H       -0.1788490     1.7941090     0.0202490
  H       -3.3868100    -1.1685230    -0.0043580
  H        1.7501540    -1.5327770     0.0300190
  H       -2.9559420     2.3719740    -0.8556620
  H       -4.0955650     1.3361040     0.0184570
  H       -2.9548850     2.3555760     0.9102830
  H        3.9313990    -1.0827470    -0.4343570
  H        4.1211000    -0.1952360     1.0924070
  H        4.4689380     0.6162650    -0.4426230
units angstrom
no_reorient  #important for SAPT in psi4, default
symmetry c1  #important for SAPT in psi4, default
}

set PROPERTIES_ORIGIN ["COM"]
properties('MP2/aug-cc-pvtz', properties = ['dipole'])
--------------------------------------------------------------------------

    Molecular point group: c1
  Charge       = 0
  Multiplicity = 1
  Basis Set: AUG-CC-PVTZ
    Blend: AUG-CC-PVTZ
  Basis Set: (AUG-CC-PVTZ AUX)
    Blend: AUG-CC-PVTZ-JKFIT

    Orbital Energies [Eh]
    ---------------------

    Doubly Occupied:

       1A    -91.989236     2A    -20.511111     3A    -15.632185
       4A    -11.368042     5A    -11.315529     6A    -11.254716
       7A    -11.251354     8A    -11.247822     9A    -11.227835
      10A    -11.227266    11A     -8.989588    12A     -6.670742
      13A     -6.670206    14A     -6.669307    15A     -1.349566
      16A     -1.252978    17A     -1.165805    18A     -1.049438
      19A     -1.019546    20A     -0.977750    21A     -0.920122
      22A     -0.837617    23A     -0.791425    24A     -0.727877
      25A     -0.692886    26A     -0.671003    27A     -0.636627
      28A     -0.611098    29A     -0.584106    30A     -0.583529
      31A     -0.570234    32A     -0.562328    33A     -0.552755
      34A     -0.524286    35A     -0.518471    36A     -0.493962
      37A     -0.476272    38A     -0.420618    39A     -0.420321
      40A     -0.343079    41A     -0.301868

  @DF-RHF Final Energy:  -797.29722267135935

   => Energetics <=

    Nuclear Repulsion Energy =            584.4861019209220103
    One-Electron Energy =               -2253.4056365204096437
    Two-Electron Energy =                 871.6223119281282834
    Total Energy =                       -797.2972226713593500
  Basis Set: (AUG-CC-PVTZ AUX)
    Blend: AUG-CC-PVTZ-RI
    Molecular point group: c1

    Geometry (in Angstrom), charge = 0, multiplicity = 1:

       Center              X                  Y                   Z               Mass
    ------------   -----------------  -----------------  -----------------  -----------------
         S           -1.002416803330    -1.701550558908    -0.013212836895    31.972071174400
         O            2.132001196670     1.651721441092    -0.058341836895    15.994914619570
         N            1.435463196670    -0.535230558908     0.001690163105    14.003074004430
         C           -2.068594803330     0.647534441092     0.012125163105    12.000000000000
         C            0.050868196670    -0.318550558908     0.004684163105    12.000000000000
         C           -0.657368803330     0.861561441092     0.014994163105    12.000000000000
         C           -2.397644803330    -0.685793558908    -0.000685836895    12.000000000000
         C           -3.072153803330     1.764149441092     0.023390163105    12.000000000000
         C            2.419778296670     0.353954741092    -0.020367236895    12.000000000000
         C            3.818291196670    -0.071126558908     0.047322163105    12.000000000000
         H           -0.176186803330     1.830177441092     0.022163163105     1.007825032230
         H           -3.384147803330    -1.132454558908    -0.002443836895     1.007825032230
         H            1.752816196670    -1.496708558908     0.031933163105     1.007825032230
         H           -2.953279803330     2.408042441092    -0.853747836895     1.007825032230
         H           -4.092902803330     1.372172441092     0.020371163105     1.007825032230
         H           -2.952222803330     2.391644441092     0.912197163105     1.007825032230
         H            3.934061196670    -1.046678558908    -0.432442836895     1.007825032230
         H            4.123762196670    -0.159167558908     1.094321163105     1.007825032230
         H            4.471600196670     0.652333441092    -0.440708836895     1.007825032230

  Basis Set: AUG-CC-PVTZ
    Blend: AUG-CC-PVTZ
  Basis Set: (AUG-CC-PVTZ AUX)
    Blend: AUG-CC-PVTZ-JKFIT
	 Reference Energy          =    -797.2972226713593500 [Eh]
	 Singles Energy            =      -0.0000000000000000 [Eh]
	 Same-Spin Energy          =      -0.4879956067401455 [Eh]
	 Opposite-Spin Energy      =      -1.5064080111251443 [Eh]
	 Correlation Energy        =      -1.9944036178652897 [Eh]
	 Total Energy              =    -799.2916262892246095 [Eh]

	 ================> DF-SCS-MP2 Energies <==================
	-----------------------------------------------------------
	 SCS Same-Spin Scale       =       0.3333333333333333 [-]
	 SCS Opposite-Spin Scale   =       1.2000000000000000 [-]
	 SCS Same-Spin Energy      =      -0.1626652022467152 [Eh]
	 SCS Opposite-Spin Energy  =      -1.8076896133501732 [Eh]
	 SCS Correlation Energy    =      -1.9703548155968884 [Eh]
	 SCS Total Energy          =    -799.2675774869562701 [Eh]
	-----------------------------------------------------------

  Dipole Moment: [D]
     X:     0.0583      Y:    -3.1359      Z:     0.2084     Total:     3.1434

*** Psi4 exiting successfully. Buy a developer a beer!
