                               Psi4 1.4a3.dev225

  ==> Input File <==

--------------------------------------------------------------------------
#psi4
#
memory 32 gb

molecule  {
0 1
  S       -1.0050790    -1.7376190    -0.0151270
  O        2.1293390     1.6156530    -0.0602560
  N        1.4328010    -0.5712990    -0.0002240
  C       -2.0712570     0.6114660     0.0102110
  C        0.0482060    -0.3546190     0.0027700
  C       -0.6600310     0.8254930     0.0130800
  C       -2.4003070    -0.7218620    -0.0026000
  C       -3.0748160     1.7280810     0.0214760
  C        2.3954760     0.4154750    -0.0251370
  C        3.8156290    -0.1071950     0.0454080
  H       -0.1788490     1.7941090     0.0202490
  H       -3.3412614    -1.1478998    -0.0042768
  H        1.7501540    -1.5327770     0.0300190
  H       -2.9559420     2.3719740    -0.8556620
  H       -4.0955650     1.3361040     0.0184570
  H       -2.9548850     2.3555760     0.9102830
  H        3.9313990    -1.0827470    -0.4343570
  H        4.1211000    -0.1952360     1.0924070
  H        4.4689380     0.6162650    -0.4426230
units angstrom
no_reorient  #important for SAPT in psi4, default
symmetry c1  #important for SAPT in psi4, default
}

set PROPERTIES_ORIGIN ["COM"]
properties('MP2/aug-cc-pvtz', properties = ['dipole'])
--------------------------------------------------------------------------

    Molecular point group: c1
  Charge       = 0
  Multiplicity = 1
  Basis Set: AUG-CC-PVTZ
    Blend: AUG-CC-PVTZ
  Basis Set: (AUG-CC-PVTZ AUX)
    Blend: AUG-CC-PVTZ-JKFIT

    Orbital Energies [Eh]
    ---------------------

    Doubly Occupied:

       1A    -91.984051     2A    -20.532930     3A    -15.619165
       4A    -11.369268     5A    -11.311664     6A    -11.249435
       7A    -11.245165     8A    -11.243287     9A    -11.226065
      10A    -11.221767    11A     -8.984561    12A     -6.665731
      13A     -6.665174    14A     -6.664290    15A     -1.388746
      16A     -1.264895    17A     -1.159804    18A     -1.038247
      19A     -1.012208    20A     -0.973390    21A     -0.913436
      22A     -0.826354    23A     -0.788232    24A     -0.731071
      25A     -0.688873    26A     -0.675038    27A     -0.632854
      28A     -0.610584    29A     -0.593086    30A     -0.580861
      31A     -0.579779    32A     -0.562725    33A     -0.558206
      34A     -0.523510    35A     -0.517393    36A     -0.503033
      37A     -0.472807    38A     -0.442422    39A     -0.433593
      40A     -0.340137    41A     -0.295544

  @DF-RHF Final Energy:  -797.31869179971625

   => Energetics <=

    Nuclear Repulsion Energy =            585.1210014457368516
    One-Electron Energy =               -2254.7006263705816309
    Two-Electron Energy =                 872.2609331251284175
    Total Energy =                       -797.3186917997162482
  Basis Set: (AUG-CC-PVTZ AUX)
    Blend: AUG-CC-PVTZ-RI
    Molecular point group: c1

    Geometry (in Angstrom), charge = 0, multiplicity = 1:

       Center              X                  Y                   Z               Mass
    ------------   -----------------  -----------------  -----------------  -----------------
         S           -1.001037962309    -1.709237899260    -0.012992343747    31.972071174400
         O            2.133380037691     1.644034100740    -0.058121343747    15.994914619570
         N            1.436842037691    -0.542917899260     0.001910656253    14.003074004430
         C           -2.067215962309     0.639847100740     0.012345656253    12.000000000000
         C            0.052247037691    -0.326237899260     0.004904656253    12.000000000000
         C           -0.655989962309     0.853874100740     0.015214656253    12.000000000000
         C           -2.396265962309    -0.693480899260    -0.000465343747    12.000000000000
         C           -3.070774962309     1.756462100740     0.023610656253    12.000000000000
         C            2.399517037691     0.443856100740    -0.023002343747    12.000000000000
         C            3.819670037691    -0.078813899260     0.047542656253    12.000000000000
         H           -0.174807962309     1.822490100740     0.022383656253     1.007825032230
         H           -3.337220362309    -1.119518699260    -0.002142143747     1.007825032230
         H            1.754195037691    -1.504395899260     0.032153656253     1.007825032230
         H           -2.951900962309     2.400355100740    -0.853527343747     1.007825032230
         H           -4.091523962309     1.364485100740     0.020591656253     1.007825032230
         H           -2.950843962309     2.383957100740     0.912417656253     1.007825032230
         H            3.935440037691    -1.054365899260    -0.432222343747     1.007825032230
         H            4.125141037691    -0.166854899260     1.094541656253     1.007825032230
         H            4.472979037691     0.644646100740    -0.440488343747     1.007825032230

  Basis Set: AUG-CC-PVTZ
    Blend: AUG-CC-PVTZ
  Basis Set: (AUG-CC-PVTZ AUX)
    Blend: AUG-CC-PVTZ-JKFIT
	 Reference Energy          =    -797.3186917997162482 [Eh]
	 Singles Energy            =      -0.0000000000000000 [Eh]
	 Same-Spin Energy          =      -0.4854163400138861 [Eh]
	 Opposite-Spin Energy      =      -1.5014028886821582 [Eh]
	 Correlation Energy        =      -1.9868192286960444 [Eh]
	 Total Energy              =    -799.3055110284122975 [Eh]

	 ================> DF-SCS-MP2 Energies <==================
	-----------------------------------------------------------
	 SCS Same-Spin Scale       =       0.3333333333333333 [-]
	 SCS Opposite-Spin Scale   =       1.2000000000000000 [-]
	 SCS Same-Spin Energy      =      -0.1618054466712954 [Eh]
	 SCS Opposite-Spin Energy  =      -1.8016834664185897 [Eh]
	 SCS Correlation Energy    =      -1.9634889130898849 [Eh]
	 SCS Total Energy          =    -799.2821807128061664 [Eh]
	-----------------------------------------------------------

  Dipole Moment: [D]
     X:     0.4316      Y:    -2.5224      Z:     0.1779     Total:     2.5653

*** Psi4 exiting successfully. Buy a developer a beer!
