                               Psi4 1.4a3.dev225

  ==> Input File <==

--------------------------------------------------------------------------
#psi4
#
memory 32 gb

molecule  {
0 1
  S       -1.0050790    -1.7376190    -0.0151270
  O        2.1293390     1.6156530    -0.0602560
  N        1.4328010    -0.5712990    -0.0002240
  C       -2.0712570     0.6114660     0.0102110
  C        0.0482060    -0.3546190     0.0027700
  C       -0.6600310     0.8254930     0.0130800
  C       -2.4003070    -0.7218620    -0.0026000
  C       -3.0748160     1.7280810     0.0214760
  C        2.3954760     0.4154750    -0.0251370
  C        3.8156290    -0.1071950     0.0454080
  H       -0.1788490     1.7941090     0.0202490
  H       -3.3868100    -1.1685230    -0.0043580
  H        1.7501540    -1.5327770     0.0300190
  H       -2.9559420     2.3719740    -0.8556620
  H       -4.0955650     1.3361040     0.0184570
  H       -2.9548850     2.3555760     0.9102830
  H        3.9313990    -1.0827470    -0.4343570
  H        4.1211000    -0.1952360     1.0924070
  H        4.4569521     0.6029921    -0.4336694
units angstrom
no_reorient  #important for SAPT in psi4, default
symmetry c1  #important for SAPT in psi4, default
}

set PROPERTIES_ORIGIN ["COM"]
properties('MP2/aug-cc-pvtz', properties = ['dipole'])
--------------------------------------------------------------------------

    Molecular point group: c1
  Charge       = 0
  Multiplicity = 1
  Basis Set: AUG-CC-PVTZ
    Blend: AUG-CC-PVTZ
  Basis Set: (AUG-CC-PVTZ AUX)
    Blend: AUG-CC-PVTZ-JKFIT

    Orbital Energies [Eh]
    ---------------------

    Doubly Occupied:

       1A    -91.984362     2A    -20.533019     3A    -15.619123
       4A    -11.369216     5A    -11.311660     6A    -11.249248
       7A    -11.247233     8A    -11.244913     9A    -11.225963
      10A    -11.221966    11A     -8.984845    12A     -6.666008
      13A     -6.665455    14A     -6.664565    15A     -1.388817
      16A     -1.264896    17A     -1.159567    18A     -1.038709
      19A     -1.012809    20A     -0.972127    21A     -0.912948
      22A     -0.826142    23A     -0.785347    24A     -0.727405
      25A     -0.688385    26A     -0.673796    27A     -0.633258
      28A     -0.610724    29A     -0.593049    30A     -0.580935
      31A     -0.578991    32A     -0.561572    33A     -0.558691
      34A     -0.523558    35A     -0.516149    36A     -0.503227
      37A     -0.472964    38A     -0.442488    39A     -0.433601
      40A     -0.340276    41A     -0.295539

  @DF-RHF Final Energy:  -797.31953189399655

   => Energetics <=

    Nuclear Repulsion Energy =            584.9238157140578096
    One-Electron Energy =               -2254.3196073051817621
    Two-Electron Energy =                 872.0762596971273979
    Total Energy =                       -797.3195318939965546
  Basis Set: (AUG-CC-PVTZ AUX)
    Blend: AUG-CC-PVTZ-RI
    Molecular point group: c1

    Geometry (in Angstrom), charge = 0, multiplicity = 1:

       Center              X                  Y                   Z               Mass
    ------------   -----------------  -----------------  -----------------  -----------------
         S           -1.000663965096    -1.709017561081    -0.013050017888    31.972071174400
         O            2.133754034904     1.644254438919    -0.058179017888    15.994914619570
         N            1.437216034904    -0.542697561081     0.001852982112    14.003074004430
         C           -2.066841965096     0.640067438919     0.012287982112    12.000000000000
         C            0.052621034904    -0.326017561081     0.004846982112    12.000000000000
         C           -0.655615965096     0.854094438919     0.015156982112    12.000000000000
         C           -2.395891965096    -0.693260561081    -0.000523017888    12.000000000000
         C           -3.070400965096     1.756682438919     0.023552982112    12.000000000000
         C            2.399891034904     0.444076438919    -0.023060017888    12.000000000000
         C            3.820044034904    -0.078593561081     0.047484982112    12.000000000000
         H           -0.174433965096     1.822710438919     0.022325982112     1.007825032230
         H           -3.382394965096    -1.139921561081    -0.002281017888     1.007825032230
         H            1.754569034904    -1.504175561081     0.032095982112     1.007825032230
         H           -2.951526965096     2.400575438919    -0.853585017888     1.007825032230
         H           -4.091149965096     1.364705438919     0.020533982112     1.007825032230
         H           -2.950469965096     2.384177438919     0.912359982112     1.007825032230
         H            3.935814034904    -1.054145561081    -0.432280017888     1.007825032230
         H            4.125515034904    -0.166634561081     1.094483982112     1.007825032230
         H            4.461367134904     0.631593538919    -0.431592417888     1.007825032230

  Basis Set: AUG-CC-PVTZ
    Blend: AUG-CC-PVTZ
  Basis Set: (AUG-CC-PVTZ AUX)
    Blend: AUG-CC-PVTZ-JKFIT
	 Reference Energy          =    -797.3195318939965546 [Eh]
	 Singles Energy            =      -0.0000000000000000 [Eh]
	 Same-Spin Energy          =      -0.4855229151370789 [Eh]
	 Opposite-Spin Energy      =      -1.5015731973222608 [Eh]
	 Correlation Energy        =      -1.9870961124593398 [Eh]
	 Total Energy              =    -799.3066280064558669 [Eh]

	 ================> DF-SCS-MP2 Energies <==================
	-----------------------------------------------------------
	 SCS Same-Spin Scale       =       0.3333333333333333 [-]
	 SCS Opposite-Spin Scale   =       1.2000000000000000 [-]
	 SCS Same-Spin Energy      =      -0.1618409717123596 [Eh]
	 SCS Opposite-Spin Energy  =      -1.8018878367867128 [Eh]
	 SCS Correlation Energy    =      -1.9637288084990725 [Eh]
	 SCS Total Energy          =    -799.2832607024956815 [Eh]
	-----------------------------------------------------------

  Dipole Moment: [D]
     X:     0.4349      Y:    -2.5276      Z:     0.1770     Total:     2.5708

*** Psi4 exiting successfully. Buy a developer a beer!
