                               Psi4 1.4a3.dev225

  ==> Input File <==

--------------------------------------------------------------------------
#psi4
#
memory 32 gb

molecule  {
0 1
  S       -1.0050790    -1.7376190    -0.0151270
  O        2.1293390     1.6156530    -0.0602560
  N        1.4328010    -0.5712990    -0.0002240
  C       -2.0712570     0.6114660     0.0102110
  C        0.0482060    -0.3546190     0.0027700
  C       -0.6600310     0.8254930     0.0130800
  C       -2.4003070    -0.7218620    -0.0026000
  C       -3.0748160     1.7280810     0.0214760
  C        2.3954760     0.4154750    -0.0251370
  C        3.8156290    -0.1071950     0.0454080
  H       -0.1788490     1.7941090     0.0202490
  H       -3.3868100    -1.1685230    -0.0043580
  H        1.7501540    -1.5327770     0.0300190
  H       -2.9378790     2.3754142    -0.8504806
  H       -4.0955650     1.3361040     0.0184570
  H       -2.9548850     2.3555760     0.9102830
  H        3.9313990    -1.0827470    -0.4343570
  H        4.1211000    -0.1952360     1.0924070
  H        4.4689380     0.6162650    -0.4426230
units angstrom
no_reorient  #important for SAPT in psi4, default
symmetry c1  #important for SAPT in psi4, default
}

set PROPERTIES_ORIGIN ["COM"]
properties('MP2/aug-cc-pvtz', properties = ['dipole'])
--------------------------------------------------------------------------

    Molecular point group: c1
  Charge       = 0
  Multiplicity = 1
  Basis Set: AUG-CC-PVTZ
    Blend: AUG-CC-PVTZ
  Basis Set: (AUG-CC-PVTZ AUX)
    Blend: AUG-CC-PVTZ-JKFIT

    Orbital Energies [Eh]
    ---------------------

    Doubly Occupied:

       1A    -91.984340     2A    -20.532993     3A    -15.619238
       4A    -11.369330     5A    -11.311728     6A    -11.249477
       7A    -11.249165     8A    -11.244874     9A    -11.226055
      10A    -11.222002    11A     -8.984823    12A     -6.665987
      13A     -6.665433    14A     -6.664543    15A     -1.388809
      16A     -1.264969    17A     -1.159592    18A     -1.038208
      19A     -1.012170    20A     -0.971811    21A     -0.912721
      22A     -0.825734    23A     -0.785322    24A     -0.727407
      25A     -0.688155    26A     -0.673802    27A     -0.632908
      28A     -0.610205    29A     -0.593045    30A     -0.580482
      31A     -0.577891    32A     -0.560429    33A     -0.558096
      34A     -0.523960    35A     -0.516336    36A     -0.503022
      37A     -0.472934    38A     -0.442455    39A     -0.433662
      40A     -0.340199    41A     -0.295547

  @DF-RHF Final Energy:  -797.31947925185489

   => Energetics <=

    Nuclear Repulsion Energy =            584.8536740168333381
    One-Electron Energy =               -2254.1865866793323221
    Two-Electron Energy =                 872.0134334106440974
    Total Energy =                       -797.3194792518548866
  Basis Set: (AUG-CC-PVTZ AUX)
    Blend: AUG-CC-PVTZ-RI
    Molecular point group: c1

    Geometry (in Angstrom), charge = 0, multiplicity = 1:

       Center              X                  Y                   Z               Mass
    ------------   -----------------  -----------------  -----------------  -----------------
         S           -1.000859294939    -1.709126202902    -0.013025497082    31.972071174400
         O            2.133558705061     1.644145797098    -0.058154497082    15.994914619570
         N            1.437020705061    -0.542806202902     0.001877502918    14.003074004430
         C           -2.067037294939     0.639958797098     0.012312502918    12.000000000000
         C            0.052425705061    -0.326126202902     0.004871502918    12.000000000000
         C           -0.655811294939     0.853985797098     0.015181502918    12.000000000000
         C           -2.396087294939    -0.693369202902    -0.000498497082    12.000000000000
         C           -3.070596294939     1.756573797098     0.023577502918    12.000000000000
         C            2.399695705061     0.443967797098    -0.023035497082    12.000000000000
         C            3.819848705061    -0.078702202902     0.047509502918    12.000000000000
         H           -0.174629294939     1.822601797098     0.022350502918     1.007825032230
         H           -3.382590294939    -1.140030202902    -0.002256497082     1.007825032230
         H            1.754373705061    -1.504284202902     0.032120502918     1.007825032230
         H           -2.933659294939     2.403906997098    -0.848379097082     1.007825032230
         H           -4.091345294939     1.364596797098     0.020558502918     1.007825032230
         H           -2.950665294939     2.384068797098     0.912384502918     1.007825032230
         H            3.935618705061    -1.054254202902    -0.432255497082     1.007825032230
         H            4.125319705061    -0.166743202902     1.094508502918     1.007825032230
         H            4.473157705061     0.644757797098    -0.440521497082     1.007825032230

  Basis Set: AUG-CC-PVTZ
    Blend: AUG-CC-PVTZ
  Basis Set: (AUG-CC-PVTZ AUX)
    Blend: AUG-CC-PVTZ-JKFIT
	 Reference Energy          =    -797.3194792518548866 [Eh]
	 Singles Energy            =      -0.0000000000000000 [Eh]
	 Same-Spin Energy          =      -0.4855274573609844 [Eh]
	 Opposite-Spin Energy      =      -1.5016966269254324 [Eh]
	 Correlation Energy        =      -1.9872240842864168 [Eh]
	 Total Energy              =    -799.3067033361412541 [Eh]

	 ================> DF-SCS-MP2 Energies <==================
	-----------------------------------------------------------
	 SCS Same-Spin Scale       =       0.3333333333333333 [-]
	 SCS Opposite-Spin Scale   =       1.2000000000000000 [-]
	 SCS Same-Spin Energy      =      -0.1618424857869948 [Eh]
	 SCS Opposite-Spin Energy  =      -1.8020359523105187 [Eh]
	 SCS Correlation Energy    =      -1.9638784380975136 [Eh]
	 SCS Total Energy          =    -799.2833576899523678 [Eh]
	-----------------------------------------------------------

  Dipole Moment: [D]
     X:     0.4327      Y:    -2.5234      Z:     0.1816     Total:     2.5667

*** Psi4 exiting successfully. Buy a developer a beer!
