                               Psi4 1.4a3.dev225

  ==> Input File <==

--------------------------------------------------------------------------
#psi4
#
memory 32 gb

molecule  {
0 1
  S       -1.0050790    -1.7376190    -0.0151270
  O        2.1293390     1.6156530    -0.0602560
  N        1.4328010    -0.5712990    -0.0002240
  C       -2.0712570     0.6114660     0.0102110
  C        0.0482060    -0.3546190     0.0027700
  C       -0.6600310     0.8254930     0.0130800
  C       -2.4003070    -0.7218620    -0.0026000
  C       -3.0748160     1.7280810     0.0214760
  C        2.3911480     0.4349927    -0.0257081
  C        3.8156290    -0.1071950     0.0454080
  H       -0.1788490     1.7941090     0.0202490
  H       -3.3868100    -1.1685230    -0.0043580
  H        1.7501540    -1.5327770     0.0300190
  H       -2.9559420     2.3719740    -0.8556620
  H       -4.0955650     1.3361040     0.0184570
  H       -2.9548850     2.3555760     0.9102830
  H        3.9313990    -1.0827470    -0.4343570
  H        4.1211000    -0.1952360     1.0924070
  H        4.4689380     0.6162650    -0.4426230
units angstrom
no_reorient  #important for SAPT in psi4, default
symmetry c1  #important for SAPT in psi4, default
}

set PROPERTIES_ORIGIN ["COM"]
properties('MP2/aug-cc-pvtz', properties = ['dipole'])
--------------------------------------------------------------------------

    Molecular point group: c1
  Charge       = 0
  Multiplicity = 1
  Basis Set: AUG-CC-PVTZ
    Blend: AUG-CC-PVTZ
  Basis Set: (AUG-CC-PVTZ AUX)
    Blend: AUG-CC-PVTZ-JKFIT

    Orbital Energies [Eh]
    ---------------------

    Doubly Occupied:

       1A    -91.983425     2A    -20.537312     3A    -15.616585
       4A    -11.369310     5A    -11.310938     6A    -11.248963
       7A    -11.248232     8A    -11.244379     9A    -11.225631
      10A    -11.221003    11A     -8.983935    12A     -6.665100
      13A     -6.664542    14A     -6.663654    15A     -1.401760
      16A     -1.263984    17A     -1.158273    18A     -1.036006
      19A     -1.010474    20A     -0.970731    21A     -0.911351
      22A     -0.823237    23A     -0.784112    24A     -0.727735
      25A     -0.687838    26A     -0.675211    27A     -0.633118
      28A     -0.612900    29A     -0.596732    30A     -0.580310
      31A     -0.576691    32A     -0.559261    33A     -0.557314
      34A     -0.523591    35A     -0.515635    36A     -0.506860
      37A     -0.472382    38A     -0.445061    39A     -0.434675
      40A     -0.339767    41A     -0.294322

  @DF-RHF Final Energy:  -797.32048630853603

   => Energetics <=

    Nuclear Repulsion Energy =            584.9260690645330669
    One-Electron Energy =               -2254.3284272442019756
    Two-Electron Energy =                 872.0818718711328756
    Total Energy =                       -797.3204863085360330
  Basis Set: (AUG-CC-PVTZ AUX)
    Blend: AUG-CC-PVTZ-RI
    Molecular point group: c1

    Geometry (in Angstrom), charge = 0, multiplicity = 1:

       Center              X                  Y                   Z               Mass
    ------------   -----------------  -----------------  -----------------  -----------------
         S           -1.000406894758    -1.710614493397    -0.012947613266    31.972071174400
         O            2.134011105242     1.642657506603    -0.058076613266    15.994914619570
         N            1.437473105242    -0.544294493397     0.001955386734    14.003074004430
         C           -2.066584894758     0.638470506603     0.012390386734    12.000000000000
         C            0.052878105242    -0.327614493397     0.004949386734    12.000000000000
         C           -0.655358894758     0.852497506603     0.015259386734    12.000000000000
         C           -2.395634894758    -0.694857493397    -0.000420613266    12.000000000000
         C           -3.070143894758     1.755085506603     0.023655386734    12.000000000000
         C            2.395820105242     0.461997206603    -0.023528713266    12.000000000000
         C            3.820301105242    -0.080190493397     0.047587386734    12.000000000000
         H           -0.174176894758     1.821113506603     0.022428386734     1.007825032230
         H           -3.382137894758    -1.141518493397    -0.002178613266     1.007825032230
         H            1.754826105242    -1.505772493397     0.032198386734     1.007825032230
         H           -2.951269894758     2.398978506603    -0.853482613266     1.007825032230
         H           -4.090892894758     1.363108506603     0.020636386734     1.007825032230
         H           -2.950212894758     2.382580506603     0.912462386734     1.007825032230
         H            3.936071105242    -1.055742493397    -0.432177613266     1.007825032230
         H            4.125772105242    -0.168231493397     1.094586386734     1.007825032230
         H            4.473610105242     0.643269506603    -0.440443613266     1.007825032230

  Basis Set: AUG-CC-PVTZ
    Blend: AUG-CC-PVTZ
  Basis Set: (AUG-CC-PVTZ AUX)
    Blend: AUG-CC-PVTZ-JKFIT
	 Reference Energy          =    -797.3204863085360330 [Eh]
	 Singles Energy            =      -0.0000000000000000 [Eh]
	 Same-Spin Energy          =      -0.4850580659649316 [Eh]
	 Opposite-Spin Energy      =      -1.5008000355521738 [Eh]
	 Correlation Energy        =      -1.9858581015171053 [Eh]
	 Total Energy              =    -799.3063444100531569 [Eh]

	 ================> DF-SCS-MP2 Energies <==================
	-----------------------------------------------------------
	 SCS Same-Spin Scale       =       0.3333333333333333 [-]
	 SCS Opposite-Spin Scale   =       1.2000000000000000 [-]
	 SCS Same-Spin Energy      =      -0.1616860219883105 [Eh]
	 SCS Opposite-Spin Energy  =      -1.8009600426626085 [Eh]
	 SCS Correlation Energy    =      -1.9626460646509190 [Eh]
	 SCS Total Energy          =    -799.2831323731869588 [Eh]
	-----------------------------------------------------------

  Dipole Moment: [D]
     X:     0.5047      Y:    -2.3945      Z:     0.1715     Total:     2.4531

*** Psi4 exiting successfully. Buy a developer a beer!
