                               Psi4 1.4a3.dev225

  ==> Input File <==

--------------------------------------------------------------------------
#psi4
#
memory 32 gb

molecule  {
0 1
  S       -1.0050790    -1.7376190    -0.0151270
  O        2.1293390     1.6156530    -0.0602560
  N        1.4328010    -0.5712990    -0.0002240
  C       -2.0712570     0.6114660     0.0102110
  C        0.0482060    -0.3546190     0.0027700
  C       -0.6600310     0.8254930     0.0130800
  C       -2.4003070    -0.7218620    -0.0026000
  C       -3.0748160     1.7280810     0.0214760
  C        2.3738359     0.5130637    -0.0279926
  C        3.8156290    -0.1071950     0.0454080
  H       -0.1788490     1.7941090     0.0202490
  H       -3.3868100    -1.1685230    -0.0043580
  H        1.7501540    -1.5327770     0.0300190
  H       -2.9559420     2.3719740    -0.8556620
  H       -4.0955650     1.3361040     0.0184570
  H       -2.9548850     2.3555760     0.9102830
  H        3.9313990    -1.0827470    -0.4343570
  H        4.1211000    -0.1952360     1.0924070
  H        4.4689380     0.6162650    -0.4426230
units angstrom
no_reorient  #important for SAPT in psi4, default
symmetry c1  #important for SAPT in psi4, default
}

set PROPERTIES_ORIGIN ["COM"]
properties('MP2/aug-cc-pvtz', properties = ['dipole'])
--------------------------------------------------------------------------

    Molecular point group: c1
  Charge       = 0
  Multiplicity = 1
  Basis Set: AUG-CC-PVTZ
    Blend: AUG-CC-PVTZ
  Basis Set: (AUG-CC-PVTZ AUX)
    Blend: AUG-CC-PVTZ-JKFIT

    Orbital Energies [Eh]
    ---------------------

    Doubly Occupied:

       1A    -91.979497     2A    -20.554657     3A    -15.605695
       4A    -11.368558     5A    -11.307841     6A    -11.246400
       7A    -11.244210     8A    -11.242126     9A    -11.224285
      10A    -11.217187    11A     -8.980119    12A     -6.661289
      13A     -6.660717    14A     -6.659836    15A     -1.464072
      16A     -1.255275    17A     -1.152756    18A     -1.028138
      19A     -1.003177    20A     -0.966512    21A     -0.906018
      22A     -0.813191    23A     -0.779156    24A     -0.731966
      25A     -0.691580    26A     -0.679853    27A     -0.640614
      28A     -0.635325    29A     -0.597782    30A     -0.578263
      31A     -0.573655    32A     -0.558359    33A     -0.553937
      34A     -0.524278    35A     -0.523481    36A     -0.513535
      37A     -0.469834    38A     -0.448974    39A     -0.432068
      40A     -0.337663    41A     -0.289280

  @DF-RHF Final Energy:  -797.30882868794936

   => Energetics <=

    Nuclear Repulsion Energy =            585.4141257924583215
    One-Electron Energy =               -2255.2435902555353096
    Two-Electron Energy =                 872.5206357751275164
    Total Energy =                       -797.3088286879493580
  Basis Set: (AUG-CC-PVTZ AUX)
    Blend: AUG-CC-PVTZ-RI
    Molecular point group: c1

    Geometry (in Angstrom), charge = 0, multiplicity = 1:

       Center              X                  Y                   Z               Mass
    ------------   -----------------  -----------------  -----------------  -----------------
         S           -0.999066953130    -1.716657121550    -0.012770794934    31.972071174400
         O            2.135351046870     1.636614878450    -0.057899794934    15.994914619570
         N            1.438813046870    -0.550337121550     0.002132205066    14.003074004430
         C           -2.065244953130     0.632427878450     0.012567205066    12.000000000000
         C            0.054218046870    -0.333657121550     0.005126205066    12.000000000000
         C           -0.654018953130     0.846454878450     0.015436205066    12.000000000000
         C           -2.394294953130    -0.700900121550    -0.000243794934    12.000000000000
         C           -3.068803953130     1.749042878450     0.023832205066    12.000000000000
         C            2.379847946870     0.534025578450    -0.025636394934    12.000000000000
         C            3.821641046870    -0.086233121550     0.047764205066    12.000000000000
         H           -0.172836953130     1.815070878450     0.022605205066     1.007825032230
         H           -3.380797953130    -1.147561121550    -0.002001794934     1.007825032230
         H            1.756166046870    -1.511815121550     0.032375205066     1.007825032230
         H           -2.949929953130     2.392935878450    -0.853305794934     1.007825032230
         H           -4.089552953130     1.357065878450     0.020813205066     1.007825032230
         H           -2.948872953130     2.376537878450     0.912639205066     1.007825032230
         H            3.937411046870    -1.061785121550    -0.432000794934     1.007825032230
         H            4.127112046870    -0.174274121550     1.094763205066     1.007825032230
         H            4.474950046870     0.637226878450    -0.440266794934     1.007825032230

  Basis Set: AUG-CC-PVTZ
    Blend: AUG-CC-PVTZ
  Basis Set: (AUG-CC-PVTZ AUX)
    Blend: AUG-CC-PVTZ-JKFIT
	 Reference Energy          =    -797.3088286879493580 [Eh]
	 Singles Energy            =      -0.0000000000000000 [Eh]
	 Same-Spin Energy          =      -0.4833488215470212 [Eh]
	 Opposite-Spin Energy      =      -1.4975134416913667 [Eh]
	 Correlation Energy        =      -1.9808622632383879 [Eh]
	 Total Energy              =    -799.2896909511877084 [Eh]

	 ================> DF-SCS-MP2 Energies <==================
	-----------------------------------------------------------
	 SCS Same-Spin Scale       =       0.3333333333333333 [-]
	 SCS Opposite-Spin Scale   =       1.2000000000000000 [-]
	 SCS Same-Spin Energy      =      -0.1611162738490071 [Eh]
	 SCS Opposite-Spin Energy  =      -1.7970161300296399 [Eh]
	 SCS Correlation Energy    =      -1.9581324038786470 [Eh]
	 SCS Total Energy          =    -799.2669610918279659 [Eh]
	-----------------------------------------------------------

  Dipole Moment: [D]
     X:     0.8012      Y:    -1.8186      Z:     0.1450     Total:     1.9926

*** Psi4 exiting successfully. Buy a developer a beer!
