                               Psi4 1.4a3.dev225

  ==> Input File <==

--------------------------------------------------------------------------
#psi4
#
memory 32 gb

molecule  {
0 1
  S       -1.0050790    -1.7376190    -0.0151270
  O        2.1293390     1.6156530    -0.0602560
  N        1.4328010    -0.5712990    -0.0002240
  C       -2.0712570     0.6114660     0.0102110
  C        0.0482060    -0.3546190     0.0027700
  C       -0.6600310     0.8254930     0.0130800
  C       -2.4003070    -0.7218620    -0.0026000
  C       -3.0079727     1.6537075     0.0207257
  C        2.3954760     0.4154750    -0.0251370
  C        3.8156290    -0.1071950     0.0454080
  H       -0.1788490     1.7941090     0.0202490
  H       -3.3868100    -1.1685230    -0.0043580
  H        1.7501540    -1.5327770     0.0300190
  H       -2.9559420     2.3719740    -0.8556620
  H       -4.0955650     1.3361040     0.0184570
  H       -2.9548850     2.3555760     0.9102830
  H        3.9313990    -1.0827470    -0.4343570
  H        4.1211000    -0.1952360     1.0924070
  H        4.4689380     0.6162650    -0.4426230
units angstrom
no_reorient  #important for SAPT in psi4, default
symmetry c1  #important for SAPT in psi4, default
}

set PROPERTIES_ORIGIN ["COM"]
properties('MP2/aug-cc-pvtz', properties = ['dipole'])
--------------------------------------------------------------------------

    Molecular point group: c1
  Charge       = 0
  Multiplicity = 1
  Basis Set: AUG-CC-PVTZ
    Blend: AUG-CC-PVTZ
  Basis Set: (AUG-CC-PVTZ AUX)
    Blend: AUG-CC-PVTZ-JKFIT

    Orbital Energies [Eh]
    ---------------------

    Doubly Occupied:

       1A    -91.984820     2A    -20.533326     3A    -15.619624
       4A    -11.369652     5A    -11.312348     6A    -11.250043
       7A    -11.249705     8A    -11.240120     9A    -11.229861
      10A    -11.222237    11A     -8.985322    12A     -6.666490
      13A     -6.665929    14A     -6.665043    15A     -1.389131
      16A     -1.265447    17A     -1.164237    18A     -1.047541
      19A     -1.016681    20A     -0.973078    21A     -0.908047
      22A     -0.825539    23A     -0.786570    24A     -0.729293
      25A     -0.693079    26A     -0.675049    27A     -0.633232
      28A     -0.618988    29A     -0.593978    30A     -0.577216
      31A     -0.576110    32A     -0.565162    33A     -0.553550
      34A     -0.530589    35A     -0.504532    36A     -0.499519
      37A     -0.473351    38A     -0.441139    39A     -0.433917
      40A     -0.338453    41A     -0.295555

  @DF-RHF Final Energy:  -797.30707934593306

   => Energetics <=

    Nuclear Repulsion Energy =            586.7157800015969542
    One-Electron Energy =               -2257.8387129730740526
    Two-Electron Energy =                 873.8158536255439230
    Total Energy =                       -797.3070793459330616
  Basis Set: (AUG-CC-PVTZ AUX)
    Blend: AUG-CC-PVTZ-RI
    Molecular point group: c1

    Geometry (in Angstrom), charge = 0, multiplicity = 1:

       Center              X                  Y                   Z               Mass
    ------------   -----------------  -----------------  -----------------  -----------------
         S           -1.005915492074    -1.703347395391    -0.012933743341    31.972071174400
         O            2.128502507926     1.649924604609    -0.058062743341    15.994914619570
         N            1.431964507926    -0.537027395391     0.001969256659    14.003074004430
         C           -2.072093492074     0.645737604609     0.012404256659    12.000000000000
         C            0.047369507926    -0.320347395391     0.004963256659    12.000000000000
         C           -0.660867492074     0.859764604609     0.015273256659    12.000000000000
         C           -2.401143492074    -0.687590395391    -0.000406743341    12.000000000000
         C           -3.008809192074     1.687979104609     0.022918956659    12.000000000000
         C            2.394639507926     0.449746604609    -0.022943743341    12.000000000000
         C            3.814792507926    -0.072923395391     0.047601256659    12.000000000000
         H           -0.179685492074     1.828380604609     0.022442256659     1.007825032230
         H           -3.387646492074    -1.134251395391    -0.002164743341     1.007825032230
         H            1.749317507926    -1.498505395391     0.032212256659     1.007825032230
         H           -2.956778492074     2.406245604609    -0.853468743341     1.007825032230
         H           -4.096401492074     1.370375604609     0.020650256659     1.007825032230
         H           -2.955721492074     2.389847604609     0.912476256659     1.007825032230
         H            3.930562507926    -1.048475395391    -0.432163743341     1.007825032230
         H            4.120263507926    -0.160964395391     1.094600256659     1.007825032230
         H            4.468101507926     0.650536604609    -0.440429743341     1.007825032230

  Basis Set: AUG-CC-PVTZ
    Blend: AUG-CC-PVTZ
  Basis Set: (AUG-CC-PVTZ AUX)
    Blend: AUG-CC-PVTZ-JKFIT
	 Reference Energy          =    -797.3070793459330616 [Eh]
	 Singles Energy            =      -0.0000000000000000 [Eh]
	 Same-Spin Energy          =      -0.4867332277393383 [Eh]
	 Opposite-Spin Energy      =      -1.5031676693408611 [Eh]
	 Correlation Energy        =      -1.9899008970801995 [Eh]
	 Total Energy              =    -799.2969802430133086 [Eh]

	 ================> DF-SCS-MP2 Energies <==================
	-----------------------------------------------------------
	 SCS Same-Spin Scale       =       0.3333333333333333 [-]
	 SCS Opposite-Spin Scale   =       1.2000000000000000 [-]
	 SCS Same-Spin Energy      =      -0.1622444092464461 [Eh]
	 SCS Opposite-Spin Energy  =      -1.8038012032090331 [Eh]
	 SCS Correlation Energy    =      -1.9660456124554793 [Eh]
	 SCS Total Energy          =    -799.2731249583885074 [Eh]
	-----------------------------------------------------------

  Dipole Moment: [D]
     X:     0.4607      Y:    -2.5432      Z:     0.1775     Total:     2.5907

*** Psi4 exiting successfully. Buy a developer a beer!
