                               Psi4 1.4a3.dev225

  ==> Input File <==

--------------------------------------------------------------------------
#psi4
#
memory 32 gb

molecule  {
0 1
  S       -1.0050790    -1.7376190    -0.0151270
  O        2.1293390     1.6156530    -0.0602560
  N        1.4328010    -0.5712990    -0.0002240
  C       -2.0712570     0.6114660     0.0102110
  C        0.0482060    -0.3546190     0.0027700
  C       -0.6600310     0.8254930     0.0130800
  C       -2.4003070    -0.7218620    -0.0026000
  C       -3.0748160     1.7280810     0.0214760
  C        2.3954760     0.4154750    -0.0251370
  C        3.8156290    -0.1071950     0.0454080
  H       -0.2233380     1.7045529     0.0195862
  H       -3.3868100    -1.1685230    -0.0043580
  H        1.7501540    -1.5327770     0.0300190
  H       -2.9559420     2.3719740    -0.8556620
  H       -4.0955650     1.3361040     0.0184570
  H       -2.9548850     2.3555760     0.9102830
  H        3.9313990    -1.0827470    -0.4343570
  H        4.1211000    -0.1952360     1.0924070
  H        4.4689380     0.6162650    -0.4426230
units angstrom
no_reorient  #important for SAPT in psi4, default
symmetry c1  #important for SAPT in psi4, default
}

set PROPERTIES_ORIGIN ["COM"]
properties('MP2/aug-cc-pvtz', properties = ['dipole'])
--------------------------------------------------------------------------

    Molecular point group: c1
  Charge       = 0
  Multiplicity = 1
  Basis Set: AUG-CC-PVTZ
    Blend: AUG-CC-PVTZ
  Basis Set: (AUG-CC-PVTZ AUX)
    Blend: AUG-CC-PVTZ-JKFIT

    Orbital Energies [Eh]
    ---------------------

    Doubly Occupied:

       1A    -91.984261     2A    -20.533205     3A    -15.619325
       4A    -11.369277     5A    -11.311724     6A    -11.249493
       7A    -11.249030     8A    -11.244635     9A    -11.226229
      10A    -11.211571    11A     -8.984757    12A     -6.665921
      13A     -6.665368    14A     -6.664484    15A     -1.388784
      16A     -1.265115    17A     -1.160020    18A     -1.038194
      19A     -1.013024    20A     -0.976493    21A     -0.913062
      22A     -0.826458    23A     -0.785768    24A     -0.739672
      25A     -0.689263    26A     -0.678140    27A     -0.632930
      28A     -0.611361    29A     -0.594206    30A     -0.581325
      31A     -0.580811    32A     -0.563347    33A     -0.558433
      34A     -0.526966    35A     -0.516090    36A     -0.503070
      37A     -0.473389    38A     -0.442470    39A     -0.435353
      40A     -0.340465    41A     -0.295565

  @DF-RHF Final Energy:  -797.31347391798897

   => Energetics <=

    Nuclear Repulsion Energy =            585.3558896984135345
    One-Electron Energy =               -2255.1206187866519031
    Two-Electron Energy =                 872.4512551702492829
    Total Energy =                       -797.3134739179889721
  Basis Set: (AUG-CC-PVTZ AUX)
    Blend: AUG-CC-PVTZ-RI
    Molecular point group: c1

    Geometry (in Angstrom), charge = 0, multiplicity = 1:

       Center              X                  Y                   Z               Mass
    ------------   -----------------  -----------------  -----------------  -----------------
         S           -1.000452681974    -1.708521689836    -0.012987507450    31.972071174400
         O            2.133965318026     1.644750310164    -0.058116507450    15.994914619570
         N            1.437427318026    -0.542201689836     0.001915492550    14.003074004430
         C           -2.066630681974     0.640563310164     0.012350492550    12.000000000000
         C            0.052832318026    -0.325521689836     0.004909492550    12.000000000000
         C           -0.655404681974     0.854590310164     0.015219492550    12.000000000000
         C           -2.395680681974    -0.692764689836    -0.000460507450    12.000000000000
         C           -3.070189681974     1.757178310164     0.023615492550    12.000000000000
         C            2.400102318026     0.444572310164    -0.022997507450    12.000000000000
         C            3.820255318026    -0.078097689836     0.047547492550    12.000000000000
         H           -0.218711681974     1.733650210164     0.021725692550     1.007825032230
         H           -3.382183681974    -1.139425689836    -0.002218507450     1.007825032230
         H            1.754780318026    -1.503679689836     0.032158492550     1.007825032230
         H           -2.951315681974     2.401071310164    -0.853522507450     1.007825032230
         H           -4.090938681974     1.365201310164     0.020596492550     1.007825032230
         H           -2.950258681974     2.384673310164     0.912422492550     1.007825032230
         H            3.936025318026    -1.053649689836    -0.432217507450     1.007825032230
         H            4.125726318026    -0.166138689836     1.094546492550     1.007825032230
         H            4.473564318026     0.645362310164    -0.440483507450     1.007825032230

  Basis Set: AUG-CC-PVTZ
    Blend: AUG-CC-PVTZ
  Basis Set: (AUG-CC-PVTZ AUX)
    Blend: AUG-CC-PVTZ-JKFIT
	 Reference Energy          =    -797.3134739179889721 [Eh]
	 Singles Energy            =      -0.0000000000000000 [Eh]
	 Same-Spin Energy          =      -0.4851999645189331 [Eh]
	 Opposite-Spin Energy      =      -1.5011547870052913 [Eh]
	 Correlation Energy        =      -1.9863547515242244 [Eh]
	 Total Energy              =    -799.2998286695132037 [Eh]

	 ================> DF-SCS-MP2 Energies <==================
	-----------------------------------------------------------
	 SCS Same-Spin Scale       =       0.3333333333333333 [-]
	 SCS Opposite-Spin Scale   =       1.2000000000000000 [-]
	 SCS Same-Spin Energy      =      -0.1617333215063110 [Eh]
	 SCS Opposite-Spin Energy  =      -1.8013857444063495 [Eh]
	 SCS Correlation Energy    =      -1.9631190659126605 [Eh]
	 SCS Total Energy          =    -799.2765929839016508 [Eh]
	-----------------------------------------------------------

  Dipole Moment: [D]
     X:     0.4088      Y:    -2.5492      Z:     0.1783     Total:     2.5879

*** Psi4 exiting successfully. Buy a developer a beer!
