                               Psi4 1.4a3.dev225

  ==> Input File <==

--------------------------------------------------------------------------
#psi4
#
memory 32 gb

molecule  {
0 1
  S       -1.0050790    -1.7376190    -0.0151270
  O        2.1293390     1.6156530    -0.0602560
  N        1.4328010    -0.5712990    -0.0002240
  C       -2.0712570     0.6114660     0.0102110
  C        0.0482060    -0.3546190     0.0027700
  C       -0.6600310     0.8254930     0.0130800
  C       -2.4003070    -0.7218620    -0.0026000
  C       -3.0748160     1.7280810     0.0214760
  C        2.3954760     0.4154750    -0.0251370
  C        3.8156290    -0.1071950     0.0454080
  H       -0.1788490     1.7941090     0.0202490
  H       -3.3868100    -1.1685230    -0.0043580
  H        1.7501540    -1.5327770     0.0300190
  H       -2.9559420     2.3719740    -0.8556620
  H       -4.0955650     1.3361040     0.0184570
  H       -2.9548850     2.3555760     0.9102830
  H        3.9313990    -1.0827470    -0.4343570
  H        4.1211000    -0.1952360     1.0924070
  H        4.5288675     0.6826296    -0.4873912
units angstrom
no_reorient  #important for SAPT in psi4, default
symmetry c1  #important for SAPT in psi4, default
}

set PROPERTIES_ORIGIN ["COM"]
properties('MP2/aug-cc-pvtz', properties = ['dipole'])
--------------------------------------------------------------------------

    Molecular point group: c1
  Charge       = 0
  Multiplicity = 1
  Basis Set: AUG-CC-PVTZ
    Blend: AUG-CC-PVTZ
  Basis Set: (AUG-CC-PVTZ AUX)
    Blend: AUG-CC-PVTZ-JKFIT

    Orbital Energies [Eh]
    ---------------------

    Doubly Occupied:

       1A    -91.984635     2A    -20.532852     3A    -15.619851
       4A    -11.369943     5A    -11.311999     6A    -11.260211
       7A    -11.249507     8A    -11.245127     9A    -11.226113
      10A    -11.222256    11A     -8.985115    12A     -6.666279
      13A     -6.665725    14A     -6.664835    15A     -1.388765
      16A     -1.265368    17A     -1.159845    18A     -1.036416
      19A     -1.009259    20A     -0.970568    21A     -0.911970
      22A     -0.824108    23A     -0.785423    24A     -0.727620
      25A     -0.687947    26A     -0.674021    27A     -0.632038
      28A     -0.608649    29A     -0.592497    30A     -0.581049
      31A     -0.572663    32A     -0.560152    33A     -0.546234
      34A     -0.523073    35A     -0.516360    36A     -0.502344
      37A     -0.473184    38A     -0.442609    39A     -0.433965
      40A     -0.340501    41A     -0.295833

  @DF-RHF Final Energy:  -797.31271784212288

   => Energetics <=

    Nuclear Repulsion Energy =            584.4000023405811817
    One-Electron Energy =               -2253.2916242398223403
    Two-Electron Energy =                 871.5789040571183932
    Total Energy =                       -797.3127178421228791
  Basis Set: (AUG-CC-PVTZ AUX)
    Blend: AUG-CC-PVTZ-RI
    Molecular point group: c1

    Geometry (in Angstrom), charge = 0, multiplicity = 1:

       Center              X                  Y                   Z               Mass
    ------------   -----------------  -----------------  -----------------  -----------------
         S           -1.001131443899    -1.709535236616    -0.012700804747    31.972071174400
         O            2.133286556101     1.643736763384    -0.057829804747    15.994914619570
         N            1.436748556101    -0.543215236616     0.002202195253    14.003074004430
         C           -2.067309443899     0.639549763384     0.012637195253    12.000000000000
         C            0.052153556101    -0.326535236616     0.005196195253    12.000000000000
         C           -0.656083443899     0.853576763384     0.015506195253    12.000000000000
         C           -2.396359443899    -0.693778236616    -0.000173804747    12.000000000000
         C           -3.070868443899     1.756164763384     0.023902195253    12.000000000000
         C            2.399423556101     0.443558763384    -0.022710804747    12.000000000000
         C            3.819576556101    -0.079111236616     0.047834195253    12.000000000000
         H           -0.174901443899     1.822192763384     0.022675195253     1.007825032230
         H           -3.382862443899    -1.140439236616    -0.001931804747     1.007825032230
         H            1.754101556101    -1.504693236616     0.032445195253     1.007825032230
         H           -2.951994443899     2.400057763384    -0.853235804747     1.007825032230
         H           -4.091617443899     1.364187763384     0.020883195253     1.007825032230
         H           -2.950937443899     2.383659763384     0.912709195253     1.007825032230
         H            3.935346556101    -1.054663236616    -0.431930804747     1.007825032230
         H            4.125047556101    -0.167152236616     1.094833195253     1.007825032230
         H            4.532815056101     0.710713363384    -0.484965004747     1.007825032230

  Basis Set: AUG-CC-PVTZ
    Blend: AUG-CC-PVTZ
  Basis Set: (AUG-CC-PVTZ AUX)
    Blend: AUG-CC-PVTZ-JKFIT
	 Reference Energy          =    -797.3127178421228791 [Eh]
	 Singles Energy            =      -0.0000000000000000 [Eh]
	 Same-Spin Energy          =      -0.4855660369766729 [Eh]
	 Opposite-Spin Energy      =      -1.5024557588750569 [Eh]
	 Correlation Energy        =      -1.9880217958517297 [Eh]
	 Total Energy              =    -799.3007396379746297 [Eh]

	 ================> DF-SCS-MP2 Energies <==================
	-----------------------------------------------------------
	 SCS Same-Spin Scale       =       0.3333333333333333 [-]
	 SCS Opposite-Spin Scale   =       1.2000000000000000 [-]
	 SCS Same-Spin Energy      =      -0.1618553456588910 [Eh]
	 SCS Opposite-Spin Energy  =      -1.8029469106500682 [Eh]
	 SCS Correlation Energy    =      -1.9648022563089591 [Eh]
	 SCS Total Energy          =    -799.2775200984318644 [Eh]
	-----------------------------------------------------------

  Dipole Moment: [D]
     X:     0.3975      Y:    -2.5305      Z:     0.1842     Total:     2.5681

*** Psi4 exiting successfully. Buy a developer a beer!
