                               Psi4 1.4a3.dev225

  ==> Input File <==

--------------------------------------------------------------------------
#psi4
#
memory 32 gb

molecule  {
0 1
  S       -0.9807799    -1.7557891    -0.0153668
  O        2.1293390     1.6156530    -0.0602560
  N        1.4328010    -0.5712990    -0.0002240
  C       -2.0712570     0.6114660     0.0102110
  C        0.0482060    -0.3546190     0.0027700
  C       -0.6600310     0.8254930     0.0130800
  C       -2.4003070    -0.7218620    -0.0026000
  C       -3.0748160     1.7280810     0.0214760
  C        2.3954760     0.4154750    -0.0251370
  C        3.8156290    -0.1071950     0.0454080
  H       -0.1788490     1.7941090     0.0202490
  H       -3.3868100    -1.1685230    -0.0043580
  H        1.7501540    -1.5327770     0.0300190
  H       -2.9559420     2.3719740    -0.8556620
  H       -4.0955650     1.3361040     0.0184570
  H       -2.9548850     2.3555760     0.9102830
  H        3.9313990    -1.0827470    -0.4343570
  H        4.1211000    -0.1952360     1.0924070
  H        4.4689380     0.6162650    -0.4426230
units angstrom
no_reorient  #important for SAPT in psi4, default
symmetry c1  #important for SAPT in psi4, default
}

set PROPERTIES_ORIGIN ["COM"]
properties('MP2/aug-cc-pvtz', properties = ['dipole'])
--------------------------------------------------------------------------

    Molecular point group: c1
  Charge       = 0
  Multiplicity = 1
  Basis Set: AUG-CC-PVTZ
    Blend: AUG-CC-PVTZ
  Basis Set: (AUG-CC-PVTZ AUX)
    Blend: AUG-CC-PVTZ-JKFIT

    Orbital Energies [Eh]
    ---------------------

    Doubly Occupied:

       1A    -91.985150     2A    -20.533026     3A    -15.618990
       4A    -11.369187     5A    -11.312550     6A    -11.251691
       7A    -11.249403     8A    -11.246394     9A    -11.226833
      10A    -11.222132    11A     -8.985097    12A     -6.666270
      13A     -6.665616    14A     -6.664803    15A     -1.388811
      16A     -1.265094    17A     -1.156271    18A     -1.038796
      19A     -1.010540    20A     -0.969710    21A     -0.914022
      22A     -0.825713    23A     -0.785814    24A     -0.725767
      25A     -0.688795    26A     -0.673409    27A     -0.632841
      28A     -0.609246    29A     -0.592188    30A     -0.580953
      31A     -0.577876    32A     -0.559830    33A     -0.558106
      34A     -0.523102    35A     -0.516485    36A     -0.501848
      37A     -0.473124    38A     -0.441102    39A     -0.433604
      40A     -0.341524    41A     -0.295659

  @DF-RHF Final Energy:  -797.31887573927156

   => Energetics <=

    Nuclear Repulsion Energy =            584.0743873112494384
    One-Electron Energy =               -2252.6317859774944736
    Two-Electron Energy =                 871.2385229269734737
    Total Energy =                       -797.3188757392715615
  Basis Set: (AUG-CC-PVTZ AUX)
    Blend: AUG-CC-PVTZ-RI
    Molecular point group: c1

    Geometry (in Angstrom), charge = 0, multiplicity = 1:

       Center              X                  Y                   Z               Mass
    ------------   -----------------  -----------------  -----------------  -----------------
         S           -0.981453679442    -1.723526946467    -0.013182164942    31.972071174400
         O            2.128665220558     1.647915153533    -0.058071364942    15.994914619570
         N            1.432127220558    -0.539036846467     0.001960635058    14.003074004430
         C           -2.071930779442     0.643728153533     0.012395635058    12.000000000000
         C            0.047532220558    -0.322356846467     0.004954635058    12.000000000000
         C           -0.660704779442     0.857755153533     0.015264635058    12.000000000000
         C           -2.400980779442    -0.689599846467    -0.000415364942    12.000000000000
         C           -3.075489779442     1.760343153533     0.023660635058    12.000000000000
         C            2.394802220558     0.447737153533    -0.022952364942    12.000000000000
         C            3.814955220558    -0.074932846467     0.047592635058    12.000000000000
         H           -0.179522779442     1.826371153533     0.022433635058     1.007825032230
         H           -3.387483779442    -1.136260846467    -0.002173364942     1.007825032230
         H            1.749480220558    -1.500514846467     0.032203635058     1.007825032230
         H           -2.956615779442     2.404236153533    -0.853477364942     1.007825032230
         H           -4.096238779442     1.368366153533     0.020641635058     1.007825032230
         H           -2.955558779442     2.387838153533     0.912467635058     1.007825032230
         H            3.930725220558    -1.050484846467    -0.432172364942     1.007825032230
         H            4.120426220558    -0.162973846467     1.094591635058     1.007825032230
         H            4.468264220558     0.648527153533    -0.440438364942     1.007825032230

  Basis Set: AUG-CC-PVTZ
    Blend: AUG-CC-PVTZ
  Basis Set: (AUG-CC-PVTZ AUX)
    Blend: AUG-CC-PVTZ-JKFIT
	 Reference Energy          =    -797.3188757392715615 [Eh]
	 Singles Energy            =      -0.0000000000000000 [Eh]
	 Same-Spin Energy          =      -0.4851963417074842 [Eh]
	 Opposite-Spin Energy      =      -1.5018566414054835 [Eh]
	 Correlation Energy        =      -1.9870529831129677 [Eh]
	 Total Energy              =    -799.3059287223845786 [Eh]

	 ================> DF-SCS-MP2 Energies <==================
	-----------------------------------------------------------
	 SCS Same-Spin Scale       =       0.3333333333333333 [-]
	 SCS Opposite-Spin Scale   =       1.2000000000000000 [-]
	 SCS Same-Spin Energy      =      -0.1617321139024947 [Eh]
	 SCS Opposite-Spin Energy  =      -1.8022279696865802 [Eh]
	 SCS Correlation Energy    =      -1.9639600835890749 [Eh]
	 SCS Total Energy          =    -799.2828358228606476 [Eh]
	-----------------------------------------------------------

  Dipole Moment: [D]
     X:     0.4186      Y:    -2.4906      Z:     0.1781     Total:     2.5319

*** Psi4 exiting successfully. Buy a developer a beer!
