                               Psi4 1.4a3.dev225

  ==> Input File <==

--------------------------------------------------------------------------
#psi4
#
memory 32 gb

molecule  {
0 1
  S       -1.0050790    -1.7376190    -0.0151270
  O        2.1293390     1.6156530    -0.0602560
  N        1.4328010    -0.5712990    -0.0002240
  C       -2.0712570     0.6114660     0.0102110
  C       -0.1493886    -0.3236967     0.0031973
  C       -0.6600310     0.8254930     0.0130800
  C       -2.4003070    -0.7218620    -0.0026000
  C       -3.0748160     1.7280810     0.0214760
  C        2.3954760     0.4154750    -0.0251370
  C        3.8156290    -0.1071950     0.0454080
  H       -0.1788490     1.7941090     0.0202490
  H       -3.3868100    -1.1685230    -0.0043580
  H        1.7501540    -1.5327770     0.0300190
  H       -2.9559420     2.3719740    -0.8556620
  H       -4.0955650     1.3361040     0.0184570
  H       -2.9548850     2.3555760     0.9102830
  H        3.9313990    -1.0827470    -0.4343570
  H        4.1211000    -0.1952360     1.0924070
  H        4.4689380     0.6162650    -0.4426230
units angstrom
no_reorient  #important for SAPT in psi4, default
symmetry c1  #important for SAPT in psi4, default
}

set PROPERTIES_ORIGIN ["COM"]
properties('MP2/aug-cc-pvtz', properties = ['dipole'])
--------------------------------------------------------------------------

    Molecular point group: c1
  Charge       = 0
  Multiplicity = 1
  Basis Set: AUG-CC-PVTZ
    Blend: AUG-CC-PVTZ
  Basis Set: (AUG-CC-PVTZ AUX)
    Blend: AUG-CC-PVTZ-JKFIT

    Orbital Energies [Eh]
    ---------------------

    Doubly Occupied:

       1A    -91.989509     2A    -20.518147     3A    -15.599699
       4A    -11.356429     5A    -11.303988     6A    -11.254395
       7A    -11.250699     8A    -11.240064     9A    -11.229703
      10A    -11.216454    11A     -8.992267    12A     -6.673603
      13A     -6.672670    14A     -6.671669    15A     -1.372224
      16A     -1.232342    17A     -1.179455    18A     -1.039592
      19A     -1.015153    20A     -0.991117    21A     -0.915027
      22A     -0.793247    23A     -0.768108    24A     -0.734631
      25A     -0.685520    26A     -0.664813    27A     -0.617454
      28A     -0.606622    29A     -0.588043    30A     -0.581103
      31A     -0.574883    32A     -0.558822    33A     -0.549031
      34A     -0.535783    35A     -0.510798    36A     -0.509462
      37A     -0.491512    38A     -0.421004    39A     -0.420443
      40A     -0.356555    41A     -0.317496

  @DF-RHF Final Energy:  -797.27737183270040

   => Energetics <=

    Nuclear Repulsion Energy =            586.1110726225184635
    One-Electron Energy =               -2256.7778181280036733
    Two-Electron Energy =                 873.3893736727849273
    Total Energy =                       -797.2773718327003962
  Basis Set: (AUG-CC-PVTZ AUX)
    Blend: AUG-CC-PVTZ-RI
    Molecular point group: c1

    Geometry (in Angstrom), charge = 0, multiplicity = 1:

       Center              X                  Y                   Z               Mass
    ------------   -----------------  -----------------  -----------------  -----------------
         S           -0.985448226390    -1.711497199614    -0.013024888566    31.972071174400
         O            2.148969773610     1.641774800386    -0.058153888566    15.994914619570
         N            1.452431773610    -0.545177199614     0.001878111434    14.003074004430
         C           -2.051626226390     0.637587800386     0.012313111434    12.000000000000
         C           -0.129757826390    -0.297574899614     0.005299411434    12.000000000000
         C           -0.640400226390     0.851614800386     0.015182111434    12.000000000000
         C           -2.380676226390    -0.695740199614    -0.000497888566    12.000000000000
         C           -3.055185226390     1.754202800386     0.023578111434    12.000000000000
         C            2.415106773610     0.441596800386    -0.023034888566    12.000000000000
         C            3.835259773610    -0.081073199614     0.047510111434    12.000000000000
         H           -0.159218226390     1.820230800386     0.022351111434     1.007825032230
         H           -3.367179226390    -1.142401199614    -0.002255888566     1.007825032230
         H            1.769784773610    -1.506655199614     0.032121111434     1.007825032230
         H           -2.936311226390     2.398095800386    -0.853559888566     1.007825032230
         H           -4.075934226390     1.362225800386     0.020559111434     1.007825032230
         H           -2.935254226390     2.381697800386     0.912385111434     1.007825032230
         H            3.951029773610    -1.056625199614    -0.432254888566     1.007825032230
         H            4.140730773610    -0.169114199614     1.094509111434     1.007825032230
         H            4.488568773610     0.642386800386    -0.440520888566     1.007825032230

  Basis Set: AUG-CC-PVTZ
    Blend: AUG-CC-PVTZ
  Basis Set: (AUG-CC-PVTZ AUX)
    Blend: AUG-CC-PVTZ-JKFIT
	 Reference Energy          =    -797.2773718327003962 [Eh]
	 Singles Energy            =      -0.0000000000000000 [Eh]
	 Same-Spin Energy          =      -0.4844859253116598 [Eh]
	 Opposite-Spin Energy      =      -1.5015383010763830 [Eh]
	 Correlation Energy        =      -1.9860242263880428 [Eh]
	 Total Energy              =    -799.2633960590884499 [Eh]

	 ================> DF-SCS-MP2 Energies <==================
	-----------------------------------------------------------
	 SCS Same-Spin Scale       =       0.3333333333333333 [-]
	 SCS Opposite-Spin Scale   =       1.2000000000000000 [-]
	 SCS Same-Spin Energy      =      -0.1614953084372199 [Eh]
	 SCS Opposite-Spin Energy  =      -1.8018459612916595 [Eh]
	 SCS Correlation Energy    =      -1.9633412697288795 [Eh]
	 SCS Total Energy          =    -799.2407131024292539 [Eh]
	-----------------------------------------------------------

  Dipole Moment: [D]
     X:    -0.5721      Y:    -2.6441      Z:     0.1796     Total:     2.7112

*** Psi4 exiting successfully. Buy a developer a beer!
