                               Psi4 1.4a3.dev225

  ==> Input File <==

--------------------------------------------------------------------------
#psi4
#
memory 32 gb

molecule  {
0 1
  S       -1.0050790    -1.7376190    -0.0151270
  O        2.1293390     1.6156530    -0.0602560
  N        1.4328010    -0.5712990    -0.0002240
  C       -2.0712570     0.6114660     0.0102110
  C        0.0482060    -0.3546190     0.0027700
  C       -0.6600310     0.8254930     0.0130800
  C       -2.3535719    -0.7325327    -0.0027232
  C       -3.0748160     1.7280810     0.0214760
  C        2.3954760     0.4154750    -0.0251370
  C        3.8156290    -0.1071950     0.0454080
  H       -0.1788490     1.7941090     0.0202490
  H       -3.3868100    -1.1685230    -0.0043580
  H        1.7501540    -1.5327770     0.0300190
  H       -2.9559420     2.3719740    -0.8556620
  H       -4.0955650     1.3361040     0.0184570
  H       -2.9548850     2.3555760     0.9102830
  H        3.9313990    -1.0827470    -0.4343570
  H        4.1211000    -0.1952360     1.0924070
  H        4.4689380     0.6162650    -0.4426230
units angstrom
no_reorient  #important for SAPT in psi4, default
symmetry c1  #important for SAPT in psi4, default
}

set PROPERTIES_ORIGIN ["COM"]
properties('MP2/aug-cc-pvtz', properties = ['dipole'])
--------------------------------------------------------------------------

    Molecular point group: c1
  Charge       = 0
  Multiplicity = 1
  Basis Set: AUG-CC-PVTZ
    Blend: AUG-CC-PVTZ
  Basis Set: (AUG-CC-PVTZ AUX)
    Blend: AUG-CC-PVTZ-JKFIT

    Orbital Energies [Eh]
    ---------------------

    Doubly Occupied:

       1A    -91.985717     2A    -20.531882     3A    -15.617961
       4A    -11.368252     5A    -11.309185     6A    -11.248941
       7A    -11.248817     8A    -11.242843     9A    -11.226616
      10A    -11.221632    11A     -8.987010    12A     -6.668185
      13A     -6.667661    14A     -6.666678    15A     -1.387767
      16A     -1.264191    17A     -1.164355    18A     -1.037312
      19A     -1.015356    20A     -0.972003    21A     -0.912683
      22A     -0.825030    23A     -0.781675    24A     -0.725743
      25A     -0.687179    26A     -0.672178    27A     -0.632196
      28A     -0.610901    29A     -0.592716    30A     -0.581367
      31A     -0.574124    32A     -0.558213    33A     -0.555312
      34A     -0.525899    35A     -0.511517    36A     -0.505157
      37A     -0.480799    38A     -0.443579    39A     -0.432764
      40A     -0.341046    41A     -0.293394

  @DF-RHF Final Energy:  -797.31618804835057

   => Energetics <=

    Nuclear Repulsion Energy =            585.8316627574409949
    One-Electron Energy =               -2256.1440305876262755
    Two-Electron Energy =                 872.9961797818348259
    Total Energy =                       -797.3161880483505684
  Basis Set: (AUG-CC-PVTZ AUX)
    Blend: AUG-CC-PVTZ-RI
    Molecular point group: c1

    Geometry (in Angstrom), charge = 0, multiplicity = 1:

       Center              X                  Y                   Z               Mass
    ------------   -----------------  -----------------  -----------------  -----------------
         S           -1.004359134714    -1.708277937240    -0.012982280340    31.972071174400
         O            2.130058865286     1.644994062760    -0.058111280340    15.994914619570
         N            1.433520865286    -0.541957937240     0.001920719660    14.003074004430
         C           -2.070537134714     0.640807062760     0.012355719660    12.000000000000
         C            0.048925865286    -0.325277937240     0.004914719660    12.000000000000
         C           -0.659311134714     0.854834062760     0.015224719660    12.000000000000
         C           -2.352852034714    -0.703191637240    -0.000578480340    12.000000000000
         C           -3.074096134714     1.757422062760     0.023620719660    12.000000000000
         C            2.396195865286     0.444816062760    -0.022992280340    12.000000000000
         C            3.816348865286    -0.077853937240     0.047552719660    12.000000000000
         H           -0.178129134714     1.823450062760     0.022393719660     1.007825032230
         H           -3.386090134714    -1.139181937240    -0.002213280340     1.007825032230
         H            1.750873865286    -1.503435937240     0.032163719660     1.007825032230
         H           -2.955222134714     2.401315062760    -0.853517280340     1.007825032230
         H           -4.094845134714     1.365445062760     0.020601719660     1.007825032230
         H           -2.954165134714     2.384917062760     0.912427719660     1.007825032230
         H            3.932118865286    -1.053405937240    -0.432212280340     1.007825032230
         H            4.121819865286    -0.165894937240     1.094551719660     1.007825032230
         H            4.469657865286     0.645606062760    -0.440478280340     1.007825032230

  Basis Set: AUG-CC-PVTZ
    Blend: AUG-CC-PVTZ
  Basis Set: (AUG-CC-PVTZ AUX)
    Blend: AUG-CC-PVTZ-JKFIT
	 Reference Energy          =    -797.3161880483505684 [Eh]
	 Singles Energy            =      -0.0000000000000000 [Eh]
	 Same-Spin Energy          =      -0.4861876281139144 [Eh]
	 Opposite-Spin Energy      =      -1.5021655194815429 [Eh]
	 Correlation Energy        =      -1.9883531475954572 [Eh]
	 Total Energy              =    -799.3045411959460580 [Eh]

	 ================> DF-SCS-MP2 Energies <==================
	-----------------------------------------------------------
	 SCS Same-Spin Scale       =       0.3333333333333333 [-]
	 SCS Opposite-Spin Scale   =       1.2000000000000000 [-]
	 SCS Same-Spin Energy      =      -0.1620625427046381 [Eh]
	 SCS Opposite-Spin Energy  =      -1.8025986233778513 [Eh]
	 SCS Correlation Energy    =      -1.9646611660824893 [Eh]
	 SCS Total Energy          =    -799.2808492144330330 [Eh]
	-----------------------------------------------------------

  Dipole Moment: [D]
     X:     0.3984      Y:    -2.5975      Z:     0.1769     Total:     2.6338

*** Psi4 exiting successfully. Buy a developer a beer!
