                               Psi4 1.4a3.dev225

  ==> Input File <==

--------------------------------------------------------------------------
#psi4
#
memory 32 gb

molecule  {
0 1
  S       -1.0050790    -1.7376190    -0.0151270
  O        2.1293390     1.6156530    -0.0602560
  N        1.4328010    -0.5712990    -0.0002240
  C       -2.0712570     0.6114660     0.0102110
  C        0.0482060    -0.3546190     0.0027700
  C       -0.6600310     0.8254930     0.0130800
  C       -2.4003070    -0.7218620    -0.0026000
  C       -3.1416593     1.8024545     0.0222263
  C        2.3954760     0.4154750    -0.0251370
  C        3.8156290    -0.1071950     0.0454080
  H       -0.1788490     1.7941090     0.0202490
  H       -3.3868100    -1.1685230    -0.0043580
  H        1.7501540    -1.5327770     0.0300190
  H       -2.9559420     2.3719740    -0.8556620
  H       -4.0955650     1.3361040     0.0184570
  H       -2.9548850     2.3555760     0.9102830
  H        3.9313990    -1.0827470    -0.4343570
  H        4.1211000    -0.1952360     1.0924070
  H        4.4689380     0.6162650    -0.4426230
units angstrom
no_reorient  #important for SAPT in psi4, default
symmetry c1  #important for SAPT in psi4, default
}

set PROPERTIES_ORIGIN ["COM"]
properties('MP2/aug-cc-pvtz', properties = ['dipole'])
--------------------------------------------------------------------------

    Molecular point group: c1
  Charge       = 0
  Multiplicity = 1
  Basis Set: AUG-CC-PVTZ
    Blend: AUG-CC-PVTZ
  Basis Set: (AUG-CC-PVTZ AUX)
    Blend: AUG-CC-PVTZ-JKFIT

    Orbital Energies [Eh]
    ---------------------

    Doubly Occupied:

       1A    -91.984006     2A    -20.532641     3A    -15.618834
       4A    -11.368991     5A    -11.311083     6A    -11.249237
       7A    -11.249168     8A    -11.247745     9A    -11.224991
      10A    -11.221841    11A     -8.984473    12A     -6.665630
      13A     -6.665084    14A     -6.664191    15A     -1.388467
      16A     -1.264507    17A     -1.156541    18A     -1.033112
      19A     -1.006896    20A     -0.970808    21A     -0.917592
      22A     -0.825674    23A     -0.784208    24A     -0.725999
      25A     -0.684926    26A     -0.672460    27A     -0.632589
      28A     -0.605245    29A     -0.593687    30A     -0.589678
      31A     -0.580624    32A     -0.561772    33A     -0.556408
      34A     -0.533410    35A     -0.505401    36A     -0.504430
      37A     -0.465045    38A     -0.443102    39A     -0.433339
      40A     -0.341229    41A     -0.295260

  @DF-RHF Final Energy:  -797.31222903703315

   => Energetics <=

    Nuclear Repulsion Energy =            583.0745493400629584
    One-Electron Energy =               -2250.6529130494122910
    Two-Electron Energy =                 870.2661346723161842
    Total Energy =                       -797.3122290370331484
  Basis Set: (AUG-CC-PVTZ AUX)
    Blend: AUG-CC-PVTZ-RI
    Molecular point group: c1

    Geometry (in Angstrom), charge = 0, multiplicity = 1:

       Center              X                  Y                   Z               Mass
    ------------   -----------------  -----------------  -----------------  -----------------
         S           -0.995568264386    -1.714860285066    -0.013049888488    31.972071174400
         O            2.138849735614     1.638411714934    -0.058178888488    15.994914619570
         N            1.442311735614    -0.548540285066     0.001853111512    14.003074004430
         C           -2.061746264386     0.634224714934     0.012288111512    12.000000000000
         C            0.057716735614    -0.331860285066     0.004847111512    12.000000000000
         C           -0.650520264386     0.848251714934     0.015157111512    12.000000000000
         C           -2.390796264386    -0.699103285066    -0.000522888488    12.000000000000
         C           -3.132148564386     1.825213214934     0.024303411512    12.000000000000
         C            2.404986735614     0.438233714934    -0.023059888488    12.000000000000
         C            3.825139735614    -0.084436285066     0.047485111512    12.000000000000
         H           -0.169338264386     1.816867714934     0.022326111512     1.007825032230
         H           -3.377299264386    -1.145764285066    -0.002280888488     1.007825032230
         H            1.759664735614    -1.510018285066     0.032096111512     1.007825032230
         H           -2.946431264386     2.394732714934    -0.853584888488     1.007825032230
         H           -4.086054264386     1.358862714934     0.020534111512     1.007825032230
         H           -2.945374264386     2.378334714934     0.912360111512     1.007825032230
         H            3.940909735614    -1.059988285066    -0.432279888488     1.007825032230
         H            4.130610735614    -0.172477285066     1.094484111512     1.007825032230
         H            4.478448735614     0.639023714934    -0.440545888488     1.007825032230

  Basis Set: AUG-CC-PVTZ
    Blend: AUG-CC-PVTZ
  Basis Set: (AUG-CC-PVTZ AUX)
    Blend: AUG-CC-PVTZ-JKFIT
	 Reference Energy          =    -797.3122290370331484 [Eh]
	 Singles Energy            =      -0.0000000000000000 [Eh]
	 Same-Spin Energy          =      -0.4851429342463512 [Eh]
	 Opposite-Spin Energy      =      -1.5016047012534532 [Eh]
	 Correlation Energy        =      -1.9867476354998044 [Eh]
	 Total Energy              =    -799.2989766725329446 [Eh]

	 ================> DF-SCS-MP2 Energies <==================
	-----------------------------------------------------------
	 SCS Same-Spin Scale       =       0.3333333333333333 [-]
	 SCS Opposite-Spin Scale   =       1.2000000000000000 [-]
	 SCS Same-Spin Energy      =      -0.1617143114154504 [Eh]
	 SCS Opposite-Spin Energy  =      -1.8019256415041438 [Eh]
	 SCS Correlation Energy    =      -1.9636399529195943 [Eh]
	 SCS Total Energy          =    -799.2758689899527553 [Eh]
	-----------------------------------------------------------

  Dipole Moment: [D]
     X:     0.4141      Y:    -2.5239      Z:     0.1780     Total:     2.5639

*** Psi4 exiting successfully. Buy a developer a beer!
