                               Psi4 1.4a3.dev225

  ==> Input File <==

--------------------------------------------------------------------------
#psi4
#
memory 32 gb

molecule  {
0 1
  S       -1.0050790    -1.7376190    -0.0151270
  O        2.1293390     1.6156530    -0.0602560
  N        1.4328010    -0.5712990    -0.0002240
  C       -2.0712570     0.6114660     0.0102110
  C        0.0482060    -0.3546190     0.0027700
  C       -0.6600310     0.8254930     0.0130800
  C       -2.4003070    -0.7218620    -0.0026000
  C       -3.0748160     1.7280810     0.0214760
  C        2.3954760     0.4154750    -0.0251370
  C        3.8156290    -0.1071950     0.0454080
  H       -0.1788490     1.7941090     0.0202490
  H       -3.3868100    -1.1685230    -0.0043580
  H        1.7501540    -1.5327770     0.0300190
  H       -2.9559420     2.3719740    -0.8556620
  H       -4.0955650     1.3361040     0.0184570
  H       -2.9548850     2.3555760     0.9102830
  H        3.9313990    -1.0827470    -0.4343570
  H        4.0652653    -0.1791437     0.9010343
  H        4.4689380     0.6162650    -0.4426230
units angstrom
no_reorient  #important for SAPT in psi4, default
symmetry c1  #important for SAPT in psi4, default
}

set PROPERTIES_ORIGIN ["COM"]
properties('MP2/aug-cc-pvtz', properties = ['dipole'])
--------------------------------------------------------------------------

    Molecular point group: c1
  Charge       = 0
  Multiplicity = 1
  Basis Set: AUG-CC-PVTZ
    Blend: AUG-CC-PVTZ
  Basis Set: (AUG-CC-PVTZ AUX)
    Blend: AUG-CC-PVTZ-JKFIT

    Orbital Energies [Eh]
    ---------------------

    Doubly Occupied:

       1A    -91.984388     2A    -20.532864     3A    -15.619238
       4A    -11.368453     5A    -11.311622     6A    -11.249289
       7A    -11.244934     8A    -11.225981     9A    -11.225879
      10A    -11.222014    11A     -8.984871    12A     -6.666035
      13A     -6.665481    14A     -6.664591    15A     -1.388714
      16A     -1.264947    17A     -1.159734    18A     -1.050488
      19A     -1.019432    20A     -0.974924    21A     -0.914755
      22A     -0.829816    23A     -0.785836    24A     -0.728387
      25A     -0.693764    26A     -0.675744    27A     -0.651793
      28A     -0.610986    29A     -0.593446    30A     -0.585662
      31A     -0.576855    32A     -0.568354    33A     -0.559356
      34A     -0.523500    35A     -0.516170    36A     -0.505764
      37A     -0.472988    38A     -0.442485    39A     -0.433432
      40A     -0.340305    41A     -0.295657

  @DF-RHF Final Energy:  -797.28541324454875

   => Energetics <=

    Nuclear Repulsion Energy =            585.8431728589134764
    One-Electron Energy =               -2255.9993052247264131
    Two-Electron Energy =                 872.8707191212641874
    Total Energy =                       -797.2854132445487494
  Basis Set: (AUG-CC-PVTZ AUX)
    Blend: AUG-CC-PVTZ-RI
    Molecular point group: c1

    Geometry (in Angstrom), charge = 0, multiplicity = 1:

       Center              X                  Y                   Z               Mass
    ------------   -----------------  -----------------  -----------------  -----------------
         S           -1.000378930395    -1.709208446601    -0.011747816984    31.972071174400
         O            2.134039069605     1.644063553399    -0.056876816984    15.994914619570
         N            1.437501069605    -0.542888446601     0.003155183016    14.003074004430
         C           -2.066556930395     0.639876553399     0.013590183016    12.000000000000
         C            0.052906069605    -0.326208446601     0.006149183016    12.000000000000
         C           -0.655330930395     0.853903553399     0.016459183016    12.000000000000
         C           -2.395606930395    -0.693451446601     0.000779183016    12.000000000000
         C           -3.070115930395     1.756491553399     0.024855183016    12.000000000000
         C            2.400176069605     0.443885553399    -0.021757816984    12.000000000000
         C            3.820329069605    -0.078784446601     0.048787183016    12.000000000000
         H           -0.174148930395     1.822519553399     0.023628183016     1.007825032230
         H           -3.382109930395    -1.140112446601    -0.000978816984     1.007825032230
         H            1.754854069605    -1.504366446601     0.033398183016     1.007825032230
         H           -2.951241930395     2.400384553399    -0.852282816984     1.007825032230
         H           -4.090864930395     1.364514553399     0.021836183016     1.007825032230
         H           -2.950184930395     2.383986553399     0.913662183016     1.007825032230
         H            3.936099069605    -1.054336446601    -0.430977816984     1.007825032230
         H            4.069965369605    -0.150733146601     0.904413483016     1.007825032230
         H            4.473638069605     0.644675553399    -0.439243816984     1.007825032230

  Basis Set: AUG-CC-PVTZ
    Blend: AUG-CC-PVTZ
  Basis Set: (AUG-CC-PVTZ AUX)
    Blend: AUG-CC-PVTZ-JKFIT
	 Reference Energy          =    -797.2854132445487494 [Eh]
	 Singles Energy            =      -0.0000000000000000 [Eh]
	 Same-Spin Energy          =      -0.4856660983924358 [Eh]
	 Opposite-Spin Energy      =      -1.5012116191567300 [Eh]
	 Correlation Energy        =      -1.9868777175491656 [Eh]
	 Total Energy              =    -799.2722909620979408 [Eh]

	 ================> DF-SCS-MP2 Energies <==================
	-----------------------------------------------------------
	 SCS Same-Spin Scale       =       0.3333333333333333 [-]
	 SCS Opposite-Spin Scale   =       1.2000000000000000 [-]
	 SCS Same-Spin Energy      =      -0.1618886994641452 [Eh]
	 SCS Opposite-Spin Energy  =      -1.8014539429880758 [Eh]
	 SCS Correlation Energy    =      -1.9633426424522211 [Eh]
	 SCS Total Energy          =    -799.2487558870009252 [Eh]
	-----------------------------------------------------------

  Dipole Moment: [D]
     X:     0.4367      Y:    -2.5322      Z:     0.1921     Total:     2.5767

*** Psi4 exiting successfully. Buy a developer a beer!
