                               Psi4 1.4a3.dev225

  ==> Input File <==

--------------------------------------------------------------------------
#psi4
#
memory 32 gb

molecule  {
0 1
  S       -1.0050790    -1.7376190    -0.0151270
  O        2.1293390     1.6156530    -0.0602560
  N        1.4328010    -0.5712990    -0.0002240
  C       -2.0712570     0.6114660     0.0102110
  C        0.0482060    -0.3546190     0.0027700
  C       -0.6600310     0.8254930     0.0130800
  C       -2.4925180    -0.6956622    -0.0023069
  C       -3.0748160     1.7280810     0.0214760
  C        2.3954760     0.4154750    -0.0251370
  C        3.8156290    -0.1071950     0.0454080
  H       -0.1788490     1.7941090     0.0202490
  H       -3.3868100    -1.1685230    -0.0043580
  H        1.7501540    -1.5327770     0.0300190
  H       -2.9559420     2.3719740    -0.8556620
  H       -4.0955650     1.3361040     0.0184570
  H       -2.9548850     2.3555760     0.9102830
  H        3.9313990    -1.0827470    -0.4343570
  H        4.1211000    -0.1952360     1.0924070
  H        4.4689380     0.6162650    -0.4426230
units angstrom
no_reorient  #important for SAPT in psi4, default
symmetry c1  #important for SAPT in psi4, default
}

set PROPERTIES_ORIGIN ["COM"]
properties('MP2/aug-cc-pvtz', properties = ['dipole'])
--------------------------------------------------------------------------

    Molecular point group: c1
  Charge       = 0
  Multiplicity = 1
  Basis Set: AUG-CC-PVTZ
    Blend: AUG-CC-PVTZ
  Basis Set: (AUG-CC-PVTZ AUX)
    Blend: AUG-CC-PVTZ-JKFIT

    Orbital Energies [Eh]
    ---------------------

    Doubly Occupied:

       1A    -91.980499     2A    -20.535053     3A    -15.621562
       4A    -11.371293     5A    -11.316598     6A    -11.251637
       7A    -11.250674     8A    -11.250112     9A    -11.225268
      10A    -11.222908    11A     -8.979870    12A     -6.661067
      13A     -6.660316    14A     -6.659622    15A     -1.390737
      16A     -1.266562    17A     -1.152369    18A     -1.040561
      19A     -1.007408    20A     -0.971151    21A     -0.913042
      22A     -0.827517    23A     -0.793192    24A     -0.734341
      25A     -0.690671    26A     -0.676638    27A     -0.634228
      28A     -0.609010    29A     -0.592533    30A     -0.588981
      31A     -0.580507    32A     -0.565588    33A     -0.558998
      34A     -0.524836    35A     -0.516756    36A     -0.499972
      37A     -0.454505    38A     -0.440411    39A     -0.435263
      40A     -0.339294    41A     -0.299766

  @DF-RHF Final Energy:  -797.31166537595925

   => Energetics <=

    Nuclear Repulsion Energy =            582.9784100595504697
    One-Electron Energy =               -2250.3975191745498705
    Two-Electron Energy =                 870.1074437390401499
    Total Energy =                       -797.3116653759592509
  Basis Set: (AUG-CC-PVTZ AUX)
    Blend: AUG-CC-PVTZ-RI
    Molecular point group: c1

    Geometry (in Angstrom), charge = 0, multiplicity = 1:

       Center              X                  Y                   Z               Mass
    ------------   -----------------  -----------------  -----------------  -----------------
         S           -0.993604826257    -1.711131682181    -0.013014501602    31.972071174400
         O            2.140813173743     1.642140317819    -0.058143501602    15.994914619570
         N            1.444275173743    -0.544811682181     0.001888498398    14.003074004430
         C           -2.059782826257     0.637953317819     0.012323498398    12.000000000000
         C            0.059680173743    -0.328131682181     0.004882498398    12.000000000000
         C           -0.648556826257     0.851980317819     0.015192498398    12.000000000000
         C           -2.481043826257    -0.669174882181    -0.000194401602    12.000000000000
         C           -3.063341826257     1.754568317819     0.023588498398    12.000000000000
         C            2.406950173743     0.441962317819    -0.023024501602    12.000000000000
         C            3.827103173743    -0.080707682181     0.047520498398    12.000000000000
         H           -0.167374826257     1.820596317819     0.022361498398     1.007825032230
         H           -3.375335826257    -1.142035682181    -0.002245501602     1.007825032230
         H            1.761628173743    -1.506289682181     0.032131498398     1.007825032230
         H           -2.944467826257     2.398461317819    -0.853549501602     1.007825032230
         H           -4.084090826257     1.362591317819     0.020569498398     1.007825032230
         H           -2.943410826257     2.382063317819     0.912395498398     1.007825032230
         H            3.942873173743    -1.056259682181    -0.432244501602     1.007825032230
         H            4.132574173743    -0.168748682181     1.094519498398     1.007825032230
         H            4.480412173743     0.642752317819    -0.440510501602     1.007825032230

  Basis Set: AUG-CC-PVTZ
    Blend: AUG-CC-PVTZ
  Basis Set: (AUG-CC-PVTZ AUX)
    Blend: AUG-CC-PVTZ-JKFIT
	 Reference Energy          =    -797.3116653759592509 [Eh]
	 Singles Energy            =      -0.0000000000000000 [Eh]
	 Same-Spin Energy          =      -0.4846185880555892 [Eh]
	 Opposite-Spin Energy      =      -1.5015367774460819 [Eh]
	 Correlation Energy        =      -1.9861553655016713 [Eh]
	 Total Energy              =    -799.2978207414608960 [Eh]

	 ================> DF-SCS-MP2 Energies <==================
	-----------------------------------------------------------
	 SCS Same-Spin Scale       =       0.3333333333333333 [-]
	 SCS Opposite-Spin Scale   =       1.2000000000000000 [-]
	 SCS Same-Spin Energy      =      -0.1615395293518631 [Eh]
	 SCS Opposite-Spin Energy  =      -1.8018441329352983 [Eh]
	 SCS Correlation Energy    =      -1.9633836622871614 [Eh]
	 SCS Total Energy          =    -799.2750490382463795 [Eh]
	-----------------------------------------------------------

  Dipole Moment: [D]
     X:     0.4805      Y:    -2.3755      Z:     0.1797     Total:     2.4303

*** Psi4 exiting successfully. Buy a developer a beer!
