                               Psi4 1.4a3.dev225

  ==> Input File <==

--------------------------------------------------------------------------
#psi4
#
memory 32 gb

molecule  {
0 1
  S       -1.0050790    -1.7376190    -0.0151270
  O        2.1293390     1.6156530    -0.0602560
  N        1.4328010    -0.5712990    -0.0002240
  C       -2.0712570     0.6114660     0.0102110
  C        0.0482060    -0.3546190     0.0027700
  C       -0.6600310     0.8254930     0.0130800
  C       -2.4003070    -0.7218620    -0.0026000
  C       -3.0748160     1.7280810     0.0214760
  C        2.3954760     0.4154750    -0.0251370
  C        3.8156290    -0.1071950     0.0454080
  H       -0.1788490     1.7941090     0.0202490
  H       -3.3868100    -1.1685230    -0.0043580
  H        1.7501540    -1.5327770     0.0300190
  H       -2.9559420     2.3719740    -0.8556620
  H       -4.0955650     1.3361040     0.0184570
  H       -2.9548850     2.3555760     0.9102830
  H        3.9313990    -1.0827470    -0.4343570
  H        4.1211000    -0.1952360     1.0924070
  H        4.4389732     0.5830827    -0.4202389
units angstrom
no_reorient  #important for SAPT in psi4, default
symmetry c1  #important for SAPT in psi4, default
}

set PROPERTIES_ORIGIN ["COM"]
properties('MP2/aug-cc-pvtz', properties = ['dipole'])
--------------------------------------------------------------------------

    Molecular point group: c1
  Charge       = 0
  Multiplicity = 1
  Basis Set: AUG-CC-PVTZ
    Blend: AUG-CC-PVTZ
  Basis Set: (AUG-CC-PVTZ AUX)
    Blend: AUG-CC-PVTZ-JKFIT

    Orbital Energies [Eh]
    ---------------------

    Doubly Occupied:

       1A    -91.984308     2A    -20.533087     3A    -15.618973
       4A    -11.369078     5A    -11.311592     6A    -11.249198
       7A    -11.244872     8A    -11.243834     9A    -11.225935
      10A    -11.221911    11A     -8.984792    12A     -6.665955
      13A     -6.665402    14A     -6.664512    15A     -1.388857
      16A     -1.264804    17A     -1.159516    18A     -1.039713
      19A     -1.013907    20A     -0.972581    21A     -0.913255
      22A     -0.826800    23A     -0.785363    24A     -0.727377
      25A     -0.688620    26A     -0.673776    27A     -0.633967
      28A     -0.611700    29A     -0.593456    30A     -0.582148
      31A     -0.580359    32A     -0.563030    33A     -0.558877
      34A     -0.523602    35A     -0.516108    36A     -0.503356
      37A     -0.472921    38A     -0.442473    39A     -0.433540
      40A     -0.340233    41A     -0.295481

  @DF-RHF Final Energy:  -797.31850224128539

   => Energetics <=

    Nuclear Repulsion Energy =            585.0665883571919039
    One-Electron Energy =               -2254.5916460309990725
    Two-Electron Energy =                 872.2065554325217818
    Total Energy =                       -797.3185022412853868
  Basis Set: (AUG-CC-PVTZ AUX)
    Blend: AUG-CC-PVTZ-RI
    Molecular point group: c1

    Geometry (in Angstrom), charge = 0, multiplicity = 1:

       Center              X                  Y                   Z               Mass
    ------------   -----------------  -----------------  -----------------  -----------------
         S           -1.000547095071    -1.708888142035    -0.013137321498    31.972071174400
         O            2.133870904929     1.644383857965    -0.058266321498    15.994914619570
         N            1.437332904929    -0.542568142035     0.001765678502    14.003074004430
         C           -2.066725095071     0.640196857965     0.012200678502    12.000000000000
         C            0.052737904929    -0.325888142035     0.004759678502    12.000000000000
         C           -0.655499095071     0.854223857965     0.015069678502    12.000000000000
         C           -2.395775095071    -0.693131142035    -0.000610321498    12.000000000000
         C           -3.070284095071     1.756811857965     0.023465678502    12.000000000000
         C            2.400007904929     0.444205857965    -0.023147321498    12.000000000000
         C            3.820160904929    -0.078464142035     0.047397678502    12.000000000000
         H           -0.174317095071     1.822839857965     0.022238678502     1.007825032230
         H           -3.382278095071    -1.139792142035    -0.002368321498     1.007825032230
         H            1.754685904929    -1.504046142035     0.032008678502     1.007825032230
         H           -2.951410095071     2.400704857965    -0.853672321498     1.007825032230
         H           -4.091033095071     1.364834857965     0.020446678502     1.007825032230
         H           -2.950353095071     2.384306857965     0.912272678502     1.007825032230
         H            3.935930904929    -1.054016142035    -0.432367321498     1.007825032230
         H            4.125631904929    -0.166505142035     1.094396678502     1.007825032230
         H            4.443505104929     0.611813557965    -0.418249221498     1.007825032230

  Basis Set: AUG-CC-PVTZ
    Blend: AUG-CC-PVTZ
  Basis Set: (AUG-CC-PVTZ AUX)
    Blend: AUG-CC-PVTZ-JKFIT
	 Reference Energy          =    -797.3185022412853868 [Eh]
	 Singles Energy            =      -0.0000000000000000 [Eh]
	 Same-Spin Energy          =      -0.4855215620249688 [Eh]
	 Opposite-Spin Energy      =      -1.5014144042853299 [Eh]
	 Correlation Energy        =      -1.9869359663102988 [Eh]
	 Total Energy              =    -799.3054382075956710 [Eh]

	 ================> DF-SCS-MP2 Energies <==================
	-----------------------------------------------------------
	 SCS Same-Spin Scale       =       0.3333333333333333 [-]
	 SCS Opposite-Spin Scale   =       1.2000000000000000 [-]
	 SCS Same-Spin Energy      =      -0.1618405206749896 [Eh]
	 SCS Opposite-Spin Energy  =      -1.8016972851423958 [Eh]
	 SCS Correlation Energy    =      -1.9635378058173854 [Eh]
	 SCS Total Energy          =    -799.2820400471027824 [Eh]
	-----------------------------------------------------------

  Dipole Moment: [D]
     X:     0.4417      Y:    -2.5278      Z:     0.1761     Total:     2.5721

*** Psi4 exiting successfully. Buy a developer a beer!
