                               Psi4 1.4a3.dev225

  ==> Input File <==

--------------------------------------------------------------------------
#psi4
#
memory 32 gb

molecule  {
0 1
  S       -1.0050790    -1.7376190    -0.0151270
  O        2.1293390     1.6156530    -0.0602560
  N        1.4328010    -0.5712990    -0.0002240
  C       -2.0712570     0.6114660     0.0102110
  C        0.0482060    -0.3546190     0.0027700
  C       -0.6600310     0.8254930     0.0130800
  C       -2.4407283    -0.6924344    -0.0022371
  C       -3.0748160     1.7280810     0.0214760
  C        2.3954760     0.4154750    -0.0251370
  C        3.8156290    -0.1071950     0.0454080
  H       -0.1788490     1.7941090     0.0202490
  H       -3.3868100    -1.1685230    -0.0043580
  H        1.7501540    -1.5327770     0.0300190
  H       -2.9559420     2.3719740    -0.8556620
  H       -4.0955650     1.3361040     0.0184570
  H       -2.9548850     2.3555760     0.9102830
  H        3.9313990    -1.0827470    -0.4343570
  H        4.1211000    -0.1952360     1.0924070
  H        4.4689380     0.6162650    -0.4426230
units angstrom
no_reorient  #important for SAPT in psi4, default
symmetry c1  #important for SAPT in psi4, default
}

set PROPERTIES_ORIGIN ["COM"]
properties('MP2/aug-cc-pvtz', properties = ['dipole'])
--------------------------------------------------------------------------

    Molecular point group: c1
  Charge       = 0
  Multiplicity = 1
  Basis Set: AUG-CC-PVTZ
    Blend: AUG-CC-PVTZ
  Basis Set: (AUG-CC-PVTZ AUX)
    Blend: AUG-CC-PVTZ-JKFIT

    Orbital Energies [Eh]
    ---------------------

    Doubly Occupied:

       1A    -91.981926     2A    -20.533881     3A    -15.620153
       4A    -11.370118     5A    -11.313825     6A    -11.249953
       7A    -11.249723     8A    -11.244929     9A    -11.225545
      10A    -11.222022    11A     -8.981820    12A     -6.663000
      13A     -6.662324    14A     -6.661541    15A     -1.389595
      16A     -1.265549    17A     -1.157307    18A     -1.039972
      19A     -1.009068    20A     -0.970725    21A     -0.914013
      22A     -0.827164    23A     -0.788145    24A     -0.729716
      25A     -0.688980    26A     -0.675141    27A     -0.633408
      28A     -0.609621    29A     -0.592700    30A     -0.582049
      31A     -0.581002    32A     -0.563251    33A     -0.558462
      34A     -0.523440    35A     -0.516598    36A     -0.501499
      37A     -0.464198    38A     -0.441792    39A     -0.434279
      40A     -0.340272    41A     -0.299255

  @DF-RHF Final Energy:  -797.31885262717037

   => Energetics <=

    Nuclear Repulsion Energy =            584.1224043443836536
    One-Electron Energy =               -2252.7265905237281913
    Two-Electron Energy =                 871.2853335521742792
    Total Energy =                       -797.3188526271703722
  Basis Set: (AUG-CC-PVTZ AUX)
    Blend: AUG-CC-PVTZ-RI
    Molecular point group: c1

    Geometry (in Angstrom), charge = 0, multiplicity = 1:

       Center              X                  Y                   Z               Mass
    ------------   -----------------  -----------------  -----------------  -----------------
         S           -0.997613304427    -1.711381511121    -0.013019904062    31.972071174400
         O            2.136804695573     1.641890488879    -0.058148904062    15.994914619570
         N            1.440266695573    -0.545061511121     0.001883095938    14.003074004430
         C           -2.063791304427     0.637703488879     0.012318095938    12.000000000000
         C            0.055671695573    -0.328381511121     0.004877095938    12.000000000000
         C           -0.652565304427     0.851730488879     0.015187095938    12.000000000000
         C           -2.433262604427    -0.666196911121    -0.000130004062    12.000000000000
         C           -3.067350304427     1.754318488879     0.023583095938    12.000000000000
         C            2.402941695573     0.441712488879    -0.023029904062    12.000000000000
         C            3.823094695573    -0.080957511121     0.047515095938    12.000000000000
         H           -0.171383304427     1.820346488879     0.022356095938     1.007825032230
         H           -3.379344304427    -1.142285511121    -0.002250904062     1.007825032230
         H            1.757619695573    -1.506539511121     0.032126095938     1.007825032230
         H           -2.948476304427     2.398211488879    -0.853554904062     1.007825032230
         H           -4.088099304427     1.362341488879     0.020564095938     1.007825032230
         H           -2.947419304427     2.381813488879     0.912390095938     1.007825032230
         H            3.938864695573    -1.056509511121    -0.432249904062     1.007825032230
         H            4.128565695573    -0.168998511121     1.094514095938     1.007825032230
         H            4.476403695573     0.642502488879    -0.440515904062     1.007825032230

  Basis Set: AUG-CC-PVTZ
    Blend: AUG-CC-PVTZ
  Basis Set: (AUG-CC-PVTZ AUX)
    Blend: AUG-CC-PVTZ-JKFIT
	 Reference Energy          =    -797.3188526271703722 [Eh]
	 Singles Energy            =      -0.0000000000000000 [Eh]
	 Same-Spin Energy          =      -0.4847054119283407 [Eh]
	 Opposite-Spin Energy      =      -1.5011003258645912 [Eh]
	 Correlation Energy        =      -1.9858057377929319 [Eh]
	 Total Energy              =    -799.3046583649633021 [Eh]

	 ================> DF-SCS-MP2 Energies <==================
	-----------------------------------------------------------
	 SCS Same-Spin Scale       =       0.3333333333333333 [-]
	 SCS Opposite-Spin Scale   =       1.2000000000000000 [-]
	 SCS Same-Spin Energy      =      -0.1615684706427802 [Eh]
	 SCS Opposite-Spin Energy  =      -1.8013203910375093 [Eh]
	 SCS Correlation Energy    =      -1.9628888616802895 [Eh]
	 SCS Total Energy          =    -799.2817414888506846 [Eh]
	-----------------------------------------------------------

  Dipole Moment: [D]
     X:     0.4410      Y:    -2.4478      Z:     0.1787     Total:     2.4936

*** Psi4 exiting successfully. Buy a developer a beer!
