                               Psi4 1.4a3.dev225

  ==> Input File <==

--------------------------------------------------------------------------
#psi4
#
memory 32 gb

molecule  {
0 1
  S       -1.0050790    -1.7376190    -0.0151270
  O        2.1293390     1.6156530    -0.0602560
  N        1.4328010    -0.5712990    -0.0002240
  C       -2.0712570     0.6114660     0.0102110
  C        0.0482060    -0.3546190     0.0027700
  C       -0.6600310     0.8254930     0.0130800
  C       -2.4003070    -0.7218620    -0.0026000
  C       -3.0748160     1.7280810     0.0214760
  C        2.4387562     0.2202976    -0.0194258
  C        3.8156290    -0.1071950     0.0454080
  H       -0.1788490     1.7941090     0.0202490
  H       -3.3868100    -1.1685230    -0.0043580
  H        1.7501540    -1.5327770     0.0300190
  H       -2.9559420     2.3719740    -0.8556620
  H       -4.0955650     1.3361040     0.0184570
  H       -2.9548850     2.3555760     0.9102830
  H        3.9313990    -1.0827470    -0.4343570
  H        4.1211000    -0.1952360     1.0924070
  H        4.4689380     0.6162650    -0.4426230
units angstrom
no_reorient  #important for SAPT in psi4, default
symmetry c1  #important for SAPT in psi4, default
}

set PROPERTIES_ORIGIN ["COM"]
properties('MP2/aug-cc-pvtz', properties = ['dipole'])
--------------------------------------------------------------------------

    Molecular point group: c1
  Charge       = 0
  Multiplicity = 1
  Basis Set: AUG-CC-PVTZ
    Blend: AUG-CC-PVTZ
  Basis Set: (AUG-CC-PVTZ AUX)
    Blend: AUG-CC-PVTZ-JKFIT

    Orbital Energies [Eh]
    ---------------------

    Doubly Occupied:

       1A    -91.993875     2A    -20.489456     3A    -15.644736
       4A    -11.364440     5A    -11.319201     6A    -11.260194
       7A    -11.252608     8A    -11.250719     9A    -11.232695
      10A    -11.229746    11A     -8.994107    12A     -6.675248
      13A     -6.674728    14A     -6.673821    15A     -1.350538
      16A     -1.215945    17A     -1.170011    18A     -1.060355
      19A     -1.026258    20A     -0.984273    21A     -0.927665
      22A     -0.848025    23A     -0.797087    24A     -0.729821
      25A     -0.698991    26A     -0.674874    27A     -0.644490
      28A     -0.614684    29A     -0.591689    30A     -0.586691
      31A     -0.576401    32A     -0.566705    33A     -0.526557
      34A     -0.525778    35A     -0.500792    36A     -0.494570
      37A     -0.479728    38A     -0.399832    39A     -0.393977
      40A     -0.345856    41A     -0.308021

  @DF-RHF Final Energy:  -797.25329679418519

   => Energetics <=

    Nuclear Repulsion Energy =            584.2930602187000204
    One-Electron Energy =               -2252.9023419216455295
    Two-Electron Energy =                 871.3559849087603197
    Total Energy =                       -797.2532967941851894
  Basis Set: (AUG-CC-PVTZ AUX)
    Blend: AUG-CC-PVTZ-RI
    Molecular point group: c1

    Geometry (in Angstrom), charge = 0, multiplicity = 1:

       Center              X                  Y                   Z               Mass
    ------------   -----------------  -----------------  -----------------  -----------------
         S           -1.004091728430    -1.693997277587    -0.013433857875    31.972071174400
         O            2.130326271570     1.659274722413    -0.058562857875    15.994914619570
         N            1.433788271570    -0.527677277587     0.001469142125    14.003074004430
         C           -2.070269728430     0.655087722413     0.011904142125    12.000000000000
         C            0.049193271570    -0.310997277587     0.004463142125    12.000000000000
         C           -0.659043728430     0.869114722413     0.014773142125    12.000000000000
         C           -2.399319728430    -0.678240277587    -0.000906857875    12.000000000000
         C           -3.073828728430     1.771702722413     0.023169142125    12.000000000000
         C            2.439743471570     0.263919322413    -0.017732657875    12.000000000000
         C            3.816616271570    -0.063573277587     0.047101142125    12.000000000000
         H           -0.177861728430     1.837730722413     0.021942142125     1.007825032230
         H           -3.385822728430    -1.124901277587    -0.002664857875     1.007825032230
         H            1.751141271570    -1.489155277587     0.031712142125     1.007825032230
         H           -2.954954728430     2.415595722413    -0.853968857875     1.007825032230
         H           -4.094577728430     1.379725722413     0.020150142125     1.007825032230
         H           -2.953897728430     2.399197722413     0.911976142125     1.007825032230
         H            3.932386271570    -1.039125277587    -0.432663857875     1.007825032230
         H            4.122087271570    -0.151614277587     1.094100142125     1.007825032230
         H            4.469925271570     0.659886722413    -0.440929857875     1.007825032230

  Basis Set: AUG-CC-PVTZ
    Blend: AUG-CC-PVTZ
  Basis Set: (AUG-CC-PVTZ AUX)
    Blend: AUG-CC-PVTZ-JKFIT
	 Reference Energy          =    -797.2532967941851894 [Eh]
	 Singles Energy            =      -0.0000000000000000 [Eh]
	 Same-Spin Energy          =      -0.4903692636816518 [Eh]
	 Opposite-Spin Energy      =      -1.5110893483735142 [Eh]
	 Correlation Energy        =      -2.0014586120551661 [Eh]
	 Total Energy              =    -799.2547554062404060 [Eh]

	 ================> DF-SCS-MP2 Energies <==================
	-----------------------------------------------------------
	 SCS Same-Spin Scale       =       0.3333333333333333 [-]
	 SCS Opposite-Spin Scale   =       1.2000000000000000 [-]
	 SCS Same-Spin Energy      =      -0.1634564212272173 [Eh]
	 SCS Opposite-Spin Energy  =      -1.8133072180482168 [Eh]
	 SCS Correlation Energy    =      -1.9767636392754340 [Eh]
	 SCS Total Energy          =    -799.2300604334606078 [Eh]
	-----------------------------------------------------------

  Dipole Moment: [D]
     X:    -0.2974      Y:    -3.6910      Z:     0.2400     Total:     3.7108

*** Psi4 exiting successfully. Buy a developer a beer!
