                               Psi4 1.4a3.dev225

  ==> Input File <==

--------------------------------------------------------------------------
#psi4
#
memory 32 gb

molecule  {
0 1
  S       -1.0050790    -1.7376190    -0.0151270
  O        2.1293390     1.6156530    -0.0602560
  N        1.4328010    -0.5712990    -0.0002240
  C       -2.0712570     0.6114660     0.0102110
  C        0.0482060    -0.3546190     0.0027700
  C       -0.6600310     0.8254930     0.0130800
  C       -2.4003070    -0.7218620    -0.0026000
  C       -3.0748160     1.7280810     0.0214760
  C        2.3846560     0.4642693    -0.0265648
  C        3.8156290    -0.1071950     0.0454080
  H       -0.1788490     1.7941090     0.0202490
  H       -3.3868100    -1.1685230    -0.0043580
  H        1.7501540    -1.5327770     0.0300190
  H       -2.9559420     2.3719740    -0.8556620
  H       -4.0955650     1.3361040     0.0184570
  H       -2.9548850     2.3555760     0.9102830
  H        3.9313990    -1.0827470    -0.4343570
  H        4.1211000    -0.1952360     1.0924070
  H        4.4689380     0.6162650    -0.4426230
units angstrom
no_reorient  #important for SAPT in psi4, default
symmetry c1  #important for SAPT in psi4, default
}

set PROPERTIES_ORIGIN ["COM"]
properties('MP2/aug-cc-pvtz', properties = ['dipole'])
--------------------------------------------------------------------------

    Molecular point group: c1
  Charge       = 0
  Multiplicity = 1
  Basis Set: AUG-CC-PVTZ
    Blend: AUG-CC-PVTZ
  Basis Set: (AUG-CC-PVTZ AUX)
    Blend: AUG-CC-PVTZ-JKFIT

    Orbital Energies [Eh]
    ---------------------

    Doubly Occupied:

       1A    -91.981957     2A    -20.543801     3A    -15.612567
       4A    -11.369153     5A    -11.309780     6A    -11.248103
       7A    -11.246684     8A    -11.243539     9A    -11.225114
      10A    -11.219535    11A     -8.982508    12A     -6.663676
      13A     -6.663113    14A     -6.662227    15A     -1.423407
      16A     -1.261390    17A     -1.156238    18A     -1.032902
      19A     -1.007880    20A     -0.969114    21A     -0.909294
      22A     -0.819450    23A     -0.782260    24A     -0.728634
      25A     -0.687999    26A     -0.677395    27A     -0.634453
      28A     -0.620367    29A     -0.598662    30A     -0.579512
      31A     -0.575515    32A     -0.558060    33A     -0.555892
      34A     -0.523777    35A     -0.514834    36A     -0.513267
      37A     -0.471461    38A     -0.447592    39A     -0.434963
      40A     -0.338968    41A     -0.292433

  @DF-RHF Final Energy:  -797.31927980567798

   => Energetics <=

    Nuclear Repulsion Energy =            585.0872868296945626
    One-Electron Energy =               -2254.6381824566815339
    Two-Electron Energy =                 872.2316158213088784
    Total Energy =                       -797.3192798056779793
  Basis Set: (AUG-CC-PVTZ AUX)
    Blend: AUG-CC-PVTZ-RI
    Molecular point group: c1

    Geometry (in Angstrom), charge = 0, multiplicity = 1:

       Center              X                  Y                   Z               Mass
    ------------   -----------------  -----------------  -----------------  -----------------
         S           -0.999904419550    -1.712880477019    -0.012881305424    31.972071174400
         O            2.134513580450     1.640391522981    -0.058010305424    15.994914619570
         N            1.437975580450    -0.546560477019     0.002021694576    14.003074004430
         C           -2.066082419550     0.636204522981     0.012456694576    12.000000000000
         C            0.053380580450    -0.329880477019     0.005015694576    12.000000000000
         C           -0.654856419550     0.850231522981     0.015325694576    12.000000000000
         C           -2.395132419550    -0.697123477019    -0.000354305424    12.000000000000
         C           -3.069641419550     1.752819522981     0.023721694576    12.000000000000
         C            2.389830580450     0.489007822981    -0.024319105424    12.000000000000
         C            3.820803580450    -0.082456477019     0.047653694576    12.000000000000
         H           -0.173674419550     1.818847522981     0.022494694576     1.007825032230
         H           -3.381635419550    -1.143784477019    -0.002112305424     1.007825032230
         H            1.755328580450    -1.508038477019     0.032264694576     1.007825032230
         H           -2.950767419550     2.396712522981    -0.853416305424     1.007825032230
         H           -4.090390419550     1.360842522981     0.020702694576     1.007825032230
         H           -2.949710419550     2.380314522981     0.912528694576     1.007825032230
         H            3.936573580450    -1.058008477019    -0.432111305424     1.007825032230
         H            4.126274580450    -0.170497477019     1.094652694576     1.007825032230
         H            4.474112580450     0.641003522981    -0.440377305424     1.007825032230

  Basis Set: AUG-CC-PVTZ
    Blend: AUG-CC-PVTZ
  Basis Set: (AUG-CC-PVTZ AUX)
    Blend: AUG-CC-PVTZ-JKFIT
	 Reference Energy          =    -797.3192798056779793 [Eh]
	 Singles Energy            =      -0.0000000000000000 [Eh]
	 Same-Spin Energy          =      -0.4843839273936671 [Eh]
	 Opposite-Spin Energy      =      -1.4995088131217242 [Eh]
	 Correlation Energy        =      -1.9838927405153914 [Eh]
	 Total Energy              =    -799.3031725461934229 [Eh]

	 ================> DF-SCS-MP2 Energies <==================
	-----------------------------------------------------------
	 SCS Same-Spin Scale       =       0.3333333333333333 [-]
	 SCS Opposite-Spin Scale   =       1.2000000000000000 [-]
	 SCS Same-Spin Energy      =      -0.1614613091312224 [Eh]
	 SCS Opposite-Spin Energy  =      -1.7994105757460690 [Eh]
	 SCS Correlation Energy    =      -1.9608718848772915 [Eh]
	 SCS Total Energy          =    -799.2801516905552717 [Eh]
	-----------------------------------------------------------

  Dipole Moment: [D]
     X:     0.6167      Y:    -2.1866      Z:     0.1618     Total:     2.2777

*** Psi4 exiting successfully. Buy a developer a beer!
