                               Psi4 1.4a3.dev225

  ==> Input File <==

--------------------------------------------------------------------------
#psi4
#
memory 32 gb

molecule  {
0 1
  S       -1.0050790    -1.7376190    -0.0151270
  O        2.1293390     1.6156530    -0.0602560
  N        1.4328010    -0.5712990    -0.0002240
  C       -2.0712570     0.6114660     0.0102110
  C        0.0482060    -0.3546190     0.0027700
  C       -0.6600310     0.8254930     0.0130800
  C       -2.4003070    -0.7218620    -0.0026000
  C       -3.0748160     1.7280810     0.0214760
  C        2.3954760     0.4154750    -0.0251370
  C        3.8156290    -0.1071950     0.0454080
  H       -0.1788490     1.7941090     0.0202490
  H       -3.3868100    -1.1685230    -0.0043580
  H        1.7501540    -1.5327770     0.0300190
  H       -2.9559420     2.3719740    -0.8556620
  H       -4.0955650     1.3361040     0.0184570
  H       -2.9548850     2.3555760     0.9102830
  H        3.9313990    -1.0827470    -0.4343570
  H        4.1350587    -0.1992591     1.1402502
  H        4.4689380     0.6162650    -0.4426230
units angstrom
no_reorient  #important for SAPT in psi4, default
symmetry c1  #important for SAPT in psi4, default
}

set PROPERTIES_ORIGIN ["COM"]
properties('MP2/aug-cc-pvtz', properties = ['dipole'])
--------------------------------------------------------------------------

    Molecular point group: c1
  Charge       = 0
  Multiplicity = 1
  Basis Set: AUG-CC-PVTZ
    Blend: AUG-CC-PVTZ
  Basis Set: (AUG-CC-PVTZ AUX)
    Blend: AUG-CC-PVTZ-JKFIT

    Orbital Energies [Eh]
    ---------------------

    Doubly Occupied:

       1A    -91.984436     2A    -20.533115     3A    -15.619302
       4A    -11.369650     5A    -11.311766     6A    -11.255132
       7A    -11.249320     8A    -11.244975     9A    -11.226007
      10A    -11.222049    11A     -8.984919    12A     -6.666082
      13A     -6.665528    14A     -6.664638    15A     -1.388911
      16A     -1.265032    17A     -1.159628    18A     -1.036950
      19A     -1.010530    20A     -0.971168    21A     -0.912396
      22A     -0.825088    23A     -0.785305    24A     -0.727366
      25A     -0.687792    26A     -0.673728    27A     -0.629117
      28A     -0.610002    29A     -0.592929    30A     -0.579851
      31A     -0.577755    32A     -0.560521    33A     -0.554175
      34A     -0.523559    35A     -0.516213    36A     -0.502026
      37A     -0.473027    38A     -0.442544    39A     -0.433791
      40A     -0.340338    41A     -0.295594

  @DF-RHF Final Energy:  -797.31738348144961

   => Energetics <=

    Nuclear Repulsion Energy =            584.6162544585438354
    One-Electron Energy =               -2253.7227602311604642
    Two-Electron Energy =                 871.7891222911670184
    Total Energy =                       -797.3173834814496104
  Basis Set: (AUG-CC-PVTZ AUX)
    Blend: AUG-CC-PVTZ-RI
    Molecular point group: c1

    Geometry (in Angstrom), charge = 0, multiplicity = 1:

       Center              X                  Y                   Z               Mass
    ------------   -----------------  -----------------  -----------------  -----------------
         S           -1.000832615351    -1.709077688473    -0.013302815809    31.972071174400
         O            2.133585384649     1.644194311527    -0.058431815809    15.994914619570
         N            1.437047384649    -0.542757688473     0.001600184191    14.003074004430
         C           -2.067010615351     0.640007311527     0.012035184191    12.000000000000
         C            0.052452384649    -0.326077688473     0.004594184191    12.000000000000
         C           -0.655784615351     0.854034311527     0.014904184191    12.000000000000
         C           -2.396060615351    -0.693320688473    -0.000775815809    12.000000000000
         C           -3.070569615351     1.756622311527     0.023300184191    12.000000000000
         C            2.399722384649     0.444016311527    -0.023312815809    12.000000000000
         C            3.819875384649    -0.078653688473     0.047232184191    12.000000000000
         H           -0.174602615351     1.822650311527     0.022073184191     1.007825032230
         H           -3.382563615351    -1.139981688473    -0.002533815809     1.007825032230
         H            1.754400384649    -1.504235688473     0.031843184191     1.007825032230
         H           -2.951695615351     2.400515311527    -0.853837815809     1.007825032230
         H           -4.091318615351     1.364645311527     0.020281184191     1.007825032230
         H           -2.950638615351     2.384117311527     0.912107184191     1.007825032230
         H            3.935645384649    -1.054205688473    -0.432532815809     1.007825032230
         H            4.139305084649    -0.170717788473     1.142074384191     1.007825032230
         H            4.473184384649     0.644806311527    -0.440798815809     1.007825032230

  Basis Set: AUG-CC-PVTZ
    Blend: AUG-CC-PVTZ
  Basis Set: (AUG-CC-PVTZ AUX)
    Blend: AUG-CC-PVTZ-JKFIT
	 Reference Energy          =    -797.3173834814496104 [Eh]
	 Singles Energy            =      -0.0000000000000000 [Eh]
	 Same-Spin Energy          =      -0.4855272206875003 [Eh]
	 Opposite-Spin Energy      =      -1.5020109633054028 [Eh]
	 Correlation Energy        =      -1.9875381839929032 [Eh]
	 Total Energy              =    -799.3049216654425209 [Eh]

	 ================> DF-SCS-MP2 Energies <==================
	-----------------------------------------------------------
	 SCS Same-Spin Scale       =       0.3333333333333333 [-]
	 SCS Opposite-Spin Scale   =       1.2000000000000000 [-]
	 SCS Same-Spin Energy      =      -0.1618424068958334 [Eh]
	 SCS Opposite-Spin Energy  =      -1.8024131559664833 [Eh]
	 SCS Correlation Energy    =      -1.9642555628623168 [Eh]
	 SCS Total Energy          =    -799.2816390443118735 [Eh]
	-----------------------------------------------------------

  Dipole Moment: [D]
     X:     0.4214      Y:    -2.5256      Z:     0.1683     Total:     2.5661

*** Psi4 exiting successfully. Buy a developer a beer!
