                               Psi4 1.4a3.dev225

  ==> Input File <==

--------------------------------------------------------------------------
#psi4
#
memory 32 gb

molecule  {
0 1
  S       -1.0050790    -1.7376190    -0.0151270
  O        2.1293390     1.6156530    -0.0602560
  N        1.4328010    -0.5712990    -0.0002240
  C       -2.0712570     0.6114660     0.0102110
  C        0.0482060    -0.3546190     0.0027700
  C       -0.6600310     0.8254930     0.0130800
  C       -2.4003070    -0.7218620    -0.0026000
  C       -3.1082376     1.7652677     0.0218512
  C        2.3954760     0.4154750    -0.0251370
  C        3.8156290    -0.1071950     0.0454080
  H       -0.1788490     1.7941090     0.0202490
  H       -3.3868100    -1.1685230    -0.0043580
  H        1.7501540    -1.5327770     0.0300190
  H       -2.9559420     2.3719740    -0.8556620
  H       -4.0955650     1.3361040     0.0184570
  H       -2.9548850     2.3555760     0.9102830
  H        3.9313990    -1.0827470    -0.4343570
  H        4.1211000    -0.1952360     1.0924070
  H        4.4689380     0.6162650    -0.4426230
units angstrom
no_reorient  #important for SAPT in psi4, default
symmetry c1  #important for SAPT in psi4, default
}

set PROPERTIES_ORIGIN ["COM"]
properties('MP2/aug-cc-pvtz', properties = ['dipole'])
--------------------------------------------------------------------------

    Molecular point group: c1
  Charge       = 0
  Multiplicity = 1
  Basis Set: AUG-CC-PVTZ
    Blend: AUG-CC-PVTZ
  Basis Set: (AUG-CC-PVTZ AUX)
    Blend: AUG-CC-PVTZ-JKFIT

    Orbital Energies [Eh]
    ---------------------

    Doubly Occupied:

       1A    -91.984205     2A    -20.532810     3A    -15.619034
       4A    -11.369155     5A    -11.311397     6A    -11.249354
       7A    -11.249089     8A    -11.246651     9A    -11.225083
      10A    -11.221921    11A     -8.984679    12A     -6.665840
      13A     -6.665290    14A     -6.664398    15A     -1.388632
      16A     -1.264734    17A     -1.157932    18A     -1.035226
      19A     -1.009502    20A     -0.971298    21A     -0.915194
      22A     -0.825734    23A     -0.784763    24A     -0.726668
      25A     -0.686415    26A     -0.673147    27A     -0.632744
      28A     -0.607257    29A     -0.592822    30A     -0.584704
      31A     -0.578987    32A     -0.560679    33A     -0.557919
      34A     -0.528380    35A     -0.511105    36A     -0.504311
      37A     -0.470132    38A     -0.442878    39A     -0.433498
      40A     -0.340864    41A     -0.295451

  @DF-RHF Final Energy:  -797.31787056711175

   => Energetics <=

    Nuclear Repulsion Energy =            583.9397415397546638
    One-Electron Energy =               -2252.3754569157867991
    Two-Electron Energy =                 871.1178448089202675
    Total Energy =                       -797.3178705671117541
  Basis Set: (AUG-CC-PVTZ AUX)
    Blend: AUG-CC-PVTZ-RI
    Molecular point group: c1

    Geometry (in Angstrom), charge = 0, multiplicity = 1:

       Center              X                  Y                   Z               Mass
    ------------   -----------------  -----------------  -----------------  -----------------
         S           -0.998155075178    -1.711982058778    -0.013020856071    31.972071174400
         O            2.136262924822     1.641289941222    -0.058149856071    15.994914619570
         N            1.439724924822    -0.545662058778     0.001882143929    14.003074004430
         C           -2.064333075178     0.637102941222     0.012317143929    12.000000000000
         C            0.055129924822    -0.328982058778     0.004876143929    12.000000000000
         C           -0.653107075178     0.851129941222     0.015186143929    12.000000000000
         C           -2.393383075178    -0.696225058778    -0.000493856071    12.000000000000
         C           -3.101313675178     1.790904641222     0.023957343929    12.000000000000
         C            2.402399924822     0.441111941222    -0.023030856071    12.000000000000
         C            3.822552924822    -0.081558058778     0.047514143929    12.000000000000
         H           -0.171925075178     1.819745941222     0.022355143929     1.007825032230
         H           -3.379886075178    -1.142886058778    -0.002251856071     1.007825032230
         H            1.757077924822    -1.507140058778     0.032125143929     1.007825032230
         H           -2.949018075178     2.397610941222    -0.853555856071     1.007825032230
         H           -4.088641075178     1.361740941222     0.020563143929     1.007825032230
         H           -2.947961075178     2.381212941222     0.912389143929     1.007825032230
         H            3.938322924822    -1.057110058778    -0.432250856071     1.007825032230
         H            4.128023924822    -0.169599058778     1.094513143929     1.007825032230
         H            4.475861924822     0.641901941222    -0.440516856071     1.007825032230

  Basis Set: AUG-CC-PVTZ
    Blend: AUG-CC-PVTZ
  Basis Set: (AUG-CC-PVTZ AUX)
    Blend: AUG-CC-PVTZ-JKFIT
	 Reference Energy          =    -797.3178705671117541 [Eh]
	 Singles Energy            =      -0.0000000000000000 [Eh]
	 Same-Spin Energy          =      -0.4852411591227549 [Eh]
	 Opposite-Spin Energy      =      -1.5014915708663543 [Eh]
	 Correlation Energy        =      -1.9867327299891091 [Eh]
	 Total Energy              =    -799.3046032971008117 [Eh]

	 ================> DF-SCS-MP2 Energies <==================
	-----------------------------------------------------------
	 SCS Same-Spin Scale       =       0.3333333333333333 [-]
	 SCS Opposite-Spin Scale   =       1.2000000000000000 [-]
	 SCS Same-Spin Energy      =      -0.1617470530409183 [Eh]
	 SCS Opposite-Spin Energy  =      -1.8017898850396250 [Eh]
	 SCS Correlation Energy    =      -1.9635369380805432 [Eh]
	 SCS Total Energy          =    -799.2814075051923055 [Eh]
	-----------------------------------------------------------

  Dipole Moment: [D]
     X:     0.4202      Y:    -2.5243      Z:     0.1779     Total:     2.5652

*** Psi4 exiting successfully. Buy a developer a beer!
