                               Psi4 1.4a3.dev225

  ==> Input File <==

--------------------------------------------------------------------------
#psi4
#
memory 32 gb

molecule  {
0 1
  S       -1.0050790    -1.7376190    -0.0151270
  O        2.1293390     1.6156530    -0.0602560
  N        1.4328010    -0.5712990    -0.0002240
  C       -2.0712570     0.6114660     0.0102110
  C        0.0482060    -0.3546190     0.0027700
  C       -0.6600310     0.8254930     0.0130800
  C       -2.4003070    -0.7218620    -0.0026000
  C       -3.0413944     1.6908943     0.0211008
  C        2.3954760     0.4154750    -0.0251370
  C        3.8156290    -0.1071950     0.0454080
  H       -0.1788490     1.7941090     0.0202490
  H       -3.3868100    -1.1685230    -0.0043580
  H        1.7501540    -1.5327770     0.0300190
  H       -2.9559420     2.3719740    -0.8556620
  H       -4.0955650     1.3361040     0.0184570
  H       -2.9548850     2.3555760     0.9102830
  H        3.9313990    -1.0827470    -0.4343570
  H        4.1211000    -0.1952360     1.0924070
  H        4.4689380     0.6162650    -0.4426230
units angstrom
no_reorient  #important for SAPT in psi4, default
symmetry c1  #important for SAPT in psi4, default
}

set PROPERTIES_ORIGIN ["COM"]
properties('MP2/aug-cc-pvtz', properties = ['dipole'])
--------------------------------------------------------------------------

    Molecular point group: c1
  Charge       = 0
  Multiplicity = 1
  Basis Set: AUG-CC-PVTZ
    Blend: AUG-CC-PVTZ
  Basis Set: (AUG-CC-PVTZ AUX)
    Blend: AUG-CC-PVTZ-JKFIT

    Orbital Energies [Eh]
    ---------------------

    Doubly Occupied:

       1A    -91.984600     2A    -20.533148     3A    -15.619424
       4A    -11.369482     5A    -11.312022     6A    -11.249605
       7A    -11.249585     8A    -11.242756     9A    -11.227616
      10A    -11.222106    11A     -8.985092    12A     -6.666258
      13A     -6.665701    14A     -6.664812    15A     -1.388960
      16A     -1.265198    17A     -1.161659    18A     -1.042193
      19A     -1.014559    20A     -0.972427    21A     -0.910348
      22A     -0.825673    23A     -0.785949    24A     -0.728302
      25A     -0.690489    26A     -0.674454    27A     -0.633061
      28A     -0.614143    29A     -0.593347    30A     -0.578398
      31A     -0.576479    32A     -0.562743    33A     -0.555964
      34A     -0.526049    35A     -0.512092    36A     -0.501526
      37A     -0.474076    38A     -0.441934    39A     -0.433789
      40A     -0.339517    41A     -0.295625

  @DF-RHF Final Energy:  -797.31622035302416

   => Energetics <=

    Nuclear Repulsion Energy =            585.7549659596770653
    One-Electron Energy =               -2255.9600521814522835
    Two-Electron Energy =                 872.8888658687510542
    Total Energy =                       -797.3162203530241641
  Basis Set: (AUG-CC-PVTZ AUX)
    Blend: AUG-CC-PVTZ-RI
    Molecular point group: c1

    Geometry (in Angstrom), charge = 0, multiplicity = 1:

       Center              X                  Y                   Z               Mass
    ------------   -----------------  -----------------  -----------------  -----------------
         S           -1.003328681282    -1.706225621680    -0.012962775758    31.972071174400
         O            2.131089318718     1.647046378320    -0.058091775758    15.994914619570
         N            1.434551318718    -0.539905621680     0.001940224242    14.003074004430
         C           -2.069506681282     0.642859378320     0.012375224242    12.000000000000
         C            0.049956318718    -0.323225621680     0.004934224242    12.000000000000
         C           -0.658280681282     0.856886378320     0.015244224242    12.000000000000
         C           -2.398556681282    -0.690468621680    -0.000435775758    12.000000000000
         C           -3.039644081282     1.722287678320     0.023265024242    12.000000000000
         C            2.397226318718     0.446868378320    -0.022972775758    12.000000000000
         C            3.817379318718    -0.075801621680     0.047572224242    12.000000000000
         H           -0.177098681282     1.825502378320     0.022413224242     1.007825032230
         H           -3.385059681282    -1.137129621680    -0.002193775758     1.007825032230
         H            1.751904318718    -1.501383621680     0.032183224242     1.007825032230
         H           -2.954191681282     2.403367378320    -0.853497775758     1.007825032230
         H           -4.093814681282     1.367497378320     0.020621224242     1.007825032230
         H           -2.953134681282     2.386969378320     0.912447224242     1.007825032230
         H            3.933149318718    -1.051353621680    -0.432192775758     1.007825032230
         H            4.122850318718    -0.163842621680     1.094571224242     1.007825032230
         H            4.470688318718     0.647658378320    -0.440458775758     1.007825032230

  Basis Set: AUG-CC-PVTZ
    Blend: AUG-CC-PVTZ
  Basis Set: (AUG-CC-PVTZ AUX)
    Blend: AUG-CC-PVTZ-JKFIT
	 Reference Energy          =    -797.3162203530241641 [Eh]
	 Singles Energy            =      -0.0000000000000000 [Eh]
	 Same-Spin Energy          =      -0.4860172313685951 [Eh]
	 Opposite-Spin Energy      =      -1.5022416706942487 [Eh]
	 Correlation Energy        =      -1.9882589020628438 [Eh]
	 Total Energy              =    -799.3044792550870170 [Eh]

	 ================> DF-SCS-MP2 Energies <==================
	-----------------------------------------------------------
	 SCS Same-Spin Scale       =       0.3333333333333333 [-]
	 SCS Opposite-Spin Scale   =       1.2000000000000000 [-]
	 SCS Same-Spin Energy      =      -0.1620057437895317 [Eh]
	 SCS Opposite-Spin Energy  =      -1.8026900048330985 [Eh]
	 SCS Correlation Energy    =      -1.9646957486226302 [Eh]
	 SCS Total Energy          =    -799.2809161016467669 [Eh]
	-----------------------------------------------------------

  Dipole Moment: [D]
     X:     0.4430      Y:    -2.5337      Z:     0.1777     Total:     2.5783

*** Psi4 exiting successfully. Buy a developer a beer!
