                               Psi4 1.4a3.dev225

  ==> Input File <==

--------------------------------------------------------------------------
#psi4
#
memory 32 gb

molecule  {
0 1
  S       -1.0050790    -1.7376190    -0.0151270
  O        2.1293390     1.6156530    -0.0602560
  N        1.4328010    -0.5712990    -0.0002240
  C       -2.0712570     0.6114660     0.0102110
  C       -0.0011927    -0.3468884     0.0028768
  C       -0.6600310     0.8254930     0.0130800
  C       -2.4003070    -0.7218620    -0.0026000
  C       -3.0748160     1.7280810     0.0214760
  C        2.3954760     0.4154750    -0.0251370
  C        3.8156290    -0.1071950     0.0454080
  H       -0.1788490     1.7941090     0.0202490
  H       -3.3868100    -1.1685230    -0.0043580
  H        1.7501540    -1.5327770     0.0300190
  H       -2.9559420     2.3719740    -0.8556620
  H       -4.0955650     1.3361040     0.0184570
  H       -2.9548850     2.3555760     0.9102830
  H        3.9313990    -1.0827470    -0.4343570
  H        4.1211000    -0.1952360     1.0924070
  H        4.4689380     0.6162650    -0.4426230
units angstrom
no_reorient  #important for SAPT in psi4, default
symmetry c1  #important for SAPT in psi4, default
}

set PROPERTIES_ORIGIN ["COM"]
properties('MP2/aug-cc-pvtz', properties = ['dipole'])
--------------------------------------------------------------------------

    Molecular point group: c1
  Charge       = 0
  Multiplicity = 1
  Basis Set: AUG-CC-PVTZ
    Blend: AUG-CC-PVTZ
  Basis Set: (AUG-CC-PVTZ AUX)
    Blend: AUG-CC-PVTZ-JKFIT

    Orbital Energies [Eh]
    ---------------------

    Doubly Occupied:

       1A    -91.985511     2A    -20.529045     3A    -15.614934
       4A    -11.366147     5A    -11.308776     6A    -11.250753
       7A    -11.247142     8A    -11.246036     9A    -11.226824
      10A    -11.220658    11A     -8.986550    12A     -6.667757
      13A     -6.667117    14A     -6.666210    15A     -1.384149
      16A     -1.252177    17A     -1.166143    18A     -1.036911
      19A     -1.012092    20A     -0.978122    21A     -0.912906
      22A     -0.816956    23A     -0.778715    24A     -0.729213
      25A     -0.688372    26A     -0.671870    27A     -0.628428
      28A     -0.609585    29A     -0.588313    30A     -0.582009
      31A     -0.577597    32A     -0.557487    33A     -0.554369
      34A     -0.528158    35A     -0.517801    36A     -0.505398
      37A     -0.478331    38A     -0.437377    39A     -0.430764
      40A     -0.343653    41A     -0.302220

  @DF-RHF Final Energy:  -797.31757951013958

   => Energetics <=

    Nuclear Repulsion Energy =            585.0802907377880047
    One-Electron Energy =               -2254.6905925250771361
    Two-Electron Energy =                 872.2927222771496645
    Total Energy =                       -797.3175795101395806
  Basis Set: (AUG-CC-PVTZ AUX)
    Blend: AUG-CC-PVTZ-RI
    Molecular point group: c1

    Geometry (in Angstrom), charge = 0, multiplicity = 1:

       Center              X                  Y                   Z               Mass
    ------------   -----------------  -----------------  -----------------  -----------------
         S           -0.996918461400    -1.709702182010    -0.013000082142    31.972071174400
         O            2.137499538600     1.643569817990    -0.058129082142    15.994914619570
         N            1.440961538600    -0.543382182010     0.001902917858    14.003074004430
         C           -2.063096461400     0.639382817990     0.012337917858    12.000000000000
         C            0.006967838600    -0.318971582010     0.005003717858    12.000000000000
         C           -0.651870461400     0.853409817990     0.015206917858    12.000000000000
         C           -2.392146461400    -0.693945182010    -0.000473082142    12.000000000000
         C           -3.066655461400     1.755997817990     0.023602917858    12.000000000000
         C            2.403636538600     0.443391817990    -0.023010082142    12.000000000000
         C            3.823789538600    -0.079278182010     0.047534917858    12.000000000000
         H           -0.170688461400     1.822025817990     0.022375917858     1.007825032230
         H           -3.378649461400    -1.140606182010    -0.002231082142     1.007825032230
         H            1.758314538600    -1.504860182010     0.032145917858     1.007825032230
         H           -2.947781461400     2.399890817990    -0.853535082142     1.007825032230
         H           -4.087404461400     1.364020817990     0.020583917858     1.007825032230
         H           -2.946724461400     2.383492817990     0.912409917858     1.007825032230
         H            3.939559538600    -1.054830182010    -0.432230082142     1.007825032230
         H            4.129260538600    -0.167319182010     1.094533917858     1.007825032230
         H            4.477098538600     0.644181817990    -0.440496082142     1.007825032230

  Basis Set: AUG-CC-PVTZ
    Blend: AUG-CC-PVTZ
  Basis Set: (AUG-CC-PVTZ AUX)
    Blend: AUG-CC-PVTZ-JKFIT
	 Reference Energy          =    -797.3175795101395806 [Eh]
	 Singles Energy            =      -0.0000000000000000 [Eh]
	 Same-Spin Energy          =      -0.4849124218576645 [Eh]
	 Opposite-Spin Energy      =      -1.5010963351427336 [Eh]
	 Correlation Energy        =      -1.9860087570003981 [Eh]
	 Total Energy              =    -799.3035882671399577 [Eh]

	 ================> DF-SCS-MP2 Energies <==================
	-----------------------------------------------------------
	 SCS Same-Spin Scale       =       0.3333333333333333 [-]
	 SCS Opposite-Spin Scale   =       1.2000000000000000 [-]
	 SCS Same-Spin Energy      =      -0.1616374739525548 [Eh]
	 SCS Opposite-Spin Energy  =      -1.8013156021712802 [Eh]
	 SCS Correlation Energy    =      -1.9629530761238350 [Eh]
	 SCS Total Energy          =    -799.2805325862634618 [Eh]
	-----------------------------------------------------------

  Dipole Moment: [D]
     X:     0.1852      Y:    -2.5589      Z:     0.1783     Total:     2.5718

*** Psi4 exiting successfully. Buy a developer a beer!
