                               Psi4 1.4a3.dev225

  ==> Input File <==

--------------------------------------------------------------------------
#psi4
#
memory 32 gb

molecule  {
0 1
  S       -1.0050790    -1.7376190    -0.0151270
  O        2.1293390     1.6156530    -0.0602560
  N        1.4328010    -0.5712990    -0.0002240
  C       -2.0712570     0.6114660     0.0102110
  C        0.0482060    -0.3546190     0.0027700
  C       -0.6600310     0.8254930     0.0130800
  C       -2.4003070    -0.7218620    -0.0026000
  C       -3.0748160     1.7280810     0.0214760
  C        2.3954760     0.4154750    -0.0251370
  C        3.8156290    -0.1071950     0.0454080
  H       -0.1788490     1.7941090     0.0202490
  H       -3.3868100    -1.1685230    -0.0043580
  H        1.7501540    -1.5327770     0.0300190
  H       -2.9559420     2.3719740    -0.8556620
  H       -4.0955650     1.3361040     0.0184570
  H       -2.9548850     2.3555760     0.9102830
  H        3.9313990    -1.0827470    -0.4343570
  H        4.1211000    -0.1952360     1.0924070
  H        4.3490790     0.4835358    -0.3530866
units angstrom
no_reorient  #important for SAPT in psi4, default
symmetry c1  #important for SAPT in psi4, default
}

set PROPERTIES_ORIGIN ["COM"]
properties('MP2/aug-cc-pvtz', properties = ['dipole'])
--------------------------------------------------------------------------

    Molecular point group: c1
  Charge       = 0
  Multiplicity = 1
  Basis Set: AUG-CC-PVTZ
    Blend: AUG-CC-PVTZ
  Basis Set: (AUG-CC-PVTZ AUX)
    Blend: AUG-CC-PVTZ-JKFIT

    Orbital Energies [Eh]
    ---------------------

    Doubly Occupied:

       1A    -91.984130     2A    -20.533554     3A    -15.618421
       4A    -11.368658     5A    -11.311356     6A    -11.249031
       7A    -11.244741     8A    -11.226733     9A    -11.225844
      10A    -11.221733    11A     -8.984616    12A     -6.665779
      13A     -6.665225    14A     -6.664336    15A     -1.389199
      16A     -1.264494    17A     -1.159386    18A     -1.049752
      19A     -1.019561    20A     -0.974982    21A     -0.915096
      22A     -0.830984    23A     -0.785641    24A     -0.727394
      25A     -0.691017    26A     -0.673899    27A     -0.642786
      28A     -0.619066    29A     -0.598184    30A     -0.589323
      31A     -0.580446    32A     -0.566126    33A     -0.558780
      34A     -0.523728    35A     -0.515973    36A     -0.503844
      37A     -0.472784    38A     -0.442482    39A     -0.433410
      40A     -0.340097    41A     -0.295291

  @DF-RHF Final Energy:  -797.28460154158188

   => Energetics <=

    Nuclear Repulsion Energy =            585.8728219880131292
    One-Electron Energy =               -2256.0590889803092978
    Two-Electron Energy =                 872.9016654507142903
    Total Energy =                       -797.2846015415818783
  Basis Set: (AUG-CC-PVTZ AUX)
    Blend: AUG-CC-PVTZ-RI
    Molecular point group: c1

    Geometry (in Angstrom), charge = 0, multiplicity = 1:

       Center              X                  Y                   Z               Mass
    ------------   -----------------  -----------------  -----------------  -----------------
         S           -0.999962746892    -1.708241047454    -0.013573838250    31.972071174400
         O            2.134455253108     1.645030952546    -0.058702838250    15.994914619570
         N            1.437917253108    -0.541921047454     0.001329161750    14.003074004430
         C           -2.066140746892     0.640843952546     0.011764161750    12.000000000000
         C            0.053322253108    -0.325241047454     0.004323161750    12.000000000000
         C           -0.654914746892     0.854870952546     0.014633161750    12.000000000000
         C           -2.395190746892    -0.692484047454    -0.001046838250    12.000000000000
         C           -3.069699746892     1.757458952546     0.023029161750    12.000000000000
         C            2.400592253108     0.444852952546    -0.023583838250    12.000000000000
         C            3.820745253108    -0.077817047454     0.046961161750    12.000000000000
         H           -0.173732746892     1.823486952546     0.021802161750     1.007825032230
         H           -3.381693746892    -1.139145047454    -0.002804838250     1.007825032230
         H            1.755270253108    -1.503399047454     0.031572161750     1.007825032230
         H           -2.950825746892     2.401351952546    -0.854108838250     1.007825032230
         H           -4.090448746892     1.365481952546     0.020010161750     1.007825032230
         H           -2.949768746892     2.384953952546     0.911836161750     1.007825032230
         H            3.936515253108    -1.053369047454    -0.432803838250     1.007825032230
         H            4.126216253108    -0.165858047454     1.093960161750     1.007825032230
         H            4.354195253108     0.512913752546    -0.351533438250     1.007825032230

  Basis Set: AUG-CC-PVTZ
    Blend: AUG-CC-PVTZ
  Basis Set: (AUG-CC-PVTZ AUX)
    Blend: AUG-CC-PVTZ-JKFIT
	 Reference Energy          =    -797.2846015415818783 [Eh]
	 Singles Energy            =      -0.0000000000000000 [Eh]
	 Same-Spin Energy          =      -0.4856162073141277 [Eh]
	 Opposite-Spin Energy      =      -1.5011363544622389 [Eh]
	 Correlation Energy        =      -1.9867525617763666 [Eh]
	 Total Energy              =    -799.2713541033582487 [Eh]

	 ================> DF-SCS-MP2 Energies <==================
	-----------------------------------------------------------
	 SCS Same-Spin Scale       =       0.3333333333333333 [-]
	 SCS Opposite-Spin Scale   =       1.2000000000000000 [-]
	 SCS Same-Spin Energy      =      -0.1618720691047092 [Eh]
	 SCS Opposite-Spin Energy  =      -1.8013636253546865 [Eh]
	 SCS Correlation Energy    =      -1.9632356944593958 [Eh]
	 SCS Total Energy          =    -799.2478372360412777 [Eh]
	-----------------------------------------------------------

  Dipole Moment: [D]
     X:     0.4599      Y:    -2.5348      Z:     0.1769     Total:     2.5822

*** Psi4 exiting successfully. Buy a developer a beer!
