                               Psi4 1.4a3.dev225

  ==> Input File <==

--------------------------------------------------------------------------
#psi4
#
memory 32 gb

molecule  {
0 1
  S       -1.0050790    -1.7376190    -0.0151270
  O        2.1293390     1.6156530    -0.0602560
  N        1.4328010    -0.5712990    -0.0002240
  C       -2.0712570     0.6114660     0.0102110
  C        0.0482060    -0.3546190     0.0027700
  C       -0.6600310     0.8254930     0.0130800
  C       -2.4003070    -0.7218620    -0.0026000
  C       -3.0748160     1.7280810     0.0214760
  C        2.3954760     0.4154750    -0.0251370
  C        3.8156290    -0.1071950     0.0454080
  H       -0.1788490     1.7941090     0.0202490
  H       -3.3868100    -1.1685230    -0.0043580
  H        1.7501540    -1.5327770     0.0300190
  H       -2.9740412     2.3683376    -0.8605762
  H       -4.0955650     1.3361040     0.0184570
  H       -2.9548850     2.3555760     0.9102830
  H        3.9313990    -1.0827470    -0.4343570
  H        4.1211000    -0.1952360     1.0924070
  H        4.4689380     0.6162650    -0.4426230
units angstrom
no_reorient  #important for SAPT in psi4, default
symmetry c1  #important for SAPT in psi4, default
}

set PROPERTIES_ORIGIN ["COM"]
properties('MP2/aug-cc-pvtz', properties = ['dipole'])
--------------------------------------------------------------------------

    Molecular point group: c1
  Charge       = 0
  Multiplicity = 1
  Basis Set: AUG-CC-PVTZ
    Blend: AUG-CC-PVTZ
  Basis Set: (AUG-CC-PVTZ AUX)
    Blend: AUG-CC-PVTZ-JKFIT

    Orbital Energies [Eh]
    ---------------------

    Doubly Occupied:

       1A    -91.984461     2A    -20.532965     3A    -15.619222
       4A    -11.369307     5A    -11.311690     6A    -11.249462
       7A    -11.249402     8A    -11.245015     9A    -11.225916
      10A    -11.222012    11A     -8.984943    12A     -6.666106
      13A     -6.665553    14A     -6.664663    15A     -1.388783
      16A     -1.264958    17A     -1.159619    18A     -1.038113
      19A     -1.012067    20A     -0.971863    21A     -0.912800
      22A     -0.825742    23A     -0.785370    24A     -0.727455
      25A     -0.688373    26A     -0.673837    27A     -0.632893
      28A     -0.610195    29A     -0.592700    30A     -0.581366
      31A     -0.576942    32A     -0.560848    33A     -0.558117
      34A     -0.523118    35A     -0.515961    36A     -0.503212
      37A     -0.473049    38A     -0.442544    39A     -0.433636
      40A     -0.340413    41A     -0.295613

  @DF-RHF Final Energy:  -797.31944519653518

   => Energetics <=

    Nuclear Repulsion Energy =            584.8097562250256942
    One-Electron Energy =               -2254.0977996311585230
    Two-Electron Energy =                 871.9685982095976442
    Total Energy =                       -797.3194451965351846
  Basis Set: (AUG-CC-PVTZ AUX)
    Blend: AUG-CC-PVTZ-RI
    Molecular point group: c1

    Geometry (in Angstrom), charge = 0, multiplicity = 1:

       Center              X                  Y                   Z               Mass
    ------------   -----------------  -----------------  -----------------  -----------------
         S           -1.000624226206    -1.709080202177    -0.012959871653    31.972071174400
         O            2.133793773794     1.644191797823    -0.058088871653    15.994914619570
         N            1.437255773794    -0.542760202177     0.001943128347    14.003074004430
         C           -2.066802226206     0.640004797823     0.012378128347    12.000000000000
         C            0.052660773794    -0.326080202177     0.004937128347    12.000000000000
         C           -0.655576226206     0.854031797823     0.015247128347    12.000000000000
         C           -2.395852226206    -0.693323202177    -0.000432871653    12.000000000000
         C           -3.070361226206     1.756619797823     0.023643128347    12.000000000000
         C            2.399930773794     0.444013797823    -0.022969871653    12.000000000000
         C            3.820083773794    -0.078656202177     0.047575128347    12.000000000000
         H           -0.174394226206     1.822647797823     0.022416128347     1.007825032230
         H           -3.382355226206    -1.139984202177    -0.002190871653     1.007825032230
         H            1.754608773794    -1.504238202177     0.032186128347     1.007825032230
         H           -2.969586426206     2.396876397823    -0.858409071653     1.007825032230
         H           -4.091110226206     1.364642797823     0.020624128347     1.007825032230
         H           -2.950430226206     2.384114797823     0.912450128347     1.007825032230
         H            3.935853773794    -1.054208202177    -0.432189871653     1.007825032230
         H            4.125554773794    -0.166697202177     1.094574128347     1.007825032230
         H            4.473392773794     0.644803797823    -0.440455871653     1.007825032230

  Basis Set: AUG-CC-PVTZ
    Blend: AUG-CC-PVTZ
  Basis Set: (AUG-CC-PVTZ AUX)
    Blend: AUG-CC-PVTZ-JKFIT
	 Reference Energy          =    -797.3194451965351846 [Eh]
	 Singles Energy            =      -0.0000000000000000 [Eh]
	 Same-Spin Energy          =      -0.4855289837185846 [Eh]
	 Opposite-Spin Energy      =      -1.5016968392681682 [Eh]
	 Correlation Energy        =      -1.9872258229867528 [Eh]
	 Total Energy              =    -799.3066710195219002 [Eh]

	 ================> DF-SCS-MP2 Energies <==================
	-----------------------------------------------------------
	 SCS Same-Spin Scale       =       0.3333333333333333 [-]
	 SCS Opposite-Spin Scale   =       1.2000000000000000 [-]
	 SCS Same-Spin Energy      =      -0.1618429945728615 [Eh]
	 SCS Opposite-Spin Energy  =      -1.8020362071218017 [Eh]
	 SCS Correlation Energy    =      -1.9638792016946631 [Eh]
	 SCS Total Energy          =    -799.2833243982298654 [Eh]
	-----------------------------------------------------------

  Dipole Moment: [D]
     X:     0.4268      Y:    -2.5320      Z:     0.1742     Total:     2.5736

*** Psi4 exiting successfully. Buy a developer a beer!
