                               Psi4 1.4a3.dev225

  ==> Input File <==

--------------------------------------------------------------------------
#psi4
#
memory 32 gb

molecule  {
0 1
  S       -1.0050790    -1.7376190    -0.0151270
  O        2.1293390     1.6156530    -0.0602560
  N        1.4328010    -0.5712990    -0.0002240
  C       -2.0712570     0.6114660     0.0102110
  C        0.0482060    -0.3546190     0.0027700
  C       -0.6600310     0.8254930     0.0130800
  C       -2.4003070    -0.7218620    -0.0026000
  C       -3.0748160     1.7280810     0.0214760
  C        2.3954760     0.4154750    -0.0251370
  C        3.8156290    -0.1071950     0.0454080
  H       -0.1788490     1.7941090     0.0202490
  H       -3.3868100    -1.1685230    -0.0043580
  H        1.7501540    -1.5327770     0.0300190
  H       -2.9559420     2.3719740    -0.8556620
  H       -4.0955650     1.3361040     0.0184570
  H       -2.9548850     2.3555760     0.9102830
  H        3.9313990    -1.0827470    -0.4343570
  H        4.1211000    -0.1952360     1.0924070
  H        4.4090085     0.5499004    -0.3978548
units angstrom
no_reorient  #important for SAPT in psi4, default
symmetry c1  #important for SAPT in psi4, default
}

set PROPERTIES_ORIGIN ["COM"]
properties('MP2/aug-cc-pvtz', properties = ['dipole'])
--------------------------------------------------------------------------

    Molecular point group: c1
  Charge       = 0
  Multiplicity = 1
  Basis Set: AUG-CC-PVTZ
    Blend: AUG-CC-PVTZ
  Basis Set: (AUG-CC-PVTZ AUX)
    Blend: AUG-CC-PVTZ-JKFIT

    Orbital Energies [Eh]
    ---------------------

    Doubly Occupied:

       1A    -91.984232     2A    -20.533222     3A    -15.618752
       4A    -11.368887     5A    -11.311494     6A    -11.249126
       7A    -11.244815     8A    -11.238089     9A    -11.225895
      10A    -11.221833    11A     -8.984717    12A     -6.665880
      13A     -6.665327    14A     -6.664437    15A     -1.388947
      16A     -1.264673    17A     -1.159449    18A     -1.041987
      19A     -1.015840    20A     -0.973370    21A     -0.913816
      22A     -0.828031    23A     -0.785420    24A     -0.727352
      25A     -0.689163    26A     -0.673775    27A     -0.635771
      28A     -0.613860    29A     -0.594634    30A     -0.585854
      31A     -0.580486    32A     -0.564656    33A     -0.558860
      34A     -0.523654    35A     -0.516049    36A     -0.503538
      37A     -0.472861    38A     -0.442460    39A     -0.433463
      40A     -0.340174    41A     -0.295400

  @DF-RHF Final Energy:  -797.31330768738439

   => Energetics <=

    Nuclear Repulsion Energy =            585.3169533938308859
    One-Electron Energy =               -2255.0600219269676927
    Two-Electron Energy =                 872.4297608457525257
    Total Energy =                       -797.3133076873843947
  Basis Set: (AUG-CC-PVTZ AUX)
    Blend: AUG-CC-PVTZ-RI
    Molecular point group: c1

    Geometry (in Angstrom), charge = 0, multiplicity = 1:

       Center              X                  Y                   Z               Mass
    ------------   -----------------  -----------------  -----------------  -----------------
         S           -1.000352312561    -1.708672443842    -0.013282827082    31.972071174400
         O            2.134065687439     1.644599556158    -0.058411827082    15.994914619570
         N            1.437527687439    -0.542352443842     0.001620172918    14.003074004430
         C           -2.066530312561     0.640412556158     0.012055172918    12.000000000000
         C            0.052932687439    -0.325672443842     0.004614172918    12.000000000000
         C           -0.655304312561     0.854439556158     0.014924172918    12.000000000000
         C           -2.395580312561    -0.692915443842    -0.000755827082    12.000000000000
         C           -3.070089312561     1.757027556158     0.023320172918    12.000000000000
         C            2.400202687439     0.444421556158    -0.023292827082    12.000000000000
         C            3.820355687439    -0.078248443842     0.047252172918    12.000000000000
         H           -0.174122312561     1.823055556158     0.022093172918     1.007825032230
         H           -3.382083312561    -1.139576443842    -0.002513827082     1.007825032230
         H            1.754880687439    -1.503830443842     0.031863172918     1.007825032230
         H           -2.951215312561     2.400920556158    -0.853817827082     1.007825032230
         H           -4.090838312561     1.365050556158     0.020301172918     1.007825032230
         H           -2.950158312561     2.384522556158     0.912127172918     1.007825032230
         H            3.936125687439    -1.053800443842    -0.432512827082     1.007825032230
         H            4.125826687439    -0.166289443842     1.094251172918     1.007825032230
         H            4.413735187439     0.578846956158    -0.396010627082     1.007825032230

  Basis Set: AUG-CC-PVTZ
    Blend: AUG-CC-PVTZ
  Basis Set: (AUG-CC-PVTZ AUX)
    Blend: AUG-CC-PVTZ-JKFIT
	 Reference Energy          =    -797.3133076873843947 [Eh]
	 Singles Energy            =      -0.0000000000000000 [Eh]
	 Same-Spin Energy          =      -0.4855323711131627 [Eh]
	 Opposite-Spin Energy      =      -1.5012199022667680 [Eh]
	 Correlation Energy        =      -1.9867522733799308 [Eh]
	 Total Energy              =    -799.3000599607643153 [Eh]

	 ================> DF-SCS-MP2 Energies <==================
	-----------------------------------------------------------
	 SCS Same-Spin Scale       =       0.3333333333333333 [-]
	 SCS Opposite-Spin Scale   =       1.2000000000000000 [-]
	 SCS Same-Spin Energy      =      -0.1618441237043876 [Eh]
	 SCS Opposite-Spin Energy  =      -1.8014638827201215 [Eh]
	 SCS Correlation Energy    =      -1.9633080064245090 [Eh]
	 SCS Total Energy          =    -799.2766156938089352 [Eh]
	-----------------------------------------------------------

  Dipole Moment: [D]
     X:     0.4506      Y:    -2.5290      Z:     0.1753     Total:     2.5748

*** Psi4 exiting successfully. Buy a developer a beer!
