                               Psi4 1.4a3.dev225

  ==> Input File <==

--------------------------------------------------------------------------
#psi4
#
memory 32 gb

molecule  {
0 1
  S       -0.8547340    -1.8401315    -0.0164816
  O        2.1293390     1.6156530    -0.0602560
  N        1.4328010    -0.5712990    -0.0002240
  C       -2.0712570     0.6114660     0.0102110
  C        0.0482060    -0.3546190     0.0027700
  C       -0.6600310     0.8254930     0.0130800
  C       -2.4003070    -0.7218620    -0.0026000
  C       -3.0748160     1.7280810     0.0214760
  C        2.3954760     0.4154750    -0.0251370
  C        3.8156290    -0.1071950     0.0454080
  H       -0.1788490     1.7941090     0.0202490
  H       -3.3868100    -1.1685230    -0.0043580
  H        1.7501540    -1.5327770     0.0300190
  H       -2.9559420     2.3719740    -0.8556620
  H       -4.0955650     1.3361040     0.0184570
  H       -2.9548850     2.3555760     0.9102830
  H        3.9313990    -1.0827470    -0.4343570
  H        4.1211000    -0.1952360     1.0924070
  H        4.4689380     0.6162650    -0.4426230
units angstrom
no_reorient  #important for SAPT in psi4, default
symmetry c1  #important for SAPT in psi4, default
}

set PROPERTIES_ORIGIN ["COM"]
properties('MP2/aug-cc-pvtz', properties = ['dipole'])
--------------------------------------------------------------------------

    Molecular point group: c1
  Charge       = 0
  Multiplicity = 1
  Basis Set: AUG-CC-PVTZ
    Blend: AUG-CC-PVTZ
  Basis Set: (AUG-CC-PVTZ AUX)
    Blend: AUG-CC-PVTZ-JKFIT

    Orbital Energies [Eh]
    ---------------------

    Doubly Occupied:

       1A    -91.987195     2A    -20.532996     3A    -15.617434
       4A    -11.368251     5A    -11.316313     6A    -11.263609
       7A    -11.253682     8A    -11.248878     9A    -11.231330
      10A    -11.222810    11A     -8.985369    12A     -6.666534
      13A     -6.665486    14A     -6.664899    15A     -1.388657
      16A     -1.265839    17A     -1.144294    18A     -1.041894
      19A     -1.004735    20A     -0.960427    21A     -0.919512
      22A     -0.824801    23A     -0.788410    24A     -0.719550
      25A     -0.690691    26A     -0.671626    27A     -0.632383
      28A     -0.606423    29A     -0.590084    30A     -0.582490
      31A     -0.579721    32A     -0.559068    33A     -0.556105
      34A     -0.521906    35A     -0.517842    36A     -0.497009
      37A     -0.466157    38A     -0.434784    39A     -0.432580
      40A     -0.348593    41A     -0.295055

  @DF-RHF Final Energy:  -797.30358459725596

   => Energetics <=

    Nuclear Repulsion Energy =            580.8012066142653111
    One-Electron Energy =               -2246.0787345376406847
    Two-Electron Energy =                 867.9739433261194108
    Total Energy =                       -797.3035845972559628
  Basis Set: (AUG-CC-PVTZ AUX)
    Blend: AUG-CC-PVTZ-RI
    Molecular point group: c1

    Geometry (in Angstrom), charge = 0, multiplicity = 1:

       Center              X                  Y                   Z               Mass
    ------------   -----------------  -----------------  -----------------  -----------------
         S           -0.881400657907    -1.790476462187    -0.014067073602    31.972071174400
         O            2.102672342093     1.665308037813    -0.057841473602    15.994914619570
         N            1.406134342093    -0.521643962187     0.002190526398    14.003074004430
         C           -2.097923657907     0.661121037813     0.012625526398    12.000000000000
         C            0.021539342093    -0.304963962187     0.005184526398    12.000000000000
         C           -0.686697657907     0.875148037813     0.015494526398    12.000000000000
         C           -2.426973657907    -0.672206962187    -0.000185473602    12.000000000000
         C           -3.101482657907     1.777736037813     0.023890526398    12.000000000000
         C            2.368809342093     0.465130037813    -0.022722473602    12.000000000000
         C            3.788962342093    -0.057539962187     0.047822526398    12.000000000000
         H           -0.205515657907     1.843764037813     0.022663526398     1.007825032230
         H           -3.413476657907    -1.118867962187    -0.001943473602     1.007825032230
         H            1.723487342093    -1.483121962187     0.032433526398     1.007825032230
         H           -2.982608657907     2.421629037813    -0.853247473602     1.007825032230
         H           -4.122231657907     1.385759037813     0.020871526398     1.007825032230
         H           -2.981551657907     2.405231037813     0.912697526398     1.007825032230
         H            3.904732342093    -1.033091962187    -0.431942473602     1.007825032230
         H            4.094433342093    -0.145580962187     1.094821526398     1.007825032230
         H            4.442271342093     0.665920037813    -0.440208473602     1.007825032230

  Basis Set: AUG-CC-PVTZ
    Blend: AUG-CC-PVTZ
  Basis Set: (AUG-CC-PVTZ AUX)
    Blend: AUG-CC-PVTZ-JKFIT
	 Reference Energy          =    -797.3035845972559628 [Eh]
	 Singles Energy            =      -0.0000000000000000 [Eh]
	 Same-Spin Energy          =      -0.4841362742801154 [Eh]
	 Opposite-Spin Energy      =      -1.5034040669982827 [Eh]
	 Correlation Energy        =      -1.9875403412783981 [Eh]
	 Total Energy              =    -799.2911249385343808 [Eh]

	 ================> DF-SCS-MP2 Energies <==================
	-----------------------------------------------------------
	 SCS Same-Spin Scale       =       0.3333333333333333 [-]
	 SCS Opposite-Spin Scale   =       1.2000000000000000 [-]
	 SCS Same-Spin Energy      =      -0.1613787580933718 [Eh]
	 SCS Opposite-Spin Energy  =      -1.8040848803979390 [Eh]
	 SCS Correlation Energy    =      -1.9654636384913109 [Eh]
	 SCS Total Energy          =    -799.2690482357472774 [Eh]
	-----------------------------------------------------------

  Dipole Moment: [D]
     X:     0.3173      Y:    -2.2896      Z:     0.1796     Total:     2.3185

*** Psi4 exiting successfully. Buy a developer a beer!
