                               Psi4 1.4a3.dev225

  ==> Input File <==

--------------------------------------------------------------------------
#psi4
#
memory 32 gb

molecule  {
0 1
  S       -1.0050790    -1.7376190    -0.0151270
  O        2.1293390     1.6156530    -0.0602560
  N        1.4328010    -0.5712990    -0.0002240
  C       -2.0712570     0.6114660     0.0102110
  C        0.0482060    -0.3546190     0.0027700
  C       -0.6600310     0.8254930     0.0130800
  C       -2.4003070    -0.7218620    -0.0026000
  C       -3.0748160     1.7280810     0.0214760
  C        2.3954760     0.4154750    -0.0251370
  C        3.8156290    -0.1071950     0.0454080
  H       -0.1877468     1.7761978     0.0201164
  H       -3.3868100    -1.1685230    -0.0043580
  H        1.7501540    -1.5327770     0.0300190
  H       -2.9559420     2.3719740    -0.8556620
  H       -4.0955650     1.3361040     0.0184570
  H       -2.9548850     2.3555760     0.9102830
  H        3.9313990    -1.0827470    -0.4343570
  H        4.1211000    -0.1952360     1.0924070
  H        4.4689380     0.6162650    -0.4426230
units angstrom
no_reorient  #important for SAPT in psi4, default
symmetry c1  #important for SAPT in psi4, default
}

set PROPERTIES_ORIGIN ["COM"]
properties('MP2/aug-cc-pvtz', properties = ['dipole'])
--------------------------------------------------------------------------

    Molecular point group: c1
  Charge       = 0
  Multiplicity = 1
  Basis Set: AUG-CC-PVTZ
    Blend: AUG-CC-PVTZ
  Basis Set: (AUG-CC-PVTZ AUX)
    Blend: AUG-CC-PVTZ-JKFIT

    Orbital Energies [Eh]
    ---------------------

    Doubly Occupied:

       1A    -91.984365     2A    -20.533022     3A    -15.619244
       4A    -11.369307     5A    -11.311696     6A    -11.249472
       7A    -11.249230     8A    -11.244871     9A    -11.226037
      10A    -11.219979    11A     -8.984850    12A     -6.666014
      13A     -6.665461    14A     -6.664572    15A     -1.388792
      16A     -1.264987    17A     -1.159665    18A     -1.038163
      19A     -1.012260    20A     -0.972641    21A     -0.912811
      22A     -0.825851    23A     -0.785402    24A     -0.729489
      25A     -0.688419    26A     -0.674788    27A     -0.632904
      28A     -0.610400    29A     -0.593082    30A     -0.580899
      31A     -0.578185    32A     -0.561255    33A     -0.558229
      34A     -0.524350    35A     -0.516155    36A     -0.503113
      37A     -0.473082    38A     -0.442492    39A     -0.434043
      40A     -0.340329    41A     -0.295571

  @DF-RHF Final Energy:  -797.31964807405711

   => Energetics <=

    Nuclear Repulsion Energy =            584.9312782405996813
    One-Electron Energy =               -2254.3309002910173149
    Two-Electron Energy =                 872.0799739763606340
    Total Energy =                       -797.3196480740571133
  Basis Set: (AUG-CC-PVTZ AUX)
    Blend: AUG-CC-PVTZ-RI
    Molecular point group: c1

    Geometry (in Angstrom), charge = 0, multiplicity = 1:

       Center              X                  Y                   Z               Mass
    ------------   -----------------  -----------------  -----------------  -----------------
         S           -1.000684038979    -1.708987410280    -0.012990953961    31.972071174400
         O            2.133733961021     1.644284589720    -0.058119953961    15.994914619570
         N            1.437195961021    -0.542667410280     0.001912046039    14.003074004430
         C           -2.066862038979     0.640097589720     0.012347046039    12.000000000000
         C            0.052600961021    -0.325987410280     0.004906046039    12.000000000000
         C           -0.655636038979     0.854124589720     0.015216046039    12.000000000000
         C           -2.395912038979    -0.693230410280    -0.000463953961    12.000000000000
         C           -3.070421038979     1.756712589720     0.023612046039    12.000000000000
         C            2.399870961021     0.444106589720    -0.023000953961    12.000000000000
         C            3.820023961021    -0.078563410280     0.047544046039    12.000000000000
         H           -0.183351838979     1.804829389720     0.022252446039     1.007825032230
         H           -3.382415038979    -1.139891410280    -0.002221953961     1.007825032230
         H            1.754548961021    -1.504145410280     0.032155046039     1.007825032230
         H           -2.951547038979     2.400605589720    -0.853525953961     1.007825032230
         H           -4.091170038979     1.364735589720     0.020593046039     1.007825032230
         H           -2.950490038979     2.384207589720     0.912419046039     1.007825032230
         H            3.935793961021    -1.054115410280    -0.432220953961     1.007825032230
         H            4.125494961021    -0.166604410280     1.094543046039     1.007825032230
         H            4.473332961021     0.644896589720    -0.440486953961     1.007825032230

  Basis Set: AUG-CC-PVTZ
    Blend: AUG-CC-PVTZ
  Basis Set: (AUG-CC-PVTZ AUX)
    Blend: AUG-CC-PVTZ-JKFIT
	 Reference Energy          =    -797.3196480740571133 [Eh]
	 Singles Energy            =      -0.0000000000000000 [Eh]
	 Same-Spin Energy          =      -0.4854517787782116 [Eh]
	 Opposite-Spin Energy      =      -1.5015506795891069 [Eh]
	 Correlation Energy        =      -1.9870024583673185 [Eh]
	 Total Energy              =    -799.3066505324244417 [Eh]

	 ================> DF-SCS-MP2 Energies <==================
	-----------------------------------------------------------
	 SCS Same-Spin Scale       =       0.3333333333333333 [-]
	 SCS Opposite-Spin Scale   =       1.2000000000000000 [-]
	 SCS Same-Spin Energy      =      -0.1618172595927372 [Eh]
	 SCS Opposite-Spin Energy  =      -1.8018608155069282 [Eh]
	 SCS Correlation Energy    =      -1.9636780750996654 [Eh]
	 SCS Total Energy          =    -799.2833261491567782 [Eh]
	-----------------------------------------------------------

  Dipole Moment: [D]
     X:     0.4253      Y:    -2.5316      Z:     0.1779     Total:     2.5732

*** Psi4 exiting successfully. Buy a developer a beer!
