                               Psi4 1.4a3.dev225

  ==> Input File <==

--------------------------------------------------------------------------
#psi4
#
memory 32 gb

molecule  {
0 1
  S       -1.0050790    -1.7376190    -0.0151270
  O        2.1293390     1.6156530    -0.0602560
  N        1.4328010    -0.5712990    -0.0002240
  C       -2.0712570     0.6114660     0.0102110
  C        0.0482060    -0.3546190     0.0027700
  C       -0.6600310     0.8254930     0.0130800
  C       -2.4003070    -0.7218620    -0.0026000
  C       -3.0748160     1.7280810     0.0214760
  C        2.3954760     0.4154750    -0.0251370
  C        3.8156290    -0.1071950     0.0454080
  H       -0.1788490     1.7941090     0.0202490
  H       -3.3868100    -1.1685230    -0.0043580
  H        1.7501540    -1.5327770     0.0300190
  H       -2.8482995     2.3896388    -0.8206237
  H       -4.0955650     1.3361040     0.0184570
  H       -2.9548850     2.3555760     0.9102830
  H        3.9313990    -1.0827470    -0.4343570
  H        4.1211000    -0.1952360     1.0924070
  H        4.4689380     0.6162650    -0.4426230
units angstrom
no_reorient  #important for SAPT in psi4, default
symmetry c1  #important for SAPT in psi4, default
}

set PROPERTIES_ORIGIN ["COM"]
properties('MP2/aug-cc-pvtz', properties = ['dipole'])
--------------------------------------------------------------------------

    Molecular point group: c1
  Charge       = 0
  Multiplicity = 1
  Basis Set: AUG-CC-PVTZ
    Blend: AUG-CC-PVTZ
  Basis Set: (AUG-CC-PVTZ AUX)
    Blend: AUG-CC-PVTZ-JKFIT

    Orbital Energies [Eh]
    ---------------------

    Doubly Occupied:

       1A    -91.984030     2A    -20.533073     3A    -15.619287
       4A    -11.369397     5A    -11.311842     6A    -11.249519
       7A    -11.248544     8A    -11.244572     9A    -11.226445
      10A    -11.221993    11A     -8.984517    12A     -6.665683
      13A     -6.665128    14A     -6.664236    15A     -1.388885
      16A     -1.265006    17A     -1.159545    18A     -1.038514
      19A     -1.012495    20A     -0.971698    21A     -0.912630
      22A     -0.825733    23A     -0.785239    24A     -0.727312
      25A     -0.687752    26A     -0.673789    27A     -0.632951
      28A     -0.610336    29A     -0.594298    30A     -0.581994
      31A     -0.576829    32A     -0.560060    33A     -0.556914
      34A     -0.526420    35A     -0.516487    36A     -0.502217
      37A     -0.472516    38A     -0.442178    39A     -0.433733
      40A     -0.339617    41A     -0.295360

  @DF-RHF Final Energy:  -797.31835699067710

   => Energetics <=

    Nuclear Repulsion Energy =            584.9717609081513956
    One-Electron Energy =               -2254.4226846116466731
    Two-Electron Energy =                 872.1325667128182886
    Total Energy =                       -797.3183569906771027
  Basis Set: (AUG-CC-PVTZ AUX)
    Blend: AUG-CC-PVTZ-RI
    Molecular point group: c1

    Geometry (in Angstrom), charge = 0, multiplicity = 1:

       Center              X                  Y                   Z               Mass
    ------------   -----------------  -----------------  -----------------  -----------------
         S           -1.001441597442    -1.709218668479    -0.013219578849    31.972071174400
         O            2.132976402558     1.644053331521    -0.058348578849    15.994914619570
         N            1.436438402558    -0.542898668479     0.001683421151    14.003074004430
         C           -2.067619597442     0.639866331521     0.012118421151    12.000000000000
         C            0.051843402558    -0.326218668479     0.004677421151    12.000000000000
         C           -0.656393597442     0.853893331521     0.014987421151    12.000000000000
         C           -2.396669597442    -0.693461668479    -0.000692578849    12.000000000000
         C           -3.071178597442     1.756481331521     0.023383421151    12.000000000000
         C            2.399113402558     0.443875331521    -0.023229578849    12.000000000000
         C            3.819266402558    -0.078794668479     0.047315421151    12.000000000000
         H           -0.175211597442     1.822509331521     0.022156421151     1.007825032230
         H           -3.383172597442    -1.140122668479    -0.002450578849     1.007825032230
         H            1.753791402558    -1.504376668479     0.031926421151     1.007825032230
         H           -2.844662097442     2.418039131521    -0.818716278849     1.007825032230
         H           -4.091927597442     1.364504331521     0.020364421151     1.007825032230
         H           -2.951247597442     2.383976331521     0.912190421151     1.007825032230
         H            3.935036402558    -1.054346668479    -0.432449578849     1.007825032230
         H            4.124737402558    -0.166835668479     1.094314421151     1.007825032230
         H            4.472575402558     0.644665331521    -0.440715578849     1.007825032230

  Basis Set: AUG-CC-PVTZ
    Blend: AUG-CC-PVTZ
  Basis Set: (AUG-CC-PVTZ AUX)
    Blend: AUG-CC-PVTZ-JKFIT
	 Reference Energy          =    -797.3183569906771027 [Eh]
	 Singles Energy            =      -0.0000000000000000 [Eh]
	 Same-Spin Energy          =      -0.4855840607125861 [Eh]
	 Opposite-Spin Energy      =      -1.5017667971645892 [Eh]
	 Correlation Energy        =      -1.9873508578771752 [Eh]
	 Total Energy              =    -799.3057078485543343 [Eh]

	 ================> DF-SCS-MP2 Energies <==================
	-----------------------------------------------------------
	 SCS Same-Spin Scale       =       0.3333333333333333 [-]
	 SCS Opposite-Spin Scale   =       1.2000000000000000 [-]
	 SCS Same-Spin Energy      =      -0.1618613535708620 [Eh]
	 SCS Opposite-Spin Energy  =      -1.8021201565975069 [Eh]
	 SCS Correlation Energy    =      -1.9639815101683689 [Eh]
	 SCS Total Energy          =    -799.2823385008455261 [Eh]
	-----------------------------------------------------------

  Dipole Moment: [D]
     X:     0.4453      Y:    -2.5040      Z:     0.2023     Total:     2.5513

*** Psi4 exiting successfully. Buy a developer a beer!
