                               Psi4 1.4a3.dev225

  ==> Input File <==

--------------------------------------------------------------------------
#psi4
#
memory 32 gb

molecule  {
0 1
  S       -1.0050790    -1.7376190    -0.0151270
  O        2.1293390     1.6156530    -0.0602560
  N        1.4328010    -0.5712990    -0.0002240
  C       -2.0712570     0.6114660     0.0102110
  C        0.0482060    -0.3546190     0.0027700
  C       -0.6600310     0.8254930     0.0130800
  C       -2.3064929    -0.7415660    -0.0028307
  C       -3.0748160     1.7280810     0.0214760
  C        2.3954760     0.4154750    -0.0251370
  C        3.8156290    -0.1071950     0.0454080
  H       -0.1788490     1.7941090     0.0202490
  H       -3.3868100    -1.1685230    -0.0043580
  H        1.7501540    -1.5327770     0.0300190
  H       -2.9559420     2.3719740    -0.8556620
  H       -4.0955650     1.3361040     0.0184570
  H       -2.9548850     2.3555760     0.9102830
  H        3.9313990    -1.0827470    -0.4343570
  H        4.1211000    -0.1952360     1.0924070
  H        4.4689380     0.6162650    -0.4426230
units angstrom
no_reorient  #important for SAPT in psi4, default
symmetry c1  #important for SAPT in psi4, default
}

set PROPERTIES_ORIGIN ["COM"]
properties('MP2/aug-cc-pvtz', properties = ['dipole'])
--------------------------------------------------------------------------

    Molecular point group: c1
  Charge       = 0
  Multiplicity = 1
  Basis Set: AUG-CC-PVTZ
    Blend: AUG-CC-PVTZ
  Basis Set: (AUG-CC-PVTZ AUX)
    Blend: AUG-CC-PVTZ-JKFIT

    Orbital Energies [Eh]
    ---------------------

    Doubly Occupied:

       1A    -91.986705     2A    -20.530760     3A    -15.616648
       4A    -11.367148     5A    -11.306634     6A    -11.249020
       7A    -11.248143     8A    -11.241100     9A    -11.227384
      10A    -11.221336    11A     -8.988989    12A     -6.670232
      13A     -6.669613    14A     -6.668573    15A     -1.386714
      16A     -1.263500    17A     -1.169923    18A     -1.036910
      19A     -1.018880    20A     -0.972078    21A     -0.912625
      22A     -0.824440    23A     -0.778172    24A     -0.725014
      25A     -0.686398    26A     -0.670450    27A     -0.631486
      28A     -0.611539    29A     -0.592407    30A     -0.582113
      31A     -0.572168    32A     -0.557889    33A     -0.550113
      34A     -0.528627    35A     -0.507778    36A     -0.505382
      37A     -0.486796    38A     -0.444632    39A     -0.431845
      40A     -0.341953    41A     -0.291152

  @DF-RHF Final Energy:  -797.30775523460807

   => Energetics <=

    Nuclear Repulsion Energy =            586.8809911935464925
    One-Electron Energy =               -2258.2309575665249213
    Two-Electron Energy =                 874.0422111383704760
    Total Energy =                       -797.3077552346080665
  Basis Set: (AUG-CC-PVTZ AUX)
    Blend: AUG-CC-PVTZ-RI
    Molecular point group: c1

    Geometry (in Angstrom), charge = 0, multiplicity = 1:

       Center              X                  Y                   Z               Mass
    ------------   -----------------  -----------------  -----------------  -----------------
         S           -1.008003008762    -1.707578767601    -0.012973959933    31.972071174400
         O            2.126414991238     1.645693232399    -0.058102959933    15.994914619570
         N            1.429876991238    -0.541258767601     0.001929040067    14.003074004430
         C           -2.074181008762     0.641506232399     0.012364040067    12.000000000000
         C            0.045281991238    -0.324578767601     0.004923040067    12.000000000000
         C           -0.662955008762     0.855533232399     0.015233040067    12.000000000000
         C           -2.309416908762    -0.711525767601    -0.000677659933    12.000000000000
         C           -3.077740008762     1.758121232399     0.023629040067    12.000000000000
         C            2.392551991238     0.445515232399    -0.022983959933    12.000000000000
         C            3.812704991238    -0.077154767601     0.047561040067    12.000000000000
         H           -0.181773008762     1.824149232399     0.022402040067     1.007825032230
         H           -3.389734008762    -1.138482767601    -0.002204959933     1.007825032230
         H            1.747229991238    -1.502736767601     0.032172040067     1.007825032230
         H           -2.958866008762     2.402014232399    -0.853508959933     1.007825032230
         H           -4.098489008762     1.366144232399     0.020610040067     1.007825032230
         H           -2.957809008762     2.385616232399     0.912436040067     1.007825032230
         H            3.928474991238    -1.052706767601    -0.432203959933     1.007825032230
         H            4.118175991238    -0.165195767601     1.094560040067     1.007825032230
         H            4.466013991238     0.646305232399    -0.440469959933     1.007825032230

  Basis Set: AUG-CC-PVTZ
    Blend: AUG-CC-PVTZ
  Basis Set: (AUG-CC-PVTZ AUX)
    Blend: AUG-CC-PVTZ-JKFIT
	 Reference Energy          =    -797.3077552346080665 [Eh]
	 Singles Energy            =      -0.0000000000000000 [Eh]
	 Same-Spin Energy          =      -0.4869910483310715 [Eh]
	 Opposite-Spin Energy      =      -1.5029233352222717 [Eh]
	 Correlation Energy        =      -1.9899143835533433 [Eh]
	 Total Energy              =    -799.2976696181614216 [Eh]

	 ================> DF-SCS-MP2 Energies <==================
	-----------------------------------------------------------
	 SCS Same-Spin Scale       =       0.3333333333333333 [-]
	 SCS Opposite-Spin Scale   =       1.2000000000000000 [-]
	 SCS Same-Spin Energy      =      -0.1623303494436905 [Eh]
	 SCS Opposite-Spin Energy  =      -1.8035080022667260 [Eh]
	 SCS Correlation Energy    =      -1.9658383517104165 [Eh]
	 SCS Total Energy          =    -799.2735935863184977 [Eh]
	-----------------------------------------------------------

  Dipole Moment: [D]
     X:     0.3652      Y:    -2.6635      Z:     0.1760     Total:     2.6942

*** Psi4 exiting successfully. Buy a developer a beer!
