                               Psi4 1.4a3.dev225

  ==> Input File <==

--------------------------------------------------------------------------
#psi4
#
memory 32 gb

molecule  {
0 1
  S       -1.0050790    -1.7376190    -0.0151270
  O        2.1293390     1.6156530    -0.0602560
  N        1.4328010    -0.5712990    -0.0002240
  C       -2.0712570     0.6114660     0.0102110
  C        0.0482060    -0.3546190     0.0027700
  C       -0.6600310     0.8254930     0.0130800
  C       -2.3598857    -0.7512896    -0.0029629
  C       -3.0748160     1.7280810     0.0214760
  C        2.3954760     0.4154750    -0.0251370
  C        3.8156290    -0.1071950     0.0454080
  H       -0.1788490     1.7941090     0.0202490
  H       -3.3868100    -1.1685230    -0.0043580
  H        1.7501540    -1.5327770     0.0300190
  H       -2.9559420     2.3719740    -0.8556620
  H       -4.0955650     1.3361040     0.0184570
  H       -2.9548850     2.3555760     0.9102830
  H        3.9313990    -1.0827470    -0.4343570
  H        4.1211000    -0.1952360     1.0924070
  H        4.4689380     0.6162650    -0.4426230
units angstrom
no_reorient  #important for SAPT in psi4, default
symmetry c1  #important for SAPT in psi4, default
}

set PROPERTIES_ORIGIN ["COM"]
properties('MP2/aug-cc-pvtz', properties = ['dipole'])
--------------------------------------------------------------------------

    Molecular point group: c1
  Charge       = 0
  Multiplicity = 1
  Basis Set: AUG-CC-PVTZ
    Blend: AUG-CC-PVTZ
  Basis Set: (AUG-CC-PVTZ AUX)
    Blend: AUG-CC-PVTZ-JKFIT

    Orbital Energies [Eh]
    ---------------------

    Doubly Occupied:

       1A    -91.986378     2A    -20.531969     3A    -15.618173
       4A    -11.368409     5A    -11.309412     6A    -11.249410
       7A    -11.248911     8A    -11.245325     9A    -11.226593
      10A    -11.222024    11A     -8.987670    12A     -6.668845
      13A     -6.668353    14A     -6.667363    15A     -1.387898
      16A     -1.264316    17A     -1.162781    18A     -1.036551
      19A     -1.016066    20A     -0.972735    21A     -0.911184
      22A     -0.824064    23A     -0.782374    24A     -0.726331
      25A     -0.687548    26A     -0.672438    27A     -0.632314
      28A     -0.610888    29A     -0.592904    30A     -0.580876
      31A     -0.574368    32A     -0.558423    33A     -0.556242
      34A     -0.526182    35A     -0.513109    36A     -0.505059
      37A     -0.479511    38A     -0.443360    39A     -0.432923
      40A     -0.340795    41A     -0.291362

  @DF-RHF Final Energy:  -797.31541432631980

   => Energetics <=

    Nuclear Repulsion Energy =            585.5804583039285944
    One-Electron Energy =               -2255.6288750253916078
    Two-Electron Energy =                 872.7330023951433304
    Total Energy =                       -797.3154143263197966
  Basis Set: (AUG-CC-PVTZ AUX)
    Blend: AUG-CC-PVTZ-RI
    Molecular point group: c1

    Geometry (in Angstrom), charge = 0, multiplicity = 1:

       Center              X                  Y                   Z               Mass
    ------------   -----------------  -----------------  -----------------  -----------------
         S           -1.003870452033    -1.706826169337    -0.012963727767    31.972071174400
         O            2.130547547967     1.646445830663    -0.058092727767    15.994914619570
         N            1.434009547967    -0.540506169337     0.001939272233    14.003074004430
         C           -2.070048452033     0.642258830663     0.012374272233    12.000000000000
         C            0.049414547967    -0.323826169337     0.004933272233    12.000000000000
         C           -0.658822452033     0.856285830663     0.015243272233    12.000000000000
         C           -2.358677152033    -0.720496769337    -0.000799627767    12.000000000000
         C           -3.073607452033     1.758873830663     0.023639272233    12.000000000000
         C            2.396684547967     0.446267830663    -0.022973727767    12.000000000000
         C            3.816837547967    -0.076402169337     0.047571272233    12.000000000000
         H           -0.177640452033     1.824901830663     0.022412272233     1.007825032230
         H           -3.385601452033    -1.137730169337    -0.002194727767     1.007825032230
         H            1.751362547967    -1.501984169337     0.032182272233     1.007825032230
         H           -2.954733452033     2.402766830663    -0.853498727767     1.007825032230
         H           -4.094356452033     1.366896830663     0.020620272233     1.007825032230
         H           -2.953676452033     2.386368830663     0.912446272233     1.007825032230
         H            3.932607547967    -1.051954169337    -0.432193727767     1.007825032230
         H            4.122308547967    -0.164443169337     1.094570272233     1.007825032230
         H            4.470146547967     0.647057830663    -0.440459727767     1.007825032230

  Basis Set: AUG-CC-PVTZ
    Blend: AUG-CC-PVTZ
  Basis Set: (AUG-CC-PVTZ AUX)
    Blend: AUG-CC-PVTZ-JKFIT
	 Reference Energy          =    -797.3154143263197966 [Eh]
	 Singles Energy            =      -0.0000000000000000 [Eh]
	 Same-Spin Energy          =      -0.4865634399030575 [Eh]
	 Opposite-Spin Energy      =      -1.5025817694328854 [Eh]
	 Correlation Energy        =      -1.9891452093359430 [Eh]
	 Total Energy              =    -799.3045595356556987 [Eh]

	 ================> DF-SCS-MP2 Energies <==================
	-----------------------------------------------------------
	 SCS Same-Spin Scale       =       0.3333333333333333 [-]
	 SCS Opposite-Spin Scale   =       1.2000000000000000 [-]
	 SCS Same-Spin Energy      =      -0.1621878133010192 [Eh]
	 SCS Opposite-Spin Energy  =      -1.8030981233194623 [Eh]
	 SCS Correlation Energy    =      -1.9652859366204813 [Eh]
	 SCS Total Energy          =    -799.2807002629402859 [Eh]
	-----------------------------------------------------------

  Dipole Moment: [D]
     X:     0.4053      Y:    -2.6026      Z:     0.1770     Total:     2.6399

*** Psi4 exiting successfully. Buy a developer a beer!
