                               Psi4 1.4a3.dev225

  ==> Input File <==

--------------------------------------------------------------------------
#psi4
#
memory 32 gb

molecule  {
0 1
  S       -1.0050790    -1.7376190    -0.0151270
  O        2.1293390     1.6156530    -0.0602560
  N        1.4328010    -0.5712990    -0.0002240
  C       -2.0712570     0.6114660     0.0102110
  C        0.0482060    -0.3546190     0.0027700
  C       -0.6600310     0.8254930     0.0130800
  C       -2.4003070    -0.7218620    -0.0026000
  C       -3.0748160     1.7280810     0.0214760
  C        2.3521958     0.6106524    -0.0308482
  C        3.8156290    -0.1071950     0.0454080
  H       -0.1788490     1.7941090     0.0202490
  H       -3.3868100    -1.1685230    -0.0043580
  H        1.7501540    -1.5327770     0.0300190
  H       -2.9559420     2.3719740    -0.8556620
  H       -4.0955650     1.3361040     0.0184570
  H       -2.9548850     2.3555760     0.9102830
  H        3.9313990    -1.0827470    -0.4343570
  H        4.1211000    -0.1952360     1.0924070
  H        4.4689380     0.6162650    -0.4426230
units angstrom
no_reorient  #important for SAPT in psi4, default
symmetry c1  #important for SAPT in psi4, default
}

set PROPERTIES_ORIGIN ["COM"]
properties('MP2/aug-cc-pvtz', properties = ['dipole'])
--------------------------------------------------------------------------

    Molecular point group: c1
  Charge       = 0
  Multiplicity = 1
  Basis Set: AUG-CC-PVTZ
    Blend: AUG-CC-PVTZ
  Basis Set: (AUG-CC-PVTZ AUX)
    Blend: AUG-CC-PVTZ-JKFIT

    Orbital Energies [Eh]
    ---------------------

    Doubly Occupied:

       1A    -91.974460     2A    -20.577150     3A    -15.590970
       4A    -11.366709     5A    -11.303881     6A    -11.242144
       7A    -11.240242     8A    -11.238581     9A    -11.222725
      10A    -11.212828    11A     -8.975231    12A     -6.656405
      13A     -6.655812    14A     -6.654941    15A     -1.557141
      16A     -1.240467    17A     -1.145460    18A     -1.020306
      19A     -0.992601    20A     -0.961503    21A     -0.900069
      22A     -0.803071    23A     -0.772679    24A     -0.750873
      25A     -0.703783    26A     -0.688050    27A     -0.676346
      28A     -0.657397    29A     -0.593531    30A     -0.576190
      31A     -0.570186    32A     -0.563931    33A     -0.554249
      34A     -0.531910    35A     -0.522444    36A     -0.511049
      37A     -0.466080    38A     -0.445566    39A     -0.415566
      40A     -0.335114    41A     -0.282870

  @DF-RHF Final Energy:  -797.24437822557297

   => Energetics <=

    Nuclear Repulsion Energy =            586.3358441919800725
    One-Electron Energy =               -2256.8594187505841546
    Two-Electron Energy =                 873.2791963330312228
    Total Energy =                       -797.2443782255729730
  Basis Set: (AUG-CC-PVTZ AUX)
    Blend: AUG-CC-PVTZ-RI
    Molecular point group: c1

    Geometry (in Angstrom), charge = 0, multiplicity = 1:

       Center              X                  Y                   Z               Mass
    ------------   -----------------  -----------------  -----------------  -----------------
         S           -0.997392028030    -1.724210402871    -0.012549773954    31.972071174400
         O            2.137025971970     1.629061597129    -0.057678773954    15.994914619570
         N            1.440487971970    -0.557890402871     0.002353226046    14.003074004430
         C           -2.063570028030     0.624874597129     0.012788226046    12.000000000000
         C            0.055892971970    -0.341210402871     0.005347226046    12.000000000000
         C           -0.652344028030     0.838901597129     0.015657226046    12.000000000000
         C           -2.392620028030    -0.708453402871    -0.000022773954    12.000000000000
         C           -3.067129028030     1.741489597129     0.024053226046    12.000000000000
         C            2.359882771970     0.624060997129    -0.028270973954    12.000000000000
         C            3.823315971970    -0.093786402871     0.047985226046    12.000000000000
         H           -0.171162028030     1.807517597129     0.022826226046     1.007825032230
         H           -3.379123028030    -1.155114402871    -0.001780773954     1.007825032230
         H            1.757840971970    -1.519368402871     0.032596226046     1.007825032230
         H           -2.948255028030     2.385382597129    -0.853084773954     1.007825032230
         H           -4.087878028030     1.349512597129     0.021034226046     1.007825032230
         H           -2.947198028030     2.368984597129     0.912860226046     1.007825032230
         H            3.939085971970    -1.069338402871    -0.431779773954     1.007825032230
         H            4.128786971970    -0.181827402871     1.094984226046     1.007825032230
         H            4.476624971970     0.629673597129    -0.440045773954     1.007825032230

  Basis Set: AUG-CC-PVTZ
    Blend: AUG-CC-PVTZ
  Basis Set: (AUG-CC-PVTZ AUX)
    Blend: AUG-CC-PVTZ-JKFIT
	 Reference Energy          =    -797.2443782255729730 [Eh]
	 Singles Energy            =      -0.0000000000000000 [Eh]
	 Same-Spin Energy          =      -0.4816164161615150 [Eh]
	 Opposite-Spin Energy      =      -1.4940968791527098 [Eh]
	 Correlation Energy        =      -1.9757132953142249 [Eh]
	 Total Energy              =    -799.2200915208871947 [Eh]

	 ================> DF-SCS-MP2 Energies <==================
	-----------------------------------------------------------
	 SCS Same-Spin Scale       =       0.3333333333333333 [-]
	 SCS Opposite-Spin Scale   =       1.2000000000000000 [-]
	 SCS Same-Spin Energy      =      -0.1605388053871716 [Eh]
	 SCS Opposite-Spin Energy  =      -1.7929162549832518 [Eh]
	 SCS Correlation Energy    =      -1.9534550603704235 [Eh]
	 SCS Total Energy          =    -799.1978332859433749 [Eh]
	-----------------------------------------------------------

  Dipole Moment: [D]
     X:     1.1607      Y:    -1.0111      Z:     0.1091     Total:     1.5432

*** Psi4 exiting successfully. Buy a developer a beer!
