                               Psi4 1.4a3.dev225

  ==> Input File <==

--------------------------------------------------------------------------
#psi4
#
memory 32 gb

molecule  {
0 1
  S       -1.0050790    -1.7376190    -0.0151270
  O        2.1293390     1.6156530    -0.0602560
  N        1.4328010    -0.5712990    -0.0002240
  C       -2.0712570     0.6114660     0.0102110
  C       -0.0505913    -0.3391579     0.0029836
  C       -0.6600310     0.8254930     0.0130800
  C       -2.4003070    -0.7218620    -0.0026000
  C       -3.0748160     1.7280810     0.0214760
  C        2.3954760     0.4154750    -0.0251370
  C        3.8156290    -0.1071950     0.0454080
  H       -0.1788490     1.7941090     0.0202490
  H       -3.3868100    -1.1685230    -0.0043580
  H        1.7501540    -1.5327770     0.0300190
  H       -2.9559420     2.3719740    -0.8556620
  H       -4.0955650     1.3361040     0.0184570
  H       -2.9548850     2.3555760     0.9102830
  H        3.9313990    -1.0827470    -0.4343570
  H        4.1211000    -0.1952360     1.0924070
  H        4.4689380     0.6162650    -0.4426230
units angstrom
no_reorient  #important for SAPT in psi4, default
symmetry c1  #important for SAPT in psi4, default
}

set PROPERTIES_ORIGIN ["COM"]
properties('MP2/aug-cc-pvtz', properties = ['dipole'])
--------------------------------------------------------------------------

    Molecular point group: c1
  Charge       = 0
  Multiplicity = 1
  Basis Set: AUG-CC-PVTZ
    Blend: AUG-CC-PVTZ
  Basis Set: (AUG-CC-PVTZ AUX)
    Blend: AUG-CC-PVTZ-JKFIT

    Orbital Energies [Eh]
    ---------------------

    Doubly Occupied:

       1A    -91.986672     2A    -20.525351     3A    -15.610406
       4A    -11.363030     5A    -11.306429     6A    -11.251989
       7A    -11.247282     8A    -11.244869     9A    -11.227670
      10A    -11.219155    11A     -8.988283    12A     -6.669533
      13A     -6.668800    14A     -6.667869    15A     -1.379978
      16A     -1.242068    17A     -1.172222    18A     -1.036831
      19A     -1.011933    20A     -0.983987    21A     -0.913381
      22A     -0.808583    23A     -0.773633    24A     -0.730952
      25A     -0.687971    26A     -0.669659    27A     -0.624488
      28A     -0.608806    29A     -0.584255    30A     -0.583482
      31A     -0.577982    32A     -0.554466    33A     -0.551435
      34A     -0.533183    35A     -0.517339    36A     -0.507727
      37A     -0.483174    38A     -0.432059    39A     -0.427617
      40A     -0.347451    41A     -0.308054

  @DF-RHF Final Energy:  -797.30960299627066

   => Energetics <=

    Nuclear Repulsion Energy =            585.3808675977809344
    One-Electron Energy =               -2255.3208320667849875
    Two-Electron Energy =                 872.6303614727333979
    Total Energy =                       -797.3096029962706552
  Basis Set: (AUG-CC-PVTZ AUX)
    Blend: AUG-CC-PVTZ-RI
    Molecular point group: c1

    Geometry (in Angstrom), charge = 0, multiplicity = 1:

       Center              X                  Y                   Z               Mass
    ------------   -----------------  -----------------  -----------------  -----------------
         S           -0.993095052310    -1.710300516051    -0.013008348370    31.972071174400
         O            2.141322947690     1.642971483949    -0.058137348370    15.994914619570
         N            1.444784947690    -0.543980516051     0.001894651630    14.003074004430
         C           -2.059273052310     0.638784483949     0.012329651630    12.000000000000
         C           -0.038607352310    -0.311839416051     0.005102251630    12.000000000000
         C           -0.648047052310     0.852811483949     0.015198651630    12.000000000000
         C           -2.388323052310    -0.694543516051    -0.000481348370    12.000000000000
         C           -3.062832052310     1.755399483949     0.023594651630    12.000000000000
         C            2.407459947690     0.442793483949    -0.023018348370    12.000000000000
         C            3.827612947690    -0.079876516051     0.047526651630    12.000000000000
         H           -0.166865052310     1.821427483949     0.022367651630     1.007825032230
         H           -3.374826052310    -1.141204516051    -0.002239348370     1.007825032230
         H            1.762137947690    -1.505458516051     0.032137651630     1.007825032230
         H           -2.943958052310     2.399292483949    -0.853543348370     1.007825032230
         H           -4.083581052310     1.363422483949     0.020575651630     1.007825032230
         H           -2.942901052310     2.382894483949     0.912401651630     1.007825032230
         H            3.943382947690    -1.055428516051    -0.432238348370     1.007825032230
         H            4.133083947690    -0.167917516051     1.094525651630     1.007825032230
         H            4.480921947690     0.643583483949    -0.440504348370     1.007825032230

  Basis Set: AUG-CC-PVTZ
    Blend: AUG-CC-PVTZ
  Basis Set: (AUG-CC-PVTZ AUX)
    Blend: AUG-CC-PVTZ-JKFIT
	 Reference Energy          =    -797.3096029962706552 [Eh]
	 Singles Energy            =      -0.0000000000000000 [Eh]
	 Same-Spin Energy          =      -0.4845296673239741 [Eh]
	 Opposite-Spin Energy      =      -1.5008799648538687 [Eh]
	 Correlation Energy        =      -1.9854096321778427 [Eh]
	 Total Energy              =    -799.2950126284484895 [Eh]

	 ================> DF-SCS-MP2 Energies <==================
	-----------------------------------------------------------
	 SCS Same-Spin Scale       =       0.3333333333333333 [-]
	 SCS Opposite-Spin Scale   =       1.2000000000000000 [-]
	 SCS Same-Spin Energy      =      -0.1615098891079914 [Eh]
	 SCS Opposite-Spin Energy  =      -1.8010559578246423 [Eh]
	 SCS Correlation Energy    =      -1.9625658469326337 [Eh]
	 SCS Total Energy          =    -799.2721688432033034 [Eh]
	-----------------------------------------------------------

  Dipole Moment: [D]
     X:    -0.0588      Y:    -2.5890      Z:     0.1788     Total:     2.5958

*** Psi4 exiting successfully. Buy a developer a beer!
