                               Psi4 1.4a3.dev225

  ==> Input File <==

--------------------------------------------------------------------------
#psi4
#
memory 32 gb

molecule  {
0 1
  S       -1.0050790    -1.7376190    -0.0151270
  O        2.1293390     1.6156530    -0.0602560
  N        1.4328010    -0.5712990    -0.0002240
  C       -2.0712570     0.6114660     0.0102110
  C        0.1470033    -0.3700801     0.0025564
  C       -0.6600310     0.8254930     0.0130800
  C       -2.4003070    -0.7218620    -0.0026000
  C       -3.0748160     1.7280810     0.0214760
  C        2.3954760     0.4154750    -0.0251370
  C        3.8156290    -0.1071950     0.0454080
  H       -0.1788490     1.7941090     0.0202490
  H       -3.3868100    -1.1685230    -0.0043580
  H        1.7501540    -1.5327770     0.0300190
  H       -2.9559420     2.3719740    -0.8556620
  H       -4.0955650     1.3361040     0.0184570
  H       -2.9548850     2.3555760     0.9102830
  H        3.9313990    -1.0827470    -0.4343570
  H        4.1211000    -0.1952360     1.0924070
  H        4.4689380     0.6162650    -0.4426230
units angstrom
no_reorient  #important for SAPT in psi4, default
symmetry c1  #important for SAPT in psi4, default
}

set PROPERTIES_ORIGIN ["COM"]
properties('MP2/aug-cc-pvtz', properties = ['dipole'])
--------------------------------------------------------------------------

    Molecular point group: c1
  Charge       = 0
  Multiplicity = 1
  Basis Set: AUG-CC-PVTZ
    Blend: AUG-CC-PVTZ
  Basis Set: (AUG-CC-PVTZ AUX)
    Blend: AUG-CC-PVTZ-JKFIT

    Orbital Energies [Eh]
    ---------------------

    Doubly Occupied:

       1A    -91.981966     2A    -20.542154     3A    -15.628085
       4A    -11.376362     5A    -11.318814     6A    -11.254713
       7A    -11.245071     8A    -11.242753     9A    -11.224043
      10A    -11.223477    11A     -8.981421    12A     -6.662501
      13A     -6.662095    14A     -6.661215    15A     -1.400811
      16A     -1.297855    17A     -1.146414    18A     -1.044749
      19A     -1.010119    20A     -0.959361    21A     -0.914191
      22A     -0.843063    23A     -0.802900    24A     -0.723960
      25A     -0.687482    26A     -0.675696    27A     -0.644607
      28A     -0.611971    29A     -0.601315    30A     -0.581453
      31A     -0.579734    32A     -0.566770    33A     -0.562318
      34A     -0.519008    35A     -0.506724    36A     -0.500371
      37A     -0.462241    38A     -0.451414    39A     -0.437262
      40A     -0.334596    41A     -0.280075

  @DF-RHF Final Energy:  -797.30266141696279

   => Energetics <=

    Nuclear Repulsion Energy =            584.5165933159166798
    One-Electron Energy =               -2253.3362448919115195
    Two-Electron Energy =                 871.5169901590320478
    Total Energy =                       -797.3026614169627919
  Basis Set: (AUG-CC-PVTZ AUX)
    Blend: AUG-CC-PVTZ-RI
    Molecular point group: c1

    Geometry (in Angstrom), charge = 0, multiplicity = 1:

       Center              X                  Y                   Z               Mass
    ------------   -----------------  -----------------  -----------------  -----------------
         S           -1.008388704150    -1.707907164406    -0.012975283458    31.972071174400
         O            2.126029295850     1.645364835594    -0.058104283458    15.994914619570
         N            1.429491295850    -0.541587164406     0.001927716542    14.003074004430
         C           -2.074566704150     0.641177835594     0.012362716542    12.000000000000
         C            0.143693595850    -0.340368264406     0.004708116542    12.000000000000
         C           -0.663340704150     0.855204835594     0.015231716542    12.000000000000
         C           -2.403616704150    -0.692150164406    -0.000448283458    12.000000000000
         C           -3.078125704150     1.757792835594     0.023627716542    12.000000000000
         C            2.392166295850     0.445186835594    -0.022985283458    12.000000000000
         C            3.812319295850    -0.077483164406     0.047559716542    12.000000000000
         H           -0.182158704150     1.823820835594     0.022400716542     1.007825032230
         H           -3.390119704150    -1.138811164406    -0.002206283458     1.007825032230
         H            1.746844295850    -1.503065164406     0.032170716542     1.007825032230
         H           -2.959251704150     2.401685835594    -0.853510283458     1.007825032230
         H           -4.098874704150     1.365815835594     0.020608716542     1.007825032230
         H           -2.958194704150     2.385287835594     0.912434716542     1.007825032230
         H            3.928089295850    -1.053035164406    -0.432205283458     1.007825032230
         H            4.117790295850    -0.165524164406     1.094558716542     1.007825032230
         H            4.465628295850     0.645976835594    -0.440471283458     1.007825032230

  Basis Set: AUG-CC-PVTZ
    Blend: AUG-CC-PVTZ
  Basis Set: (AUG-CC-PVTZ AUX)
    Blend: AUG-CC-PVTZ-JKFIT
	 Reference Energy          =    -797.3026614169627919 [Eh]
	 Singles Energy            =      -0.0000000000000000 [Eh]
	 Same-Spin Energy          =      -0.4873452850860008 [Eh]
	 Opposite-Spin Energy      =      -1.5039286827341198 [Eh]
	 Correlation Energy        =      -1.9912739678201206 [Eh]
	 Total Energy              =    -799.2939353847829125 [Eh]

	 ================> DF-SCS-MP2 Energies <==================
	-----------------------------------------------------------
	 SCS Same-Spin Scale       =       0.3333333333333333 [-]
	 SCS Opposite-Spin Scale   =       1.2000000000000000 [-]
	 SCS Same-Spin Energy      =      -0.1624484283620002 [Eh]
	 SCS Opposite-Spin Energy  =      -1.8047144192809437 [Eh]
	 SCS Correlation Energy    =      -1.9671628476429439 [Eh]
	 SCS Total Energy          =    -799.2698242646057452 [Eh]
	-----------------------------------------------------------

  Dipole Moment: [D]
     X:     0.9333      Y:    -2.4627      Z:     0.1767     Total:     2.6395

*** Psi4 exiting successfully. Buy a developer a beer!
