                               Psi4 1.4a3.dev225

  ==> Input File <==

--------------------------------------------------------------------------
#psi4
#
memory 32 gb

molecule  {
0 1
  S       -1.0050790    -1.7376190    -0.0151270
  O        2.1293390     1.6156530    -0.0602560
  N        1.4328010    -0.5712990    -0.0002240
  C       -2.0712570     0.6114660     0.0102110
  C        0.0482060    -0.3546190     0.0027700
  C       -0.6600310     0.8254930     0.0130800
  C       -2.4003070    -0.7218620    -0.0026000
  C       -3.0748160     1.7280810     0.0214760
  C        2.3954760     0.4154750    -0.0251370
  C        3.8156290    -0.1071950     0.0454080
  H       -0.1343600     1.8836651     0.0209118
  H       -3.3868100    -1.1685230    -0.0043580
  H        1.7501540    -1.5327770     0.0300190
  H       -2.9559420     2.3719740    -0.8556620
  H       -4.0955650     1.3361040     0.0184570
  H       -2.9548850     2.3555760     0.9102830
  H        3.9313990    -1.0827470    -0.4343570
  H        4.1211000    -0.1952360     1.0924070
  H        4.4689380     0.6162650    -0.4426230
units angstrom
no_reorient  #important for SAPT in psi4, default
symmetry c1  #important for SAPT in psi4, default
}

set PROPERTIES_ORIGIN ["COM"]
properties('MP2/aug-cc-pvtz', properties = ['dipole'])
--------------------------------------------------------------------------

    Molecular point group: c1
  Charge       = 0
  Multiplicity = 1
  Basis Set: AUG-CC-PVTZ
    Blend: AUG-CC-PVTZ
  Basis Set: (AUG-CC-PVTZ AUX)
    Blend: AUG-CC-PVTZ-JKFIT

    Orbital Energies [Eh]
    ---------------------

    Doubly Occupied:

       1A    -91.984637     2A    -20.532776     3A    -15.619189
       4A    -11.369403     5A    -11.311874     6A    -11.249582
       7A    -11.249472     8A    -11.245373     9A    -11.231528
      10A    -11.225699    11A     -8.985100    12A     -6.666263
      13A     -6.665708    14A     -6.664812    15A     -1.388831
      16A     -1.264892    17A     -1.159442    18A     -1.038156
      19A     -1.011578    20A     -0.968613    21A     -0.912538
      22A     -0.825335    23A     -0.785184    24A     -0.719743
      25A     -0.687729    26A     -0.668683    27A     -0.632902
      28A     -0.609394    29A     -0.592087    30A     -0.580669
      31A     -0.574486    32A     -0.558667    33A     -0.555754
      34A     -0.518050    35A     -0.516333    36A     -0.503231
      37A     -0.472466    38A     -0.442573    39A     -0.431155
      40A     -0.340274    41A     -0.295674

  @DF-RHF Final Energy:  -797.31168042385411

   => Energetics <=

    Nuclear Repulsion Energy =            584.3645185203440633
    One-Electron Energy =               -2253.2406839286509239
    Two-Electron Energy =                 871.5644849844527471
    Total Energy =                       -797.3116804238541135
  Basis Set: (AUG-CC-PVTZ AUX)
    Blend: AUG-CC-PVTZ-RI
    Molecular point group: c1

    Geometry (in Angstrom), charge = 0, multiplicity = 1:

       Center              X                  Y                   Z               Mass
    ------------   -----------------  -----------------  -----------------  -----------------
         S           -1.001031074486    -1.709685990622    -0.012996124379    31.972071174400
         O            2.133386925514     1.643586009378    -0.058125124379    15.994914619570
         N            1.436848925514    -0.543365990622     0.001906875621    14.003074004430
         C           -2.067209074486     0.639399009378     0.012341875621    12.000000000000
         C            0.052253925514    -0.326685990622     0.004900875621    12.000000000000
         C           -0.655983074486     0.853426009378     0.015210875621    12.000000000000
         C           -2.396259074486    -0.693928990622    -0.000469124379    12.000000000000
         C           -3.070768074486     1.756014009378     0.023606875621    12.000000000000
         C            2.399523925514     0.443408009378    -0.023006124379    12.000000000000
         C            3.819676925514    -0.079261990622     0.047538875621    12.000000000000
         H           -0.130312074486     1.911598109378     0.023042675621     1.007825032230
         H           -3.382762074486    -1.140589990622    -0.002227124379     1.007825032230
         H            1.754201925514    -1.504843990622     0.032149875621     1.007825032230
         H           -2.951894074486     2.399907009378    -0.853531124379     1.007825032230
         H           -4.091517074486     1.364037009378     0.020587875621     1.007825032230
         H           -2.950837074486     2.383509009378     0.912413875621     1.007825032230
         H            3.935446925514    -1.054813990622    -0.432226124379     1.007825032230
         H            4.125147925514    -0.167302990622     1.094537875621     1.007825032230
         H            4.472985925514     0.644198009378    -0.440492124379     1.007825032230

  Basis Set: AUG-CC-PVTZ
    Blend: AUG-CC-PVTZ
  Basis Set: (AUG-CC-PVTZ AUX)
    Blend: AUG-CC-PVTZ-JKFIT
	 Reference Energy          =    -797.3116804238541135 [Eh]
	 Singles Energy            =      -0.0000000000000000 [Eh]
	 Same-Spin Energy          =      -0.4859576631339375 [Eh]
	 Opposite-Spin Energy      =      -1.5026620825228332 [Eh]
	 Correlation Energy        =      -1.9886197456567707 [Eh]
	 Total Energy              =    -799.3003001695109333 [Eh]

	 ================> DF-SCS-MP2 Energies <==================
	-----------------------------------------------------------
	 SCS Same-Spin Scale       =       0.3333333333333333 [-]
	 SCS Opposite-Spin Scale   =       1.2000000000000000 [-]
	 SCS Same-Spin Energy      =      -0.1619858877113125 [Eh]
	 SCS Opposite-Spin Energy  =      -1.8031944990273998 [Eh]
	 SCS Correlation Energy    =      -1.9651803867387123 [Eh]
	 SCS Total Energy          =    -799.2768608105927797 [Eh]
	-----------------------------------------------------------

  Dipole Moment: [D]
     X:     0.4543      Y:    -2.5105      Z:     0.1772     Total:     2.5574

*** Psi4 exiting successfully. Buy a developer a beer!
