                               Psi4 1.4a3.dev225

  ==> Input File <==

--------------------------------------------------------------------------
#psi4
#
memory 32 gb

molecule  {
0 1
  S       -1.0050790    -1.7376190    -0.0151270
  O        2.1293390     1.6156530    -0.0602560
  N        1.4328010    -0.5712990    -0.0002240
  C       -2.0712570     0.6114660     0.0102110
  C        0.0482060    -0.3546190     0.0027700
  C       -0.6600310     0.8254930     0.0130800
  C       -2.4003070    -0.7218620    -0.0026000
  C       -3.0748160     1.7280810     0.0214760
  C        2.3954760     0.4154750    -0.0251370
  C        3.8156290    -0.1071950     0.0454080
  H       -0.1788490     1.7941090     0.0202490
  H       -3.3685905    -1.1602737    -0.0043255
  H        1.7501540    -1.5327770     0.0300190
  H       -2.9559420     2.3719740    -0.8556620
  H       -4.0955650     1.3361040     0.0184570
  H       -2.9548850     2.3555760     0.9102830
  H        3.9313990    -1.0827470    -0.4343570
  H        4.1211000    -0.1952360     1.0924070
  H        4.4689380     0.6162650    -0.4426230
units angstrom
no_reorient  #important for SAPT in psi4, default
symmetry c1  #important for SAPT in psi4, default
}

set PROPERTIES_ORIGIN ["COM"]
properties('MP2/aug-cc-pvtz', properties = ['dipole'])
--------------------------------------------------------------------------

    Molecular point group: c1
  Charge       = 0
  Multiplicity = 1
  Basis Set: AUG-CC-PVTZ
    Blend: AUG-CC-PVTZ
  Basis Set: (AUG-CC-PVTZ AUX)
    Blend: AUG-CC-PVTZ-JKFIT

    Orbital Energies [Eh]
    ---------------------

    Doubly Occupied:

       1A    -91.984255     2A    -20.532957     3A    -15.619201
       4A    -11.369295     5A    -11.311685     6A    -11.249454
       7A    -11.247181     8A    -11.244752     9A    -11.226015
      10A    -11.221907    11A     -8.984749    12A     -6.665915
      13A     -6.665360    14A     -6.664473    15A     -1.388773
      16A     -1.264933    17A     -1.159671    18A     -1.038187
      19A     -1.012145    20A     -0.972415    21A     -0.913010
      22A     -0.825953    23A     -0.786422    24A     -0.728854
      25A     -0.688496    26A     -0.674327    27A     -0.632880
      28A     -0.610342    29A     -0.592940    30A     -0.580855
      31A     -0.578352    32A     -0.561538    33A     -0.558179
      34A     -0.523512    35A     -0.516705    36A     -0.503087
      37A     -0.472917    38A     -0.442466    39A     -0.433624
      40A     -0.340236    41A     -0.295560

  @DF-RHF Final Energy:  -797.31963037911737

   => Energetics <=

    Nuclear Repulsion Energy =            584.9453016623050416
    One-Electron Energy =               -2254.3627068007890557
    Two-Electron Energy =                 872.0977747593665299
    Total Energy =                       -797.3196303791173705
  Basis Set: (AUG-CC-PVTZ AUX)
    Blend: AUG-CC-PVTZ-RI
    Molecular point group: c1

    Geometry (in Angstrom), charge = 0, multiplicity = 1:

       Center              X                  Y                   Z               Mass
    ------------   -----------------  -----------------  -----------------  -----------------
         S           -1.000860312252    -1.709157463971    -0.012992027177    31.972071174400
         O            2.133557687748     1.644114536029    -0.058121027177    15.994914619570
         N            1.437019687748    -0.542837463971     0.001910972823    14.003074004430
         C           -2.067038312252     0.639927536029     0.012345972823    12.000000000000
         C            0.052424687748    -0.326157463971     0.004904972823    12.000000000000
         C           -0.655812312252     0.853954536029     0.015214972823    12.000000000000
         C           -2.396088312252    -0.693400463971    -0.000465027177    12.000000000000
         C           -3.070597312252     1.756542536029     0.023610972823    12.000000000000
         C            2.399694687748     0.443936536029    -0.023002027177    12.000000000000
         C            3.819847687748    -0.078733463971     0.047542972823    12.000000000000
         H           -0.174630312252     1.822570536029     0.022383972823     1.007825032230
         H           -3.364371812252    -1.131812163971    -0.002190527177     1.007825032230
         H            1.754372687748    -1.504315463971     0.032153972823     1.007825032230
         H           -2.951723312252     2.400435536029    -0.853527027177     1.007825032230
         H           -4.091346312252     1.364565536029     0.020591972823     1.007825032230
         H           -2.950666312252     2.384037536029     0.912417972823     1.007825032230
         H            3.935617687748    -1.054285463971    -0.432222027177     1.007825032230
         H            4.125318687748    -0.166774463971     1.094541972823     1.007825032230
         H            4.473156687748     0.644726536029    -0.440488027177     1.007825032230

  Basis Set: AUG-CC-PVTZ
    Blend: AUG-CC-PVTZ
  Basis Set: (AUG-CC-PVTZ AUX)
    Blend: AUG-CC-PVTZ-JKFIT
	 Reference Energy          =    -797.3196303791173705 [Eh]
	 Singles Energy            =      -0.0000000000000000 [Eh]
	 Same-Spin Energy          =      -0.4854800553233653 [Eh]
	 Opposite-Spin Energy      =      -1.5015634849531563 [Eh]
	 Correlation Energy        =      -1.9870435402765216 [Eh]
	 Total Energy              =    -799.3066739193939156 [Eh]

	 ================> DF-SCS-MP2 Energies <==================
	-----------------------------------------------------------
	 SCS Same-Spin Scale       =       0.3333333333333333 [-]
	 SCS Opposite-Spin Scale   =       1.2000000000000000 [-]
	 SCS Same-Spin Energy      =      -0.1618266851077884 [Eh]
	 SCS Opposite-Spin Energy  =      -1.8018761819437874 [Eh]
	 SCS Correlation Energy    =      -1.9637028670515759 [Eh]
	 SCS Total Energy          =    -799.2833332461689224 [Eh]
	-----------------------------------------------------------

  Dipole Moment: [D]
     X:     0.4302      Y:    -2.5257      Z:     0.1778     Total:     2.5682

*** Psi4 exiting successfully. Buy a developer a beer!
