                               Psi4 1.4a3.dev225

  ==> Input File <==

--------------------------------------------------------------------------
#psi4
#
memory 32 gb

molecule  {
0 1
  S       -1.0050790    -1.7376190    -0.0151270
  O        2.1293390     1.6156530    -0.0602560
  N        1.4328010    -0.5712990    -0.0002240
  C       -2.0712570     0.6114660     0.0102110
  C        0.0482060    -0.3546190     0.0027700
  C       -0.6600310     0.8254930     0.0130800
  C       -2.4003070    -0.7218620    -0.0026000
  C       -3.0748160     1.7280810     0.0214760
  C        2.3954760     0.4154750    -0.0251370
  C        3.8156290    -0.1071950     0.0454080
  H       -0.1788490     1.7941090     0.0202490
  H       -3.3868100    -1.1685230    -0.0043580
  H        1.7501540    -1.5327770     0.0300190
  H       -2.9559420     2.3719740    -0.8556620
  H       -4.0955650     1.3361040     0.0184570
  H       -2.9548850     2.3555760     0.9102830
  H        3.9313990    -1.0827470    -0.4343570
  H        4.0931827    -0.1871898     0.9967206
  H        4.4689380     0.6162650    -0.4426230
units angstrom
no_reorient  #important for SAPT in psi4, default
symmetry c1  #important for SAPT in psi4, default
}

set PROPERTIES_ORIGIN ["COM"]
properties('MP2/aug-cc-pvtz', properties = ['dipole'])
--------------------------------------------------------------------------

    Molecular point group: c1
  Charge       = 0
  Multiplicity = 1
  Basis Set: AUG-CC-PVTZ
    Blend: AUG-CC-PVTZ
  Basis Set: (AUG-CC-PVTZ AUX)
    Blend: AUG-CC-PVTZ-JKFIT

    Orbital Energies [Eh]
    ---------------------

    Doubly Occupied:

       1A    -91.984370     2A    -20.532840     3A    -15.619179
       4A    -11.368790     5A    -11.311638     6A    -11.249260
       7A    -11.244917     8A    -11.237682     9A    -11.225966
      10A    -11.221977    11A     -8.984853    12A     -6.666017
      13A     -6.665463    14A     -6.664573    15A     -1.388682
      16A     -1.264907    17A     -1.159624    18A     -1.042363
      19A     -1.015813    20A     -0.973343    21A     -0.913657
      22A     -0.827475    23A     -0.785526    24A     -0.727741
      25A     -0.690039    26A     -0.674443    27A     -0.642204
      28A     -0.610585    29A     -0.592983    30A     -0.583306
      31A     -0.577058    32A     -0.565052    33A     -0.559480
      34A     -0.523482    35A     -0.516151    36A     -0.504693
      37A     -0.472969    38A     -0.442465    39A     -0.433463
      40A     -0.340284    41A     -0.295595

  @DF-RHF Final Energy:  -797.31343399449736

   => Energetics <=

    Nuclear Repulsion Energy =            585.3029881104109791
    One-Electron Energy =               -2255.0310287546985819
    Two-Electron Energy =                 872.4146066497902439
    Total Energy =                       -797.3134339944973590
  Basis Set: (AUG-CC-PVTZ AUX)
    Blend: AUG-CC-PVTZ-RI
    Molecular point group: c1

    Geometry (in Angstrom), charge = 0, multiplicity = 1:

       Center              X                  Y                   Z               Mass
    ------------   -----------------  -----------------  -----------------  -----------------
         S           -1.000560404638    -1.709156143740    -0.012369816124    31.972071174400
         O            2.133857595362     1.644115856260    -0.057498816124    15.994914619570
         N            1.437319595362    -0.542836143740     0.002533183876    14.003074004430
         C           -2.066738404638     0.639928856260     0.012968183876    12.000000000000
         C            0.052724595362    -0.326156143740     0.005527183876    12.000000000000
         C           -0.655512404638     0.853955856260     0.015837183876    12.000000000000
         C           -2.395788404638    -0.693399143740     0.000157183876    12.000000000000
         C           -3.070297404638     1.756543856260     0.024233183876    12.000000000000
         C            2.399994595362     0.443937856260    -0.022379816124    12.000000000000
         C            3.820147595362    -0.078732143740     0.048165183876    12.000000000000
         H           -0.174330404638     1.822571856260     0.023006183876     1.007825032230
         H           -3.382291404638    -1.140060143740    -0.001600816124     1.007825032230
         H            1.754672595362    -1.504314143740     0.032776183876     1.007825032230
         H           -2.951423404638     2.400436856260    -0.852904816124     1.007825032230
         H           -4.091046404638     1.364566856260     0.021214183876     1.007825032230
         H           -2.950366404638     2.384038856260     0.913040183876     1.007825032230
         H            3.935917595362    -1.054284143740    -0.431599816124     1.007825032230
         H            4.097701295362    -0.158726943740     0.999477783876     1.007825032230
         H            4.473456595362     0.644727856260    -0.439865816124     1.007825032230

  Basis Set: AUG-CC-PVTZ
    Blend: AUG-CC-PVTZ
  Basis Set: (AUG-CC-PVTZ AUX)
    Blend: AUG-CC-PVTZ-JKFIT
	 Reference Energy          =    -797.3134339944973590 [Eh]
	 Singles Energy            =      -0.0000000000000000 [Eh]
	 Same-Spin Energy          =      -0.4855601930015250 [Eh]
	 Opposite-Spin Energy      =      -1.5012708672606507 [Eh]
	 Correlation Energy        =      -1.9868310602621757 [Eh]
	 Total Energy              =    -799.3002650547595067 [Eh]

	 ================> DF-SCS-MP2 Energies <==================
	-----------------------------------------------------------
	 SCS Same-Spin Scale       =       0.3333333333333333 [-]
	 SCS Opposite-Spin Scale   =       1.2000000000000000 [-]
	 SCS Same-Spin Energy      =      -0.1618533976671750 [Eh]
	 SCS Opposite-Spin Energy  =      -1.8015250407127807 [Eh]
	 SCS Correlation Energy    =      -1.9633784383799557 [Eh]
	 SCS Total Energy          =    -799.2768124328773638 [Eh]
	-----------------------------------------------------------

  Dipole Moment: [D]
     X:     0.4383      Y:    -2.5306      Z:     0.1897     Total:     2.5753

*** Psi4 exiting successfully. Buy a developer a beer!
