                               Psi4 1.4a3.dev225

  ==> Input File <==

--------------------------------------------------------------------------
#psi4
#
memory 32 gb

molecule  {
0 1
  S       -1.0050790    -1.7376190    -0.0151270
  O        2.1293390     1.6156530    -0.0602560
  N        1.4328010    -0.5712990    -0.0002240
  C       -2.0712570     0.6114660     0.0102110
  C        0.0482060    -0.3546190     0.0027700
  C       -0.6600310     0.8254930     0.0130800
  C       -2.4003070    -0.7218620    -0.0026000
  C       -3.0748160     1.7280810     0.0214760
  C        2.3954760     0.4154750    -0.0251370
  C        3.8156290    -0.1071950     0.0454080
  H       -0.1788490     1.7941090     0.0202490
  H       -3.4050295    -1.1767723    -0.0043905
  H        1.7501540    -1.5327770     0.0300190
  H       -2.9559420     2.3719740    -0.8556620
  H       -4.0955650     1.3361040     0.0184570
  H       -2.9548850     2.3555760     0.9102830
  H        3.9313990    -1.0827470    -0.4343570
  H        4.1211000    -0.1952360     1.0924070
  H        4.4689380     0.6162650    -0.4426230
units angstrom
no_reorient  #important for SAPT in psi4, default
symmetry c1  #important for SAPT in psi4, default
}

set PROPERTIES_ORIGIN ["COM"]
properties('MP2/aug-cc-pvtz', properties = ['dipole'])
--------------------------------------------------------------------------

    Molecular point group: c1
  Charge       = 0
  Multiplicity = 1
  Basis Set: AUG-CC-PVTZ
    Blend: AUG-CC-PVTZ
  Basis Set: (AUG-CC-PVTZ AUX)
    Blend: AUG-CC-PVTZ-JKFIT

    Orbital Energies [Eh]
    ---------------------

    Doubly Occupied:

       1A    -91.984554     2A    -20.533004     3A    -15.619263
       4A    -11.369345     5A    -11.311739     6A    -11.251421
       7A    -11.249488     8A    -11.245077     9A    -11.225954
      10A    -11.222112    11A     -8.985024    12A     -6.666185
      13A     -6.665633    14A     -6.664741    15A     -1.388822
      16A     -1.264999    17A     -1.159556    18A     -1.038139
      19A     -1.012097    20A     -0.971310    21A     -0.912528
      22A     -0.825558    23A     -0.784367    24A     -0.726063
      25A     -0.688037    26A     -0.673284    27A     -0.632925
      28A     -0.610065    29A     -0.592800    30A     -0.580866
      31A     -0.576663    32A     -0.559680    33A     -0.557997
      34A     -0.523532    35A     -0.515591    36A     -0.503173
      37A     -0.473075    38A     -0.442542    39A     -0.433677
      40A     -0.340383    41A     -0.295610

  @DF-RHF Final Energy:  -797.31882978872977

   => Energetics <=

    Nuclear Repulsion Energy =            584.7201596712691298
    One-Electron Energy =               -2253.9242214242103728
    Two-Electron Energy =                 871.8852319642114708
    Total Energy =                       -797.3188297887297722
  Basis Set: (AUG-CC-PVTZ AUX)
    Blend: AUG-CC-PVTZ-RI
    Molecular point group: c1

    Geometry (in Angstrom), charge = 0, multiplicity = 1:

       Center              X                  Y                   Z               Mass
    ------------   -----------------  -----------------  -----------------  -----------------
         S           -1.000623444208    -1.709050216486    -0.012991604651    31.972071174400
         O            2.133794555792     1.644221783514    -0.058120604651    15.994914619570
         N            1.437256555792    -0.542730216486     0.001911395349    14.003074004430
         C           -2.066801444208     0.640034783514     0.012346395349    12.000000000000
         C            0.052661555792    -0.326050216486     0.004905395349    12.000000000000
         C           -0.655575444208     0.854061783514     0.015215395349    12.000000000000
         C           -2.395851444208    -0.693293216486    -0.000464604651    12.000000000000
         C           -3.070360444208     1.756649783514     0.023611395349    12.000000000000
         C            2.399931555792     0.444043783514    -0.023001604651    12.000000000000
         C            3.820084555792    -0.078626216486     0.047543395349    12.000000000000
         H           -0.174393444208     1.822677783514     0.022384395349     1.007825032230
         H           -3.400573944208    -1.148203516486    -0.002255104651     1.007825032230
         H            1.754609555792    -1.504208216486     0.032154395349     1.007825032230
         H           -2.951486444208     2.400542783514    -0.853526604651     1.007825032230
         H           -4.091109444208     1.364672783514     0.020592395349     1.007825032230
         H           -2.950429444208     2.384144783514     0.912418395349     1.007825032230
         H            3.935854555792    -1.054178216486    -0.432221604651     1.007825032230
         H            4.125555555792    -0.166667216486     1.094542395349     1.007825032230
         H            4.473393555792     0.644833783514    -0.440487604651     1.007825032230

  Basis Set: AUG-CC-PVTZ
    Blend: AUG-CC-PVTZ
  Basis Set: (AUG-CC-PVTZ AUX)
    Blend: AUG-CC-PVTZ-JKFIT
	 Reference Energy          =    -797.3188297887297722 [Eh]
	 Singles Energy            =      -0.0000000000000000 [Eh]
	 Same-Spin Energy          =      -0.4855757349095635 [Eh]
	 Opposite-Spin Energy      =      -1.5018444925420837 [Eh]
	 Correlation Energy        =      -1.9874202274516473 [Eh]
	 Total Energy              =    -799.3062500161813659 [Eh]

	 ================> DF-SCS-MP2 Energies <==================
	-----------------------------------------------------------
	 SCS Same-Spin Scale       =       0.3333333333333333 [-]
	 SCS Opposite-Spin Scale   =       1.2000000000000000 [-]
	 SCS Same-Spin Energy      =      -0.1618585783031878 [Eh]
	 SCS Opposite-Spin Energy  =      -1.8022133910505005 [Eh]
	 SCS Correlation Energy    =      -1.9640719693536883 [Eh]
	 SCS Total Energy          =    -799.2829017580834261 [Eh]
	-----------------------------------------------------------

  Dipole Moment: [D]
     X:     0.4298      Y:    -2.5295      Z:     0.1778     Total:     2.5719

*** Psi4 exiting successfully. Buy a developer a beer!
