                               Psi4 1.4a3.dev225

  ==> Input File <==

--------------------------------------------------------------------------
#psi4
#
memory 32 gb

molecule  {
0 1
  S       -1.0050790    -1.7376190    -0.0151270
  O        2.1293390     1.6156530    -0.0602560
  N        1.4328010    -0.5712990    -0.0002240
  C       -2.0712570     0.6114660     0.0102110
  C        0.0482060    -0.3546190     0.0027700
  C       -0.6600310     0.8254930     0.0130800
  C       -2.4811496    -0.6630068    -0.0018742
  C       -3.0748160     1.7280810     0.0214760
  C        2.3954760     0.4154750    -0.0251370
  C        3.8156290    -0.1071950     0.0454080
  H       -0.1788490     1.7941090     0.0202490
  H       -3.3868100    -1.1685230    -0.0043580
  H        1.7501540    -1.5327770     0.0300190
  H       -2.9559420     2.3719740    -0.8556620
  H       -4.0955650     1.3361040     0.0184570
  H       -2.9548850     2.3555760     0.9102830
  H        3.9313990    -1.0827470    -0.4343570
  H        4.1211000    -0.1952360     1.0924070
  H        4.4689380     0.6162650    -0.4426230
units angstrom
no_reorient  #important for SAPT in psi4, default
symmetry c1  #important for SAPT in psi4, default
}

set PROPERTIES_ORIGIN ["COM"]
properties('MP2/aug-cc-pvtz', properties = ['dipole'])
--------------------------------------------------------------------------

    Molecular point group: c1
  Charge       = 0
  Multiplicity = 1
  Basis Set: AUG-CC-PVTZ
    Blend: AUG-CC-PVTZ
  Basis Set: (AUG-CC-PVTZ AUX)
    Blend: AUG-CC-PVTZ-JKFIT

    Orbital Energies [Eh]
    ---------------------

    Doubly Occupied:

       1A    -91.978890     2A    -20.534682     3A    -15.620943
       4A    -11.370812     5A    -11.315785     6A    -11.250837
       7A    -11.250361     8A    -11.245391     9A    -11.225352
      10A    -11.222056    11A     -8.978387    12A     -6.659583
      13A     -6.658787    14A     -6.658092    15A     -1.390300
      16A     -1.266056    17A     -1.155753    18A     -1.041942
      19A     -1.006965    20A     -0.969422    21A     -0.914984
      22A     -0.828348    23A     -0.790839    24A     -0.733254
      25A     -0.689642    26A     -0.676365    27A     -0.633835
      28A     -0.609295    29A     -0.592733    30A     -0.587203
      31A     -0.581420    32A     -0.564780    33A     -0.558705
      34A     -0.525578    35A     -0.514608    36A     -0.500114
      37A     -0.453783    38A     -0.441257    39A     -0.434811
      40A     -0.340666    41A     -0.302339

  @DF-RHF Final Energy:  -797.31412570160080

   => Energetics <=

    Nuclear Repulsion Energy =            583.4468819782850915
    One-Electron Energy =               -2251.3721069954131053
    Two-Electron Energy =                 870.6110993155272126
    Total Energy =                       -797.3141257016008012
  Basis Set: (AUG-CC-PVTZ AUX)
    Blend: AUG-CC-PVTZ-RI
    Molecular point group: c1

    Geometry (in Angstrom), charge = 0, multiplicity = 1:

       Center              X                  Y                   Z               Mass
    ------------   -----------------  -----------------  -----------------  -----------------
         S           -0.994484730625    -1.713659182013    -0.013047992209    31.972071174400
         O            2.139933269375     1.639612817987    -0.058176992209    15.994914619570
         N            1.443395269375    -0.547339182013     0.001855007791    14.003074004430
         C           -2.060662730625     0.635425817987     0.012290007791    12.000000000000
         C            0.058800269375    -0.330659182013     0.004849007791    12.000000000000
         C           -0.649436730625     0.849452817987     0.015159007791    12.000000000000
         C           -2.470555330625    -0.639046982013     0.000204807791    12.000000000000
         C           -3.064221730625     1.752040817987     0.023555007791    12.000000000000
         C            2.406070269375     0.439434817987    -0.023057992209    12.000000000000
         C            3.826223269375    -0.083235182013     0.047487007791    12.000000000000
         H           -0.168254730625     1.818068817987     0.022328007791     1.007825032230
         H           -3.376215730625    -1.144563182013    -0.002278992209     1.007825032230
         H            1.760748269375    -1.508817182013     0.032098007791     1.007825032230
         H           -2.945347730625     2.395933817987    -0.853582992209     1.007825032230
         H           -4.084970730625     1.360063817987     0.020536007791     1.007825032230
         H           -2.944290730625     2.379535817987     0.912362007791     1.007825032230
         H            3.941993269375    -1.058787182013    -0.432277992209     1.007825032230
         H            4.131694269375    -0.171276182013     1.094486007791     1.007825032230
         H            4.479532269375     0.640224817987    -0.440543992209     1.007825032230

  Basis Set: AUG-CC-PVTZ
    Blend: AUG-CC-PVTZ
  Basis Set: (AUG-CC-PVTZ AUX)
    Blend: AUG-CC-PVTZ-JKFIT
	 Reference Energy          =    -797.3141257016008012 [Eh]
	 Singles Energy            =      -0.0000000000000000 [Eh]
	 Same-Spin Energy          =      -0.4840919255396543 [Eh]
	 Opposite-Spin Energy      =      -1.5007682394127704 [Eh]
	 Correlation Energy        =      -1.9848601649524247 [Eh]
	 Total Energy              =    -799.2989858665532665 [Eh]

	 ================> DF-SCS-MP2 Energies <==================
	-----------------------------------------------------------
	 SCS Same-Spin Scale       =       0.3333333333333333 [-]
	 SCS Opposite-Spin Scale   =       1.2000000000000000 [-]
	 SCS Same-Spin Energy      =      -0.1613639751798848 [Eh]
	 SCS Opposite-Spin Energy  =      -1.8009218872953243 [Eh]
	 SCS Correlation Energy    =      -1.9622858624752091 [Eh]
	 SCS Total Energy          =    -799.2764115640760565 [Eh]
	-----------------------------------------------------------

  Dipole Moment: [D]
     X:     0.4387      Y:    -2.3622      Z:     0.1796     Total:     2.4093

*** Psi4 exiting successfully. Buy a developer a beer!
