                               Psi4 1.4a3.dev225

  ==> Input File <==

--------------------------------------------------------------------------
#psi4
#
memory 32 gb

molecule  {
0 1
  S       -1.0050790    -1.7376190    -0.0151270
  O        2.1293390     1.6156530    -0.0602560
  N        1.4328010    -0.5712990    -0.0002240
  C       -2.0712570     0.6114660     0.0102110
  C        0.0482060    -0.3546190     0.0027700
  C       -0.6600310     0.8254930     0.0130800
  C       -2.4003070    -0.7218620    -0.0026000
  C       -3.0748160     1.7280810     0.0214760
  C        2.3954760     0.4154750    -0.0251370
  C        3.8156290    -0.1071950     0.0454080
  H       -0.1788490     1.7941090     0.0202490
  H       -3.3868100    -1.1685230    -0.0043580
  H        1.7501540    -1.5327770     0.0300190
  H       -2.9559420     2.3719740    -0.8556620
  H       -4.0955650     1.3361040     0.0184570
  H       -2.9548850     2.3555760     0.9102830
  H        3.9313990    -1.0827470    -0.4343570
  H        4.1490173    -0.2032822     1.1880934
  H        4.4689380     0.6162650    -0.4426230
units angstrom
no_reorient  #important for SAPT in psi4, default
symmetry c1  #important for SAPT in psi4, default
}

set PROPERTIES_ORIGIN ["COM"]
properties('MP2/aug-cc-pvtz', properties = ['dipole'])
--------------------------------------------------------------------------

    Molecular point group: c1
  Charge       = 0
  Multiplicity = 1
  Basis Set: AUG-CC-PVTZ
    Blend: AUG-CC-PVTZ
  Basis Set: (AUG-CC-PVTZ AUX)
    Blend: AUG-CC-PVTZ-JKFIT

    Orbital Energies [Eh]
    ---------------------

    Doubly Occupied:

       1A    -91.984487     2A    -20.533297     3A    -15.619407
       4A    -11.370026     5A    -11.311840     6A    -11.260590
       7A    -11.249371     8A    -11.245020     9A    -11.226040
      10A    -11.222112    11A     -8.984968    12A     -6.666132
      13A     -6.665578    14A     -6.664688    15A     -1.389068
      16A     -1.265130    17A     -1.159672    18A     -1.036114
      19A     -1.009191    20A     -0.970580    21A     -0.912098
      22A     -0.824575    23A     -0.785300    24A     -0.727352
      25A     -0.687507    26A     -0.673760    27A     -0.626065
      28A     -0.609805    29A     -0.593072    30A     -0.579047
      31A     -0.578093    32A     -0.560749    33A     -0.549280
      34A     -0.523612    35A     -0.516261    36A     -0.500592
      37A     -0.473073    38A     -0.442603    39A     -0.433960
      40A     -0.340382    41A     -0.295621

  @DF-RHF Final Energy:  -797.31293753239220

   => Energetics <=

    Nuclear Repulsion Energy =            584.4126356269821372
    One-Electron Energy =               -2253.3189113802932297
    Two-Electron Energy =                 871.5933382209188949
    Total Energy =                       -797.3129375323921977
  Basis Set: (AUG-CC-PVTZ AUX)
    Blend: AUG-CC-PVTZ-RI
    Molecular point group: c1

    Geometry (in Angstrom), charge = 0, multiplicity = 1:

       Center              X                  Y                   Z               Mass
    ------------   -----------------  -----------------  -----------------  -----------------
         S           -1.000923351822    -1.709051536717    -0.013613815704    31.972071174400
         O            2.133494648178     1.644220463283    -0.058742815704    15.994914619570
         N            1.436956648178    -0.542731536717     0.001289184296    14.003074004430
         C           -2.067101351822     0.640033463283     0.011724184296    12.000000000000
         C            0.052361648178    -0.326051536717     0.004283184296    12.000000000000
         C           -0.655875351822     0.854060463283     0.014593184296    12.000000000000
         C           -2.396151351822    -0.693294536717    -0.001086815704    12.000000000000
         C           -3.070660351822     1.756648463283     0.022989184296    12.000000000000
         C            2.399631648178     0.444042463283    -0.023623815704    12.000000000000
         C            3.819784648178    -0.078627536717     0.046921184296    12.000000000000
         H           -0.174693351822     1.822676463283     0.021762184296     1.007825032230
         H           -3.382654351822    -1.139955536717    -0.002844815704     1.007825032230
         H            1.754309648178    -1.504209536717     0.031532184296     1.007825032230
         H           -2.951786351822     2.400541463283    -0.854148815704     1.007825032230
         H           -4.091409351822     1.364671463283     0.019970184296     1.007825032230
         H           -2.950729351822     2.384143463283     0.911796184296     1.007825032230
         H            3.935554648178    -1.054179536717    -0.432843815704     1.007825032230
         H            4.153172948178    -0.174714736717     1.189606584296     1.007825032230
         H            4.473093648178     0.644832463283    -0.441109815704     1.007825032230

  Basis Set: AUG-CC-PVTZ
    Blend: AUG-CC-PVTZ
  Basis Set: (AUG-CC-PVTZ AUX)
    Blend: AUG-CC-PVTZ-JKFIT
	 Reference Energy          =    -797.3129375323921977 [Eh]
	 Singles Energy            =      -0.0000000000000000 [Eh]
	 Same-Spin Energy          =      -0.4855343678215706 [Eh]
	 Opposite-Spin Energy      =      -1.5023804547533803 [Eh]
	 Correlation Energy        =      -1.9879148225749508 [Eh]
	 Total Energy              =    -799.3008523549671054 [Eh]

	 ================> DF-SCS-MP2 Energies <==================
	-----------------------------------------------------------
	 SCS Same-Spin Scale       =       0.3333333333333333 [-]
	 SCS Opposite-Spin Scale   =       1.2000000000000000 [-]
	 SCS Same-Spin Energy      =      -0.1618447892738568 [Eh]
	 SCS Opposite-Spin Energy  =      -1.8028565457040564 [Eh]
	 SCS Correlation Energy    =      -1.9647013349779132 [Eh]
	 SCS Total Energy          =    -799.2776388673701149 [Eh]
	-----------------------------------------------------------

  Dipole Moment: [D]
     X:     0.4102      Y:    -2.5233      Z:     0.1565     Total:     2.5612

*** Psi4 exiting successfully. Buy a developer a beer!
