                               Psi4 1.4a3.dev225

  ==> Input File <==

--------------------------------------------------------------------------
#psi4
#
memory 32 gb

molecule  {
0 1
  S       -1.0290573    -1.7190276    -0.0148817
  O        2.1293390     1.6156530    -0.0602560
  N        1.4328010    -0.5712990    -0.0002240
  C       -2.0712570     0.6114660     0.0102110
  C        0.0482060    -0.3546190     0.0027700
  C       -0.6600310     0.8254930     0.0130800
  C       -2.4003070    -0.7218620    -0.0026000
  C       -3.0748160     1.7280810     0.0214760
  C        2.3954760     0.4154750    -0.0251370
  C        3.8156290    -0.1071950     0.0454080
  H       -0.1788490     1.7941090     0.0202490
  H       -3.3868100    -1.1685230    -0.0043580
  H        1.7501540    -1.5327770     0.0300190
  H       -2.9559420     2.3719740    -0.8556620
  H       -4.0955650     1.3361040     0.0184570
  H       -2.9548850     2.3555760     0.9102830
  H        3.9313990    -1.0827470    -0.4343570
  H        4.1211000    -0.1952360     1.0924070
  H        4.4689380     0.6162650    -0.4426230
units angstrom
no_reorient  #important for SAPT in psi4, default
symmetry c1  #important for SAPT in psi4, default
}

set PROPERTIES_ORIGIN ["COM"]
properties('MP2/aug-cc-pvtz', properties = ['dipole'])
--------------------------------------------------------------------------

    Molecular point group: c1
  Charge       = 0
  Multiplicity = 1
  Basis Set: AUG-CC-PVTZ
    Blend: AUG-CC-PVTZ
  Basis Set: (AUG-CC-PVTZ AUX)
    Blend: AUG-CC-PVTZ-JKFIT

    Orbital Energies [Eh]
    ---------------------

    Doubly Occupied:

       1A    -91.983538     2A    -20.532911     3A    -15.619442
       4A    -11.369428     5A    -11.310828     6A    -11.249521
       7A    -11.246880     8A    -11.243481     9A    -11.225151
      10A    -11.221884    11A     -8.984629    12A     -6.665787
      13A     -6.665326    14A     -6.664353    15A     -1.388762
      16A     -1.264841    17A     -1.163317    18A     -1.037520
      19A     -1.013876    20A     -0.973961    21A     -0.911444
      22A     -0.825712    23A     -0.784896    24A     -0.729225
      25A     -0.687676    26A     -0.674229    27A     -0.632948
      28A     -0.611343    29A     -0.593562    30A     -0.580855
      31A     -0.577074    32A     -0.561569    33A     -0.558050
      34A     -0.523906    35A     -0.515902    36A     -0.504538
      37A     -0.472367    38A     -0.443924    39A     -0.433647
      40A     -0.339233    41A     -0.295369

  @DF-RHF Final Energy:  -797.31903080205257

   => Energetics <=

    Nuclear Repulsion Energy =            585.6247466244645921
    One-Electron Energy =               -2255.7217396173005000
    Two-Electron Energy =                 872.7779621907834553
    Total Energy =                       -797.3190308020525663
  Basis Set: (AUG-CC-PVTZ AUX)
    Blend: AUG-CC-PVTZ-RI
    Molecular point group: c1

    Geometry (in Angstrom), charge = 0, multiplicity = 1:

       Center              X                  Y                   Z               Mass
    ------------   -----------------  -----------------  -----------------  -----------------
         S           -1.019775431612    -1.694346313450    -0.012797101083    31.972071174400
         O            2.138620868388     1.640334286550    -0.058171401083    15.994914619570
         N            1.442082868388    -0.546617713450     0.001860598917    14.003074004430
         C           -2.061975131612     0.636147286550     0.012295598917    12.000000000000
         C            0.057487868388    -0.329937713450     0.004854598917    12.000000000000
         C           -0.650749131612     0.850174286550     0.015164598917    12.000000000000
         C           -2.391025131612    -0.697180713450    -0.000515401083    12.000000000000
         C           -3.065534131612     1.752762286550     0.023560598917    12.000000000000
         C            2.404757868388     0.440156286550    -0.023052401083    12.000000000000
         C            3.824910868388    -0.082513713450     0.047492598917    12.000000000000
         H           -0.169567131612     1.818790286550     0.022333598917     1.007825032230
         H           -3.377528131612    -1.143841713450    -0.002273401083     1.007825032230
         H            1.759435868388    -1.508095713450     0.032103598917     1.007825032230
         H           -2.946660131612     2.396655286550    -0.853577401083     1.007825032230
         H           -4.086283131612     1.360785286550     0.020541598917     1.007825032230
         H           -2.945603131612     2.380257286550     0.912367598917     1.007825032230
         H            3.940680868388    -1.058065713450    -0.432272401083     1.007825032230
         H            4.130381868388    -0.170554713450     1.094491598917     1.007825032230
         H            4.478219868388     0.640946286550    -0.440538401083     1.007825032230

  Basis Set: AUG-CC-PVTZ
    Blend: AUG-CC-PVTZ
  Basis Set: (AUG-CC-PVTZ AUX)
    Blend: AUG-CC-PVTZ-JKFIT
	 Reference Energy          =    -797.3190308020525663 [Eh]
	 Singles Energy            =      -0.0000000000000000 [Eh]
	 Same-Spin Energy          =      -0.4858982136661853 [Eh]
	 Opposite-Spin Energy      =      -1.5015885477889785 [Eh]
	 Correlation Energy        =      -1.9874867614551639 [Eh]
	 Total Energy              =    -799.3065175635077821 [Eh]

	 ================> DF-SCS-MP2 Energies <==================
	-----------------------------------------------------------
	 SCS Same-Spin Scale       =       0.3333333333333333 [-]
	 SCS Opposite-Spin Scale   =       1.2000000000000000 [-]
	 SCS Same-Spin Energy      =      -0.1619660712220617 [Eh]
	 SCS Opposite-Spin Energy  =      -1.8019062573467741 [Eh]
	 SCS Correlation Energy    =      -1.9638723285688360 [Eh]
	 SCS Total Energy          =    -799.2829031306214347 [Eh]
	-----------------------------------------------------------

  Dipole Moment: [D]
     X:     0.4373      Y:    -2.5632      Z:     0.1775     Total:     2.6063

*** Psi4 exiting successfully. Buy a developer a beer!
