                               Psi4 1.4a3.dev225

  ==> Input File <==

--------------------------------------------------------------------------
#psi4
#
memory 32 gb

molecule  {
0 1
  S       -1.0050790    -1.7376190    -0.0151270
  O        2.1293390     1.6156530    -0.0602560
  N        1.4328010    -0.5712990    -0.0002240
  C       -2.0712570     0.6114660     0.0102110
  C        0.0679655    -0.3577112     0.0027273
  C       -0.6600310     0.8254930     0.0130800
  C       -2.4003070    -0.7218620    -0.0026000
  C       -3.0748160     1.7280810     0.0214760
  C        2.3954760     0.4154750    -0.0251370
  C        3.8156290    -0.1071950     0.0454080
  H       -0.1788490     1.7941090     0.0202490
  H       -3.3868100    -1.1685230    -0.0043580
  H        1.7501540    -1.5327770     0.0300190
  H       -2.9559420     2.3719740    -0.8556620
  H       -4.0955650     1.3361040     0.0184570
  H       -2.9548850     2.3555760     0.9102830
  H        3.9313990    -1.0827470    -0.4343570
  H        4.1211000    -0.1952360     1.0924070
  H        4.4689380     0.6162650    -0.4426230
units angstrom
no_reorient  #important for SAPT in psi4, default
symmetry c1  #important for SAPT in psi4, default
}

set PROPERTIES_ORIGIN ["COM"]
properties('MP2/aug-cc-pvtz', properties = ['dipole'])
--------------------------------------------------------------------------

    Molecular point group: c1
  Charge       = 0
  Multiplicity = 1
  Basis Set: AUG-CC-PVTZ
    Blend: AUG-CC-PVTZ
  Basis Set: (AUG-CC-PVTZ AUX)
    Blend: AUG-CC-PVTZ-JKFIT

    Orbital Energies [Eh]
    ---------------------

    Doubly Occupied:

       1A    -91.983950     2A    -20.534651     3A    -15.620937
       4A    -11.370632     5A    -11.313018     6A    -11.250440
       7A    -11.248597     8A    -11.244525     9A    -11.225634
      10A    -11.222459    11A     -8.984217    12A     -6.665363
      13A     -6.664842    14A     -6.663956    15A     -1.390850
      16A     -1.270781    17A     -1.156953    18A     -1.039030
      19A     -1.011963    20A     -0.969295    21A     -0.912823
      22A     -0.829307    23A     -0.788410    24A     -0.726707
      25A     -0.688112    26A     -0.674473    27A     -0.634897
      28A     -0.610424    29A     -0.594710    30A     -0.580555
      31A     -0.577609    32A     -0.561679    33A     -0.559714
      34A     -0.522217    35A     -0.514779    36A     -0.502325
      37A     -0.470755    38A     -0.444467    39A     -0.434695
      40A     -0.339077    41A     -0.292705

  @DF-RHF Final Energy:  -797.31844102828813

   => Energetics <=

    Nuclear Repulsion Energy =            584.7479566728160307
    One-Electron Energy =               -2253.9477260753610608
    Two-Electron Energy =                 871.8813283742567819
    Total Energy =                       -797.3184410282881345
  Basis Set: (AUG-CC-PVTZ AUX)
    Blend: AUG-CC-PVTZ-RI
    Molecular point group: c1

    Geometry (in Angstrom), charge = 0, multiplicity = 1:

       Center              X                  Y                   Z               Mass
    ------------   -----------------  -----------------  -----------------  -----------------
         S           -1.002271246510    -1.708864506612    -0.012988510971    31.972071174400
         O            2.132146753490     1.644407493388    -0.058117510971    15.994914619570
         N            1.435608753490    -0.542544506612     0.001914489029    14.003074004430
         C           -2.068449246510     0.640220493388     0.012349489029    12.000000000000
         C            0.070773253490    -0.328956706612     0.004865789029    12.000000000000
         C           -0.657223246510     0.854247493388     0.015218489029    12.000000000000
         C           -2.397499246510    -0.693107506612    -0.000461510971    12.000000000000
         C           -3.072008246510     1.756835493388     0.023614489029    12.000000000000
         C            2.398283753490     0.444229493388    -0.022998510971    12.000000000000
         C            3.818436753490    -0.078440506612     0.047546489029    12.000000000000
         H           -0.176041246510     1.822863493388     0.022387489029     1.007825032230
         H           -3.384002246510    -1.139768506612    -0.002219510971     1.007825032230
         H            1.752961753490    -1.504022506612     0.032157489029     1.007825032230
         H           -2.953134246510     2.400728493388    -0.853523510971     1.007825032230
         H           -4.092757246510     1.364858493388     0.020595489029     1.007825032230
         H           -2.952077246510     2.384330493388     0.912421489029     1.007825032230
         H            3.934206753490    -1.053992506612    -0.432218510971     1.007825032230
         H            4.123907753490    -0.166481506612     1.094545489029     1.007825032230
         H            4.471745753490     0.645019493388    -0.440484510971     1.007825032230

  Basis Set: AUG-CC-PVTZ
    Blend: AUG-CC-PVTZ
  Basis Set: (AUG-CC-PVTZ AUX)
    Blend: AUG-CC-PVTZ-JKFIT
	 Reference Energy          =    -797.3184410282881345 [Eh]
	 Singles Energy            =      -0.0000000000000000 [Eh]
	 Same-Spin Energy          =      -0.4858325378539176 [Eh]
	 Opposite-Spin Energy      =      -1.5020382132282772 [Eh]
	 Correlation Energy        =      -1.9878707510821947 [Eh]
	 Total Energy              =    -799.3063117793702759 [Eh]

	 ================> DF-SCS-MP2 Energies <==================
	-----------------------------------------------------------
	 SCS Same-Spin Scale       =       0.3333333333333333 [-]
	 SCS Opposite-Spin Scale   =       1.2000000000000000 [-]
	 SCS Same-Spin Energy      =      -0.1619441792846392 [Eh]
	 SCS Opposite-Spin Energy  =      -1.8024458558739327 [Eh]
	 SCS Correlation Energy    =      -1.9643900351585719 [Eh]
	 SCS Total Energy          =    -799.2828310634466789 [Eh]
	-----------------------------------------------------------

  Dipole Moment: [D]
     X:     0.5288      Y:    -2.5149      Z:     0.1776     Total:     2.5760

*** Psi4 exiting successfully. Buy a developer a beer!
