                               Psi4 1.4a3.dev225

  ==> Input File <==

--------------------------------------------------------------------------
#psi4
#
memory 32 gb

molecule  {
0 1
  S       -1.0050790    -1.7376190    -0.0151270
  O        2.1293390     1.6156530    -0.0602560
  N        1.4328010    -0.5712990    -0.0002240
  C       -2.0712570     0.6114660     0.0102110
  C        0.0482060    -0.3546190     0.0027700
  C       -0.6600310     0.8254930     0.0130800
  C       -2.5378816    -0.6801650    -0.0021374
  C       -3.0748160     1.7280810     0.0214760
  C        2.3954760     0.4154750    -0.0251370
  C        3.8156290    -0.1071950     0.0454080
  H       -0.1788490     1.7941090     0.0202490
  H       -3.3868100    -1.1685230    -0.0043580
  H        1.7501540    -1.5327770     0.0300190
  H       -2.9559420     2.3719740    -0.8556620
  H       -4.0955650     1.3361040     0.0184570
  H       -2.9548850     2.3555760     0.9102830
  H        3.9313990    -1.0827470    -0.4343570
  H        4.1211000    -0.1952360     1.0924070
  H        4.4689380     0.6162650    -0.4426230
units angstrom
no_reorient  #important for SAPT in psi4, default
symmetry c1  #important for SAPT in psi4, default
}

set PROPERTIES_ORIGIN ["COM"]
properties('MP2/aug-cc-pvtz', properties = ['dipole'])
--------------------------------------------------------------------------

    Molecular point group: c1
  Charge       = 0
  Multiplicity = 1
  Basis Set: AUG-CC-PVTZ
    Blend: AUG-CC-PVTZ
  Basis Set: (AUG-CC-PVTZ AUX)
    Blend: AUG-CC-PVTZ-JKFIT

    Orbital Energies [Eh]
    ---------------------

    Doubly Occupied:

       1A    -91.977777     2A    -20.536009     3A    -15.622593
       4A    -11.372179     5A    -11.318934     6A    -11.254341
       7A    -11.252650     8A    -11.251208     9A    -11.225265
      10A    -11.223395    11A     -8.976827    12A     -6.658036
      13A     -6.657187    14A     -6.656568    15A     -1.391628
      16A     -1.267319    17A     -1.149771    18A     -1.042001
      19A     -1.006065    20A     -0.970680    21A     -0.913294
      22A     -0.828596    23A     -0.797364    24A     -0.739467
      25A     -0.691666    26A     -0.677847    27A     -0.634822
      28A     -0.608823    29A     -0.595452    30A     -0.591875
      31A     -0.580687    32A     -0.566405    33A     -0.559404
      34A     -0.527222    35A     -0.514657    36A     -0.498776
      37A     -0.444206    38A     -0.439473    39A     -0.435938
      40A     -0.338986    41A     -0.301757

  @DF-RHF Final Energy:  -797.30117379659259

   => Energetics <=

    Nuclear Repulsion Energy =            582.1235429330839679
    One-Electron Energy =               -2248.6551337963742299
    Two-Electron Energy =                 869.2304170666975551
    Total Energy =                       -797.3011737965925931
  Basis Set: (AUG-CC-PVTZ AUX)
    Blend: AUG-CC-PVTZ-RI
    Molecular point group: c1

    Geometry (in Angstrom), charge = 0, multiplicity = 1:

       Center              X                  Y                   Z               Mass
    ------------   -----------------  -----------------  -----------------  -----------------
         S           -0.990093722691    -1.712331152113    -0.013027620756    31.972071174400
         O            2.144324277309     1.640940847887    -0.058156620756    15.994914619570
         N            1.447786277309    -0.546011152113     0.001875379244    14.003074004430
         C           -2.056271722691     0.636753847887     0.012310379244    12.000000000000
         C            0.063191277309    -0.329331152113     0.004869379244    12.000000000000
         C           -0.645045722691     0.850780847887     0.015179379244    12.000000000000
         C           -2.522896322691    -0.654877152113    -0.000038020756    12.000000000000
         C           -3.059830722691     1.753368847887     0.023575379244    12.000000000000
         C            2.410461277309     0.440762847887    -0.023037620756    12.000000000000
         C            3.830614277309    -0.081907152113     0.047507379244    12.000000000000
         H           -0.163863722691     1.819396847887     0.022348379244     1.007825032230
         H           -3.371824722691    -1.143235152113    -0.002258620756     1.007825032230
         H            1.765139277309    -1.507489152113     0.032118379244     1.007825032230
         H           -2.940956722691     2.397261847887    -0.853562620756     1.007825032230
         H           -4.080579722691     1.361391847887     0.020556379244     1.007825032230
         H           -2.939899722691     2.380863847887     0.912382379244     1.007825032230
         H            3.946384277309    -1.057459152113    -0.432257620756     1.007825032230
         H            4.136085277309    -0.169948152113     1.094506379244     1.007825032230
         H            4.483923277309     0.641552847887    -0.440523620756     1.007825032230

  Basis Set: AUG-CC-PVTZ
    Blend: AUG-CC-PVTZ
  Basis Set: (AUG-CC-PVTZ AUX)
    Blend: AUG-CC-PVTZ-JKFIT
	 Reference Energy          =    -797.3011737965925931 [Eh]
	 Singles Energy            =      -0.0000000000000000 [Eh]
	 Same-Spin Energy          =      -0.4843555922361392 [Eh]
	 Opposite-Spin Energy      =      -1.5017830395166889 [Eh]
	 Correlation Energy        =      -1.9861386317528282 [Eh]
	 Total Energy              =    -799.2873124283454445 [Eh]

	 ================> DF-SCS-MP2 Energies <==================
	-----------------------------------------------------------
	 SCS Same-Spin Scale       =       0.3333333333333333 [-]
	 SCS Opposite-Spin Scale   =       1.2000000000000000 [-]
	 SCS Same-Spin Energy      =      -0.1614518640787131 [Eh]
	 SCS Opposite-Spin Energy  =      -1.8021396474200266 [Eh]
	 SCS Correlation Energy    =      -1.9635915114987397 [Eh]
	 SCS Total Energy          =    -799.2647653080913415 [Eh]
	-----------------------------------------------------------

  Dipole Moment: [D]
     X:     0.4972      Y:    -2.2931      Z:     0.1806     Total:     2.3533

*** Psi4 exiting successfully. Buy a developer a beer!
