                               Psi4 1.4a3.dev225

  ==> Input File <==

--------------------------------------------------------------------------
#psi4
#
memory 32 gb

molecule  {
0 1
  S       -1.0050790    -1.7376190    -0.0151270
  O        2.1293390     1.6156530    -0.0602560
  N        1.4328010    -0.5712990    -0.0002240
  C       -2.0712570     0.6114660     0.0102110
  C        0.0482060    -0.3546190     0.0027700
  C       -0.6600310     0.8254930     0.0130800
  C       -2.4003070    -0.7218620    -0.0026000
  C       -2.9411295     1.5793340     0.0199754
  C        2.3954760     0.4154750    -0.0251370
  C        3.8156290    -0.1071950     0.0454080
  H       -0.1788490     1.7941090     0.0202490
  H       -3.3868100    -1.1685230    -0.0043580
  H        1.7501540    -1.5327770     0.0300190
  H       -2.9559420     2.3719740    -0.8556620
  H       -4.0955650     1.3361040     0.0184570
  H       -2.9548850     2.3555760     0.9102830
  H        3.9313990    -1.0827470    -0.4343570
  H        4.1211000    -0.1952360     1.0924070
  H        4.4689380     0.6162650    -0.4426230
units angstrom
no_reorient  #important for SAPT in psi4, default
symmetry c1  #important for SAPT in psi4, default
}

set PROPERTIES_ORIGIN ["COM"]
properties('MP2/aug-cc-pvtz', properties = ['dipole'])
--------------------------------------------------------------------------

    Molecular point group: c1
  Charge       = 0
  Multiplicity = 1
  Basis Set: AUG-CC-PVTZ
    Blend: AUG-CC-PVTZ
  Basis Set: (AUG-CC-PVTZ AUX)
    Blend: AUG-CC-PVTZ-JKFIT

    Orbital Energies [Eh]
    ---------------------

    Doubly Occupied:

       1A    -91.985439     2A    -20.533749     3A    -15.620094
       4A    -11.370057     5A    -11.313112     6A    -11.251442
       7A    -11.249991     8A    -11.236052     9A    -11.233145
      10A    -11.222723    11A     -8.985959    12A     -6.667129
      13A     -6.666563    14A     -6.665680    15A     -1.389536
      16A     -1.266061    17A     -1.171807    18A     -1.062140
      19A     -1.019848    20A     -0.974647    21A     -0.904126
      22A     -0.825165    23A     -0.787810    24A     -0.731565
      25A     -0.698856    26A     -0.676160    27A     -0.633655
      28A     -0.629935    29A     -0.595243    30A     -0.577756
      31A     -0.577158    32A     -0.569602    33A     -0.550378
      34A     -0.537049    35A     -0.494827    36A     -0.493198
      37A     -0.463489    38A     -0.438796    39A     -0.434086
      40A     -0.335411    41A     -0.294876

  @DF-RHF Final Energy:  -797.26677006725185

   => Energetics <=

    Nuclear Repulsion Energy =            588.7735538273797147
    One-Electron Energy =               -2261.8120184655758749
    Two-Electron Energy =                 875.7716945709444190
    Total Energy =                       -797.2667700672518549
  Basis Set: (AUG-CC-PVTZ AUX)
    Blend: AUG-CC-PVTZ-RI
    Molecular point group: c1

    Geometry (in Angstrom), charge = 0, multiplicity = 1:

       Center              X                  Y                   Z               Mass
    ------------   -----------------  -----------------  -----------------  -----------------
         S           -1.011089098178    -1.697590950554    -0.012875670767    31.972071174400
         O            2.123328901822     1.655681049446    -0.058004670767    15.994914619570
         N            1.426790901822    -0.531270950554     0.002027329233    14.003074004430
         C           -2.077267098178     0.651494049446     0.012462329233    12.000000000000
         C            0.042195901822    -0.314590950554     0.005021329233    12.000000000000
         C           -0.666041098178     0.865521049446     0.015331329233    12.000000000000
         C           -2.406317098178    -0.681833950554    -0.000348670767    12.000000000000
         C           -2.947139598178     1.619362049446     0.022226729233    12.000000000000
         C            2.389465901822     0.455503049446    -0.022885670767    12.000000000000
         C            3.809618901822    -0.067166950554     0.047659329233    12.000000000000
         H           -0.184859098178     1.834137049446     0.022500329233     1.007825032230
         H           -3.392820098178    -1.128494950554    -0.002106670767     1.007825032230
         H            1.744143901822    -1.492748950554     0.032270329233     1.007825032230
         H           -2.961952098178     2.412002049446    -0.853410670767     1.007825032230
         H           -4.101575098178     1.376132049446     0.020708329233     1.007825032230
         H           -2.960895098178     2.395604049446     0.912534329233     1.007825032230
         H            3.925388901822    -1.042718950554    -0.432105670767     1.007825032230
         H            4.115089901822    -0.155207950554     1.094658329233     1.007825032230
         H            4.462927901822     0.656293049446    -0.440371670767     1.007825032230

  Basis Set: AUG-CC-PVTZ
    Blend: AUG-CC-PVTZ
  Basis Set: (AUG-CC-PVTZ AUX)
    Blend: AUG-CC-PVTZ-JKFIT
	 Reference Energy          =    -797.2667700672518549 [Eh]
	 Singles Energy            =      -0.0000000000000000 [Eh]
	 Same-Spin Energy          =      -0.4889262640616702 [Eh]
	 Opposite-Spin Energy      =      -1.5063133594941740 [Eh]
	 Correlation Energy        =      -1.9952396235558441 [Eh]
	 Total Energy              =    -799.2620096908076448 [Eh]

	 ================> DF-SCS-MP2 Energies <==================
	-----------------------------------------------------------
	 SCS Same-Spin Scale       =       0.3333333333333333 [-]
	 SCS Opposite-Spin Scale   =       1.2000000000000000 [-]
	 SCS Same-Spin Energy      =      -0.1629754213538900 [Eh]
	 SCS Opposite-Spin Energy  =      -1.8075760313930087 [Eh]
	 SCS Correlation Energy    =      -1.9705514527468988 [Eh]
	 SCS Total Energy          =    -799.2373215199987726 [Eh]
	-----------------------------------------------------------

  Dipole Moment: [D]
     X:     0.5182      Y:    -2.5800      Z:     0.1769     Total:     2.6375

*** Psi4 exiting successfully. Buy a developer a beer!
