                               Psi4 1.4a3.dev225

  ==> Input File <==

--------------------------------------------------------------------------
#psi4
#
memory 32 gb

molecule  {
0 1
  S       -1.1438840    -1.6199541    -0.0135763
  O        2.1293390     1.6156530    -0.0602560
  N        1.4328010    -0.5712990    -0.0002240
  C       -2.0712570     0.6114660     0.0102110
  C        0.0482060    -0.3546190     0.0027700
  C       -0.6600310     0.8254930     0.0130800
  C       -2.4003070    -0.7218620    -0.0026000
  C       -3.0748160     1.7280810     0.0214760
  C        2.3954760     0.4154750    -0.0251370
  C        3.8156290    -0.1071950     0.0454080
  H       -0.1788490     1.7941090     0.0202490
  H       -3.3868100    -1.1685230    -0.0043580
  H        1.7501540    -1.5327770     0.0300190
  H       -2.9559420     2.3719740    -0.8556620
  H       -4.0955650     1.3361040     0.0184570
  H       -2.9548850     2.3555760     0.9102830
  H        3.9313990    -1.0827470    -0.4343570
  H        4.1211000    -0.1952360     1.0924070
  H        4.4689380     0.6162650    -0.4426230
units angstrom
no_reorient  #important for SAPT in psi4, default
symmetry c1  #important for SAPT in psi4, default
}

set PROPERTIES_ORIGIN ["COM"]
properties('MP2/aug-cc-pvtz', properties = ['dipole'])
--------------------------------------------------------------------------

    Molecular point group: c1
  Charge       = 0
  Multiplicity = 1
  Basis Set: AUG-CC-PVTZ
    Blend: AUG-CC-PVTZ
  Basis Set: (AUG-CC-PVTZ AUX)
    Blend: AUG-CC-PVTZ-JKFIT

    Orbital Energies [Eh]
    ---------------------

    Doubly Occupied:

       1A    -91.977496     2A    -20.532220     3A    -15.620027
       4A    -11.369613     5A    -11.305656     6A    -11.249521
       7A    -11.236724     8A    -11.234275     9A    -11.221328
      10A    -11.221220    11A     -8.983020    12A     -6.664662
      13A     -6.663583    14A     -6.662522    15A     -1.388275
      16A     -1.264519    17A     -1.188465    18A     -1.034623
      19A     -1.025397    20A     -0.983121    21A     -0.904296
      22A     -0.824864    23A     -0.783111    24A     -0.739756
      25A     -0.684256    26A     -0.676029    27A     -0.632983
      28A     -0.620726    29A     -0.596429    30A     -0.582730
      31A     -0.575410    32A     -0.566488    33A     -0.557002
      34A     -0.525012    35A     -0.514901    36A     -0.513692
      37A     -0.462819    38A     -0.450977    39A     -0.432773
      40A     -0.337084    41A     -0.291365

  @DF-RHF Final Energy:  -797.29446321643400

   => Energetics <=

    Nuclear Repulsion Energy =            590.1689108528452152
    One-Electron Energy =               -2264.7288063009418693
    Two-Electron Energy =                 877.2654322316625439
    Total Energy =                       -797.2944632164339964
  Basis Set: (AUG-CC-PVTZ AUX)
    Blend: AUG-CC-PVTZ-RI
    Molecular point group: c1

    Geometry (in Angstrom), charge = 0, multiplicity = 1:

       Center              X                  Y                   Z               Mass
    ------------   -----------------  -----------------  -----------------  -----------------
         S           -1.110922849243    -1.615703509289    -0.011760897491    31.972071174400
         O            2.162300150757     1.619903590711    -0.058440597491    15.994914619570
         N            1.465762150757    -0.567048409289     0.001591402509    14.003074004430
         C           -2.038295849243     0.615716590711     0.012026402509    12.000000000000
         C            0.081167150757    -0.350368409289     0.004585402509    12.000000000000
         C           -0.627069849243     0.829743590711     0.014895402509    12.000000000000
         C           -2.367345849243    -0.717611409289    -0.000784597491    12.000000000000
         C           -3.041854849243     1.732331590711     0.023291402509    12.000000000000
         C            2.428437150757     0.419725590711    -0.023321597491    12.000000000000
         C            3.848590150757    -0.102944409289     0.047223402509    12.000000000000
         H           -0.145887849243     1.798359590711     0.022064402509     1.007825032230
         H           -3.353848849243    -1.164272409289    -0.002542597491     1.007825032230
         H            1.783115150757    -1.528526409289     0.031834402509     1.007825032230
         H           -2.922980849243     2.376224590711    -0.853846597491     1.007825032230
         H           -4.062603849243     1.340354590711     0.020272402509     1.007825032230
         H           -2.921923849243     2.359826590711     0.912098402509     1.007825032230
         H            3.964360150757    -1.078496409289    -0.432541597491     1.007825032230
         H            4.154061150757    -0.190985409289     1.094222402509     1.007825032230
         H            4.501899150757     0.620515590711    -0.440807597491     1.007825032230

  Basis Set: AUG-CC-PVTZ
    Blend: AUG-CC-PVTZ
  Basis Set: (AUG-CC-PVTZ AUX)
    Blend: AUG-CC-PVTZ-JKFIT
	 Reference Energy          =    -797.2944632164339964 [Eh]
	 Singles Energy            =      -0.0000000000000000 [Eh]
	 Same-Spin Energy          =      -0.4883694354405064 [Eh]
	 Opposite-Spin Energy      =      -1.5019800336488109 [Eh]
	 Correlation Energy        =      -1.9903494690893173 [Eh]
	 Total Energy              =    -799.2848126855233204 [Eh]

	 ================> DF-SCS-MP2 Energies <==================
	-----------------------------------------------------------
	 SCS Same-Spin Scale       =       0.3333333333333333 [-]
	 SCS Opposite-Spin Scale   =       1.2000000000000000 [-]
	 SCS Same-Spin Energy      =      -0.1627898118135021 [Eh]
	 SCS Opposite-Spin Energy  =      -1.8023760403785731 [Eh]
	 SCS Correlation Energy    =      -1.9651658521920752 [Eh]
	 SCS Total Energy          =    -799.2596290686260545 [Eh]
	-----------------------------------------------------------

  Dipole Moment: [D]
     X:     0.4107      Y:    -2.7147      Z:     0.1763     Total:     2.7512

*** Psi4 exiting successfully. Buy a developer a beer!
