                               Psi4 1.4a3.dev225

  ==> Input File <==

--------------------------------------------------------------------------
#psi4
#
memory 32 gb

molecule  {
0 1
  S       -1.0050790    -1.7376190    -0.0151270
  O        2.1293390     1.6156530    -0.0602560
  N        1.4328010    -0.5712990    -0.0002240
  C       -2.0712570     0.6114660     0.0102110
  C        0.0482060    -0.3546190     0.0027700
  C       -0.6600310     0.8254930     0.0130800
  C       -2.4003070    -0.7218620    -0.0026000
  C       -3.0748160     1.7280810     0.0214760
  C        2.3954760     0.4154750    -0.0251370
  C        3.8156290    -0.1071950     0.0454080
  H       -0.1699512     1.8120202     0.0203816
  H       -3.3868100    -1.1685230    -0.0043580
  H        1.7501540    -1.5327770     0.0300190
  H       -2.9559420     2.3719740    -0.8556620
  H       -4.0955650     1.3361040     0.0184570
  H       -2.9548850     2.3555760     0.9102830
  H        3.9313990    -1.0827470    -0.4343570
  H        4.1211000    -0.1952360     1.0924070
  H        4.4689380     0.6162650    -0.4426230
units angstrom
no_reorient  #important for SAPT in psi4, default
symmetry c1  #important for SAPT in psi4, default
}

set PROPERTIES_ORIGIN ["COM"]
properties('MP2/aug-cc-pvtz', properties = ['dipole'])
--------------------------------------------------------------------------

    Molecular point group: c1
  Charge       = 0
  Multiplicity = 1
  Basis Set: AUG-CC-PVTZ
    Blend: AUG-CC-PVTZ
  Basis Set: (AUG-CC-PVTZ AUX)
    Blend: AUG-CC-PVTZ-JKFIT

    Orbital Energies [Eh]
    ---------------------

    Doubly Occupied:

       1A    -91.984441     2A    -20.532936     3A    -15.619217
       4A    -11.369332     5A    -11.311728     6A    -11.249468
       7A    -11.249341     8A    -11.245020     9A    -11.225930
      10A    -11.223997    11A     -8.984920    12A     -6.666083
      13A     -6.665529    14A     -6.664638    15A     -1.388801
      16A     -1.264943    17A     -1.159554    18A     -1.038156
      19A     -1.011987    20A     -0.971090    21A     -0.912707
      22A     -0.825637    23A     -0.785297    24A     -0.725559
      25A     -0.688120    26A     -0.672813    27A     -0.632898
      28A     -0.610009    29A     -0.592668    30A     -0.580820
      31A     -0.576783    32A     -0.559999    33A     -0.557974
      34A     -0.522607    35A     -0.516207    36A     -0.503145
      37A     -0.472903    38A     -0.442512    39A     -0.433223
      40A     -0.340291    41A     -0.295593

  @DF-RHF Final Energy:  -797.31880424714132

   => Energetics <=

    Nuclear Repulsion Energy =            584.7339575639695113
    One-Electron Energy =               -2253.9557696015203874
    Two-Electron Energy =                 871.9030077904096743
    Total Energy =                       -797.3188042471413155
  Basis Set: (AUG-CC-PVTZ AUX)
    Blend: AUG-CC-PVTZ-RI
    Molecular point group: c1

    Geometry (in Angstrom), charge = 0, multiplicity = 1:

       Center              X                  Y                   Z               Mass
    ------------   -----------------  -----------------  -----------------  -----------------
         S           -1.000799717481    -1.709220270177    -0.012992677867    31.972071174400
         O            2.133618282519     1.644051729823    -0.058121677867    15.994914619570
         N            1.437080282519    -0.542900270177     0.001910322133    14.003074004430
         C           -2.066977717481     0.639864729823     0.012345322133    12.000000000000
         C            0.052485282519    -0.326220270177     0.004904322133    12.000000000000
         C           -0.655751717481     0.853891729823     0.015214322133    12.000000000000
         C           -2.396027717481    -0.693463270177    -0.000465677867    12.000000000000
         C           -3.070536717481     1.756479729823     0.023610322133    12.000000000000
         C            2.399755282519     0.443873729823    -0.023002677867    12.000000000000
         C            3.819908282519    -0.078796270177     0.047542322133    12.000000000000
         H           -0.165671917481     1.840418929823     0.022515922133     1.007825032230
         H           -3.382530717481    -1.140124270177    -0.002223677867     1.007825032230
         H            1.754433282519    -1.504378270177     0.032153322133     1.007825032230
         H           -2.951662717481     2.400372729823    -0.853527677867     1.007825032230
         H           -4.091285717481     1.364502729823     0.020591322133     1.007825032230
         H           -2.950605717481     2.383974729823     0.912417322133     1.007825032230
         H            3.935678282519    -1.054348270177    -0.432222677867     1.007825032230
         H            4.125379282519    -0.166837270177     1.094541322133     1.007825032230
         H            4.473217282519     0.644663729823    -0.440488677867     1.007825032230

  Basis Set: AUG-CC-PVTZ
    Blend: AUG-CC-PVTZ
  Basis Set: (AUG-CC-PVTZ AUX)
    Blend: AUG-CC-PVTZ-JKFIT
	 Reference Energy          =    -797.3188042471413155 [Eh]
	 Singles Energy            =      -0.0000000000000000 [Eh]
	 Same-Spin Energy          =      -0.4856053890341882 [Eh]
	 Opposite-Spin Energy      =      -1.5018558581961028 [Eh]
	 Correlation Energy        =      -1.9874612472302911 [Eh]
	 Total Energy              =    -799.3062654943715870 [Eh]

	 ================> DF-SCS-MP2 Energies <==================
	-----------------------------------------------------------
	 SCS Same-Spin Scale       =       0.3333333333333333 [-]
	 SCS Opposite-Spin Scale   =       1.2000000000000000 [-]
	 SCS Same-Spin Energy      =      -0.1618684630113960 [Eh]
	 SCS Opposite-Spin Energy  =      -1.8022270298353233 [Eh]
	 SCS Correlation Energy    =      -1.9640954928467194 [Eh]
	 SCS Total Energy          =    -799.2828997399880109 [Eh]
	-----------------------------------------------------------

  Dipole Moment: [D]
     X:     0.4344      Y:    -2.5239      Z:     0.1777     Total:     2.5671

*** Psi4 exiting successfully. Buy a developer a beer!
