                               Psi4 1.4a3.dev225

  ==> Input File <==

--------------------------------------------------------------------------
#psi4
#
memory 32 gb

molecule  {
0 1
  S       -1.0050790    -1.7376190    -0.0151270
  O        2.1293390     1.6156530    -0.0602560
  N        1.4328010    -0.5712990    -0.0002240
  C       -2.0712570     0.6114660     0.0102110
  C        0.0482060    -0.3546190     0.0027700
  C       -0.6600310     0.8254930     0.0130800
  C       -2.4003070    -0.7218620    -0.0026000
  C       -3.0748160     1.7280810     0.0214760
  C        2.3954760     0.4154750    -0.0251370
  C        3.8156290    -0.1071950     0.0454080
  H       -0.2678270     1.6149969     0.0189233
  H       -3.3868100    -1.1685230    -0.0043580
  H        1.7501540    -1.5327770     0.0300190
  H       -2.9559420     2.3719740    -0.8556620
  H       -4.0955650     1.3361040     0.0184570
  H       -2.9548850     2.3555760     0.9102830
  H        3.9313990    -1.0827470    -0.4343570
  H        4.1211000    -0.1952360     1.0924070
  H        4.4689380     0.6162650    -0.4426230
units angstrom
no_reorient  #important for SAPT in psi4, default
symmetry c1  #important for SAPT in psi4, default
}

set PROPERTIES_ORIGIN ["COM"]
properties('MP2/aug-cc-pvtz', properties = ['dipole'])
--------------------------------------------------------------------------

    Molecular point group: c1
  Charge       = 0
  Multiplicity = 1
  Basis Set: AUG-CC-PVTZ
    Blend: AUG-CC-PVTZ
  Basis Set: (AUG-CC-PVTZ AUX)
    Blend: AUG-CC-PVTZ-JKFIT

    Orbital Energies [Eh]
    ---------------------

    Doubly Occupied:

       1A    -91.984226     2A    -20.533445     3A    -15.619473
       4A    -11.369279     5A    -11.311959     6A    -11.249543
       7A    -11.248821     8A    -11.244486     9A    -11.226425
      10A    -11.200988    11A     -8.984728    12A     -6.665893
      13A     -6.665340    14A     -6.664462    15A     -1.388794
      16A     -1.265356    17A     -1.160783    18A     -1.038264
      19A     -1.014704    20A     -0.982900    21A     -0.913468
      22A     -0.827745    23A     -0.786844    24A     -0.756062
      25A     -0.690691    26A     -0.680845    27A     -0.632989
      28A     -0.612887    29A     -0.596056    30A     -0.584032
      31A     -0.581151    32A     -0.564969    33A     -0.558591
      34A     -0.529098    35A     -0.516105    36A     -0.503065
      37A     -0.473724    38A     -0.442480    39A     -0.436522
      40A     -0.340764    41A     -0.295635

  @DF-RHF Final Energy:  -797.28353956351475

   => Energetics <=

    Nuclear Repulsion Energy =            585.9558295437753941
    One-Electron Energy =               -2256.1915506368436581
    Two-Electron Energy =                 872.9521815295533997
    Total Energy =                       -797.2835395635147506
  Basis Set: (AUG-CC-PVTZ AUX)
    Blend: AUG-CC-PVTZ-RI
    Molecular point group: c1

    Geometry (in Angstrom), charge = 0, multiplicity = 1:

       Center              X                  Y                   Z               Mass
    ------------   -----------------  -----------------  -----------------  -----------------
         S           -1.000163485717    -1.707939540092    -0.012983198335    31.972071174400
         O            2.134254514283     1.645332459908    -0.058112198335    15.994914619570
         N            1.437716514283    -0.541619540092     0.001919801665    14.003074004430
         C           -2.066341485717     0.641145459908     0.012354801665    12.000000000000
         C            0.053121514283    -0.324939540092     0.004913801665    12.000000000000
         C           -0.655115485717     0.855172459908     0.015223801665    12.000000000000
         C           -2.395391485717    -0.692182540092    -0.000456198335    12.000000000000
         C           -3.069900485717     1.757760459908     0.023619801665    12.000000000000
         C            2.400391514283     0.445154459908    -0.022993198335    12.000000000000
         C            3.820544514283    -0.077515540092     0.047551801665    12.000000000000
         H           -0.262911485717     1.644676359908     0.021067101665     1.007825032230
         H           -3.381894485717    -1.138843540092    -0.002214198335     1.007825032230
         H            1.755069514283    -1.503097540092     0.032162801665     1.007825032230
         H           -2.951026485717     2.401653459908    -0.853518198335     1.007825032230
         H           -4.090649485717     1.365783459908     0.020600801665     1.007825032230
         H           -2.949969485717     2.385255459908     0.912426801665     1.007825032230
         H            3.936314514283    -1.053067540092    -0.432213198335     1.007825032230
         H            4.126015514283    -0.165556540092     1.094550801665     1.007825032230
         H            4.473853514283     0.645944459908    -0.440479198335     1.007825032230

  Basis Set: AUG-CC-PVTZ
    Blend: AUG-CC-PVTZ
  Basis Set: (AUG-CC-PVTZ AUX)
    Blend: AUG-CC-PVTZ-JKFIT
	 Reference Energy          =    -797.2835395635147506 [Eh]
	 Singles Energy            =      -0.0000000000000000 [Eh]
	 Same-Spin Energy          =      -0.4850055702164801 [Eh]
	 Opposite-Spin Energy      =      -1.5010766515860605 [Eh]
	 Correlation Energy        =      -1.9860822218025405 [Eh]
	 Total Energy              =    -799.2696217853173266 [Eh]

	 ================> DF-SCS-MP2 Energies <==================
	-----------------------------------------------------------
	 SCS Same-Spin Scale       =       0.3333333333333333 [-]
	 SCS Opposite-Spin Scale   =       1.2000000000000000 [-]
	 SCS Same-Spin Energy      =      -0.1616685234054933 [Eh]
	 SCS Opposite-Spin Energy  =      -1.8012919819032724 [Eh]
	 SCS Correlation Energy    =      -1.9629605053087658 [Eh]
	 SCS Total Energy          =    -799.2465000688234795 [Eh]
	-----------------------------------------------------------

  Dipole Moment: [D]
     X:     0.3913      Y:    -2.5754      Z:     0.1786     Total:     2.6110

*** Psi4 exiting successfully. Buy a developer a beer!
