                               Psi4 1.4a3.dev225

  ==> Input File <==

--------------------------------------------------------------------------
#psi4
#
memory 32 gb

molecule  {
0 1
  S       -1.0050790    -1.7376190    -0.0151270
  O        2.1293390     1.6156530    -0.0602560
  N        1.4328010    -0.5712990    -0.0002240
  C       -2.0712570     0.6114660     0.0102110
  C        0.2458006    -0.3855413     0.0023427
  C       -0.6600310     0.8254930     0.0130800
  C       -2.4003070    -0.7218620    -0.0026000
  C       -3.0748160     1.7280810     0.0214760
  C        2.3954760     0.4154750    -0.0251370
  C        3.8156290    -0.1071950     0.0454080
  H       -0.1788490     1.7941090     0.0202490
  H       -3.3868100    -1.1685230    -0.0043580
  H        1.7501540    -1.5327770     0.0300190
  H       -2.9559420     2.3719740    -0.8556620
  H       -4.0955650     1.3361040     0.0184570
  H       -2.9548850     2.3555760     0.9102830
  H        3.9313990    -1.0827470    -0.4343570
  H        4.1211000    -0.1952360     1.0924070
  H        4.4689380     0.6162650    -0.4426230
units angstrom
no_reorient  #important for SAPT in psi4, default
symmetry c1  #important for SAPT in psi4, default
}

set PROPERTIES_ORIGIN ["COM"]
properties('MP2/aug-cc-pvtz', properties = ['dipole'])
--------------------------------------------------------------------------

    Molecular point group: c1
  Charge       = 0
  Multiplicity = 1
  Basis Set: AUG-CC-PVTZ
    Blend: AUG-CC-PVTZ
  Basis Set: (AUG-CC-PVTZ AUX)
    Blend: AUG-CC-PVTZ-JKFIT

    Orbital Energies [Eh]
    ---------------------

    Doubly Occupied:

       1A    -91.978684     2A    -20.554082     3A    -15.638725
       4A    -11.385218     5A    -11.326416     6A    -11.261411
       7A    -11.240642     8A    -11.237514     9A    -11.222235
      10A    -11.221354    11A     -8.977275    12A     -6.658277
      13A     -6.657983    14A     -6.657074    15A     -1.420453
      16A     -1.338198    17A     -1.133546    18A     -1.056624
      19A     -1.005329    20A     -0.949388    21A     -0.919119
      22A     -0.855404    23A     -0.825809    24A     -0.722418
      25A     -0.687204    26A     -0.672265    27A     -0.662804
      28A     -0.619635    29A     -0.603565    30A     -0.591855
      31A     -0.585928    32A     -0.568320    33A     -0.559152
      34A     -0.515059    35A     -0.502881    36A     -0.496239
      37A     -0.459854    38A     -0.456112    39A     -0.429646
      40A     -0.329502    41A     -0.262409

  @DF-RHF Final Energy:  -797.25199255438451

   => Energetics <=

    Nuclear Repulsion Energy =            584.4950425283504956
    One-Electron Energy =               -2253.0028530480112750
    Two-Electron Energy =                 871.2558179652762647
    Total Energy =                       -797.2519925543845147
  Basis Set: (AUG-CC-PVTZ AUX)
    Blend: AUG-CC-PVTZ-RI
    Molecular point group: c1

    Geometry (in Angstrom), charge = 0, multiplicity = 1:

       Center              X                  Y                   Z               Mass
    ------------   -----------------  -----------------  -----------------  -----------------
         S           -1.016035530070    -1.706710480844    -0.012958743262    31.972071174400
         O            2.118382469930     1.646561519156    -0.058087743262    15.994914619570
         N            1.421844469930    -0.540390480844     0.001944256738    14.003074004430
         C           -2.082213530070     0.642374519156     0.012379256738    12.000000000000
         C            0.234844069930    -0.354632780844     0.004510956738    12.000000000000
         C           -0.670987530070     0.856401519156     0.015248256738    12.000000000000
         C           -2.411263530070    -0.690953480844    -0.000431743262    12.000000000000
         C           -3.085772530070     1.758989519156     0.023644256738    12.000000000000
         C            2.384519469930     0.446383519156    -0.022968743262    12.000000000000
         C            3.804672469930    -0.076286480844     0.047576256738    12.000000000000
         H           -0.189805530070     1.825017519156     0.022417256738     1.007825032230
         H           -3.397766530070    -1.137614480844    -0.002189743262     1.007825032230
         H            1.739197469930    -1.501868480844     0.032187256738     1.007825032230
         H           -2.966898530070     2.402882519156    -0.853493743262     1.007825032230
         H           -4.106521530070     1.367012519156     0.020625256738     1.007825032230
         H           -2.965841530070     2.386484519156     0.912451256738     1.007825032230
         H            3.920442469930    -1.051838480844    -0.432188743262     1.007825032230
         H            4.110143469930    -0.164327480844     1.094575256738     1.007825032230
         H            4.457981469930     0.647173519156    -0.440454743262     1.007825032230

  Basis Set: AUG-CC-PVTZ
    Blend: AUG-CC-PVTZ
  Basis Set: (AUG-CC-PVTZ AUX)
    Blend: AUG-CC-PVTZ-JKFIT
	 Reference Energy          =    -797.2519925543845147 [Eh]
	 Singles Energy            =      -0.0000000000000000 [Eh]
	 Same-Spin Energy          =      -0.4895793949614170 [Eh]
	 Opposite-Spin Energy      =      -1.5069545616356239 [Eh]
	 Correlation Energy        =      -1.9965339565970410 [Eh]
	 Total Energy              =    -799.2485265109816055 [Eh]

	 ================> DF-SCS-MP2 Energies <==================
	-----------------------------------------------------------
	 SCS Same-Spin Scale       =       0.3333333333333333 [-]
	 SCS Opposite-Spin Scale   =       1.2000000000000000 [-]
	 SCS Same-Spin Energy      =      -0.1631931316538057 [Eh]
	 SCS Opposite-Spin Energy  =      -1.8083454739627487 [Eh]
	 SCS Correlation Energy    =      -1.9715386056165543 [Eh]
	 SCS Total Energy          =    -799.2235311600010164 [Eh]
	-----------------------------------------------------------

  Dipole Moment: [D]
     X:     1.4520      Y:    -2.3995      Z:     0.1752     Total:     2.8101

*** Psi4 exiting successfully. Buy a developer a beer!
