                               Psi4 1.4a3.dev225

  ==> Input File <==

--------------------------------------------------------------------------
#psi4
#
memory 32 gb

molecule  {
0 1
  S       -1.0050790    -1.7376190    -0.0151270
  O        2.1293390     1.6156530    -0.0602560
  N        1.4328010    -0.5712990    -0.0002240
  C       -2.0712570     0.6114660     0.0102110
  C        0.0482060    -0.3546190     0.0027700
  C       -0.6600310     0.8254930     0.0130800
  C       -2.4003070    -0.7218620    -0.0026000
  C       -3.0748160     1.7280810     0.0214760
  C        2.3954760     0.4154750    -0.0251370
  C        3.8156290    -0.1071950     0.0454080
  H       -0.1788490     1.7941090     0.0202490
  H       -3.3868100    -1.1685230    -0.0043580
  H        1.7501540    -1.5327770     0.0300190
  H       -2.9559420     2.3719740    -0.8556620
  H       -4.0955650     1.3361040     0.0184570
  H       -2.9548850     2.3555760     0.9102830
  H        3.9313990    -1.0827470    -0.4343570
  H        4.1211000    -0.1952360     1.0924070
  H        4.4689380     0.6162650    -0.4426230
units angstrom
no_reorient  #important for SAPT in psi4, default
symmetry c1  #important for SAPT in psi4, default
}

set PROPERTIES_ORIGIN ["COM"]
properties('MP2/aug-cc-pvtz', properties = ['dipole'])
--------------------------------------------------------------------------

    Molecular point group: c1
  Charge       = 0
  Multiplicity = 1
  Basis Set: AUG-CC-PVTZ
    Blend: AUG-CC-PVTZ
  Basis Set: (AUG-CC-PVTZ AUX)
    Blend: AUG-CC-PVTZ-JKFIT

    Orbital Energies [Eh]
    ---------------------

    Doubly Occupied:

       1A    -91.984401     2A    -20.532979     3A    -15.619230
       4A    -11.369318     5A    -11.311709     6A    -11.249470
       7A    -11.249285     8A    -11.244943     9A    -11.225984
      10A    -11.222007    11A     -8.984883    12A     -6.666047
      13A     -6.665493    14A     -6.664603    15A     -1.388796
      16A     -1.264964    17A     -1.159605    18A     -1.038159
      19A     -1.012116    20A     -0.971837    21A     -0.912757
      22A     -0.825738    23A     -0.785345    24A     -0.727430
      25A     -0.688260    26A     -0.673818    27A     -0.632901
      28A     -0.610197    29A     -0.592863    30A     -0.580859
      31A     -0.577470    32A     -0.560627    33A     -0.558131
      34A     -0.523519    35A     -0.516179    36A     -0.503128
      37A     -0.472995    38A     -0.442501    39A     -0.433649
      40A     -0.340308    41A     -0.295581

  @DF-RHF Final Energy:  -797.31949665856325

   => Energetics <=

    Nuclear Repulsion Energy =            584.8314771429137409
    One-Electron Energy =               -2254.1417834783428589
    Two-Electron Energy =                 871.9908096768659789
    Total Energy =                       -797.3194966585632528
  Basis Set: (AUG-CC-PVTZ AUX)
    Blend: AUG-CC-PVTZ-RI
    Molecular point group: c1

    Geometry (in Angstrom), charge = 0, multiplicity = 1:

       Center              X                  Y                   Z               Mass
    ------------   -----------------  -----------------  -----------------  -----------------
         S           -1.000741878230    -1.709103840229    -0.012991815914    31.972071174400
         O            2.133676121770     1.644168159771    -0.058120815914    15.994914619570
         N            1.437138121770    -0.542783840229     0.001911184086    14.003074004430
         C           -2.066919878230     0.639981159771     0.012346184086    12.000000000000
         C            0.052543121770    -0.326103840229     0.004905184086    12.000000000000
         C           -0.655693878230     0.854008159771     0.015215184086    12.000000000000
         C           -2.395969878230    -0.693346840229    -0.000464815914    12.000000000000
         C           -3.070478878230     1.756596159771     0.023611184086    12.000000000000
         C            2.399813121770     0.443990159771    -0.023001815914    12.000000000000
         C            3.819966121770    -0.078679840229     0.047543184086    12.000000000000
         H           -0.174511878230     1.822624159771     0.022384184086     1.007825032230
         H           -3.382472878230    -1.140007840229    -0.002222815914     1.007825032230
         H            1.754491121770    -1.504261840229     0.032154184086     1.007825032230
         H           -2.951604878230     2.400489159771    -0.853526815914     1.007825032230
         H           -4.091227878230     1.364619159771     0.020592184086     1.007825032230
         H           -2.950547878230     2.384091159771     0.912418184086     1.007825032230
         H            3.935736121770    -1.054231840229    -0.432221815914     1.007825032230
         H            4.125437121770    -0.166720840229     1.094542184086     1.007825032230
         H            4.473275121770     0.644780159771    -0.440487815914     1.007825032230

  Basis Set: AUG-CC-PVTZ
    Blend: AUG-CC-PVTZ
  Basis Set: (AUG-CC-PVTZ AUX)
    Blend: AUG-CC-PVTZ-JKFIT
	 Reference Energy          =    -797.3194966585632528 [Eh]
	 Singles Energy            =      -0.0000000000000000 [Eh]
	 Same-Spin Energy          =      -0.4855264913833433 [Eh]
	 Opposite-Spin Energy      =      -1.5016946642923861 [Eh]
	 Correlation Energy        =      -1.9872211556757293 [Eh]
	 Total Energy              =    -799.3067178142389366 [Eh]

	 ================> DF-SCS-MP2 Energies <==================
	-----------------------------------------------------------
	 SCS Same-Spin Scale       =       0.3333333333333333 [-]
	 SCS Opposite-Spin Scale   =       1.2000000000000000 [-]
	 SCS Same-Spin Energy      =      -0.1618421637944478 [Eh]
	 SCS Opposite-Spin Energy  =      -1.8020335971508632 [Eh]
	 SCS Correlation Energy    =      -1.9638757609453110 [Eh]
	 SCS Total Energy          =    -799.2833724195085097 [Eh]
	-----------------------------------------------------------

  Dipole Moment: [D]
     X:     0.4298      Y:    -2.5276      Z:     0.1778     Total:     2.5701

*** Psi4 exiting successfully. Buy a developer a beer!
