                               Psi4 1.4a3.dev225

  ==> Input File <==

--------------------------------------------------------------------------
#psi4
#
memory 32 gb

molecule  {
0 1
  S       -1.0050790    -1.7376190    -0.0151270
  O        2.1293390     1.6156530    -0.0602560
  N        1.4328010    -0.5712990    -0.0002240
  C       -2.0712570     0.6114660     0.0102110
  C        0.0482060    -0.3546190     0.0027700
  C       -0.6600310     0.8254930     0.0130800
  C       -2.2591273    -0.7489508    -0.0029223
  C       -3.0748160     1.7280810     0.0214760
  C        2.3954760     0.4154750    -0.0251370
  C        3.8156290    -0.1071950     0.0454080
  H       -0.1788490     1.7941090     0.0202490
  H       -3.3868100    -1.1685230    -0.0043580
  H        1.7501540    -1.5327770     0.0300190
  H       -2.9559420     2.3719740    -0.8556620
  H       -4.0955650     1.3361040     0.0184570
  H       -2.9548850     2.3555760     0.9102830
  H        3.9313990    -1.0827470    -0.4343570
  H        4.1211000    -0.1952360     1.0924070
  H        4.4689380     0.6162650    -0.4426230
units angstrom
no_reorient  #important for SAPT in psi4, default
symmetry c1  #important for SAPT in psi4, default
}

set PROPERTIES_ORIGIN ["COM"]
properties('MP2/aug-cc-pvtz', properties = ['dipole'])
--------------------------------------------------------------------------

    Molecular point group: c1
  Charge       = 0
  Multiplicity = 1
  Basis Set: AUG-CC-PVTZ
    Blend: AUG-CC-PVTZ
  Basis Set: (AUG-CC-PVTZ AUX)
    Blend: AUG-CC-PVTZ-JKFIT

    Orbital Energies [Eh]
    ---------------------

    Doubly Occupied:

       1A    -91.987434     2A    -20.529625     3A    -15.615309
       4A    -11.366019     5A    -11.304085     6A    -11.249492
       7A    -11.247457     8A    -11.239697     9A    -11.228255
      10A    -11.221142    11A     -8.990899    12A     -6.672274
      13A     -6.671419    14A     -6.670362    15A     -1.385651
      16A     -1.262957    17A     -1.176324    18A     -1.037350
      19A     -1.022181    20A     -0.972111    21A     -0.912565
      22A     -0.823964    23A     -0.774838    24A     -0.724992
      25A     -0.685995    26A     -0.668733    27A     -0.630790
      28A     -0.612048    29A     -0.591986    30A     -0.583118
      31A     -0.570907    32A     -0.557771    33A     -0.545816
      34A     -0.531293    35A     -0.510438    36A     -0.502270
      37A     -0.486989    38A     -0.445627    39A     -0.430905
      40A     -0.343035    41A     -0.288870

  @DF-RHF Final Energy:  -797.29402543465301

   => Energetics <=

    Nuclear Repulsion Energy =            587.9784428161624419
    One-Electron Energy =               -2260.3989493799990669
    Two-Electron Energy =                 875.1264811291836168
    Total Energy =                       -797.2940254346530082
  Basis Set: (AUG-CC-PVTZ AUX)
    Blend: AUG-CC-PVTZ-RI
    Molecular point group: c1

    Geometry (in Angstrom), charge = 0, multiplicity = 1:

       Center              X                  Y                   Z               Mass
    ------------   -----------------  -----------------  -----------------  -----------------
         S           -1.011669065403    -1.707007190442    -0.012966870172    31.972071174400
         O            2.122748934597     1.646264809558    -0.058095870172    15.994914619570
         N            1.426210934597    -0.540687190442     0.001936129828    14.003074004430
         C           -2.077847065403     0.642077809558     0.012371129828    12.000000000000
         C            0.041615934597    -0.324007190442     0.004930129828    12.000000000000
         C           -0.666621065403     0.856104809558     0.015240129828    12.000000000000
         C           -2.265717365403    -0.718338990442    -0.000762170172    12.000000000000
         C           -3.081406065403     1.758692809558     0.023636129828    12.000000000000
         C            2.388885934597     0.446086809558    -0.022976870172    12.000000000000
         C            3.809038934597    -0.076583190442     0.047568129828    12.000000000000
         H           -0.185439065403     1.824720809558     0.022409129828     1.007825032230
         H           -3.393400065403    -1.137911190442    -0.002197870172     1.007825032230
         H            1.743563934597    -1.502165190442     0.032179129828     1.007825032230
         H           -2.962532065403     2.402585809558    -0.853501870172     1.007825032230
         H           -4.102155065403     1.366715809558     0.020617129828     1.007825032230
         H           -2.961475065403     2.386187809558     0.912443129828     1.007825032230
         H            3.924808934597    -1.052135190442    -0.432196870172     1.007825032230
         H            4.114509934597    -0.164624190442     1.094567129828     1.007825032230
         H            4.462347934597     0.646876809558    -0.440462870172     1.007825032230

  Basis Set: AUG-CC-PVTZ
    Blend: AUG-CC-PVTZ
  Basis Set: (AUG-CC-PVTZ AUX)
    Blend: AUG-CC-PVTZ-JKFIT
	 Reference Energy          =    -797.2940254346530082 [Eh]
	 Singles Energy            =      -0.0000000000000000 [Eh]
	 Same-Spin Energy          =      -0.4879358801069284 [Eh]
	 Opposite-Spin Energy      =      -1.5039750450426437 [Eh]
	 Correlation Energy        =      -1.9919109251495721 [Eh]
	 Total Energy              =    -799.2859363598025766 [Eh]

	 ================> DF-SCS-MP2 Energies <==================
	-----------------------------------------------------------
	 SCS Same-Spin Scale       =       0.3333333333333333 [-]
	 SCS Opposite-Spin Scale   =       1.2000000000000000 [-]
	 SCS Same-Spin Energy      =      -0.1626452933689761 [Eh]
	 SCS Opposite-Spin Energy  =      -1.8047700540511724 [Eh]
	 SCS Correlation Energy    =      -1.9674153474201486 [Eh]
	 SCS Total Energy          =    -799.2614407820731230 [Eh]
	-----------------------------------------------------------

  Dipole Moment: [D]
     X:     0.3321      Y:    -2.7259      Z:     0.1751     Total:     2.7516

*** Psi4 exiting successfully. Buy a developer a beer!
