                               Psi4 1.4a3.dev225

  ==> Input File <==

--------------------------------------------------------------------------
#psi4
#
memory 32 gb

molecule  {
0 1
  S       -1.0050790    -1.7376190    -0.0151270
  O        2.1293390     1.6156530    -0.0602560
  N        1.4328010    -0.5712990    -0.0002240
  C       -2.0712570     0.6114660     0.0102110
  C        0.0482060    -0.3546190     0.0027700
  C       -0.6600310     0.8254930     0.0130800
  C       -2.3769860    -0.7274013    -0.0026636
  C       -3.0748160     1.7280810     0.0214760
  C        2.3954760     0.4154750    -0.0251370
  C        3.8156290    -0.1071950     0.0454080
  H       -0.1788490     1.7941090     0.0202490
  H       -3.3868100    -1.1685230    -0.0043580
  H        1.7501540    -1.5327770     0.0300190
  H       -2.9559420     2.3719740    -0.8556620
  H       -4.0955650     1.3361040     0.0184570
  H       -2.9548850     2.3555760     0.9102830
  H        3.9313990    -1.0827470    -0.4343570
  H        4.1211000    -0.1952360     1.0924070
  H        4.4689380     0.6162650    -0.4426230
units angstrom
no_reorient  #important for SAPT in psi4, default
symmetry c1  #important for SAPT in psi4, default
}

set PROPERTIES_ORIGIN ["COM"]
properties('MP2/aug-cc-pvtz', properties = ['dipole'])
--------------------------------------------------------------------------

    Molecular point group: c1
  Charge       = 0
  Multiplicity = 1
  Basis Set: AUG-CC-PVTZ
    Blend: AUG-CC-PVTZ
  Basis Set: (AUG-CC-PVTZ AUX)
    Blend: AUG-CC-PVTZ-JKFIT

    Orbital Energies [Eh]
    ---------------------

    Doubly Occupied:

       1A    -91.985105     2A    -20.532434     3A    -15.618602
       4A    -11.368790     5A    -11.310451     6A    -11.249147
       7A    -11.249057     8A    -11.243847     9A    -11.226281
      10A    -11.221811    11A     -8.985970    12A     -6.667134
      13A     -6.666607    14A     -6.665667    15A     -1.388285
      16A     -1.264571    17A     -1.161880    18A     -1.037694
      19A     -1.013679    20A     -0.971934    21A     -0.912716
      22A     -0.825369    23A     -0.783489    24A     -0.726452
      25A     -0.687690    26A     -0.673014    27A     -0.632550
      28A     -0.610552    29A     -0.592813    30A     -0.581084
      31A     -0.575574    32A     -0.558825    33A     -0.557454
      34A     -0.524628    35A     -0.514071    36A     -0.504105
      37A     -0.477050    38A     -0.443041    39A     -0.433211
      40A     -0.340656    41A     -0.294495

  @DF-RHF Final Energy:  -797.31847060521113

   => Energetics <=

    Nuclear Repulsion Energy =            585.3253974313309982
    One-Electron Energy =               -2255.1321651968678452
    Two-Electron Energy =                 872.4882971603256010
    Total Energy =                       -797.3184706052111324
  Basis Set: (AUG-CC-PVTZ AUX)
    Blend: AUG-CC-PVTZ-RI
    Molecular point group: c1

    Geometry (in Angstrom), charge = 0, multiplicity = 1:

       Center              X                  Y                   Z               Mass
    ------------   -----------------  -----------------  -----------------  -----------------
         S           -1.002546903542    -1.708675103180    -0.012986893329    31.972071174400
         O            2.131871096458     1.644596896820    -0.058115893329    15.994914619570
         N            1.435333096458    -0.542355103180     0.001916106671    14.003074004430
         C           -2.068724903542     0.640409896820     0.012351106671    12.000000000000
         C            0.050738096458    -0.325675103180     0.004910106671    12.000000000000
         C           -0.657498903542     0.854436896820     0.015220106671    12.000000000000
         C           -2.374453903542    -0.698457403180    -0.000523493329    12.000000000000
         C           -3.072283903542     1.757024896820     0.023616106671    12.000000000000
         C            2.398008096458     0.444418896820    -0.022996893329    12.000000000000
         C            3.818161096458    -0.078251103180     0.047548106671    12.000000000000
         H           -0.176316903542     1.823052896820     0.022389106671     1.007825032230
         H           -3.384277903542    -1.139579103180    -0.002217893329     1.007825032230
         H            1.752686096458    -1.503833103180     0.032159106671     1.007825032230
         H           -2.953409903542     2.400917896820    -0.853521893329     1.007825032230
         H           -4.093032903542     1.365047896820     0.020597106671     1.007825032230
         H           -2.952352903542     2.384519896820     0.912423106671     1.007825032230
         H            3.933931096458    -1.053803103180    -0.432216893329     1.007825032230
         H            4.123632096458    -0.166292103180     1.094547106671     1.007825032230
         H            4.471470096458     0.645208896820    -0.440482893329     1.007825032230

  Basis Set: AUG-CC-PVTZ
    Blend: AUG-CC-PVTZ
  Basis Set: (AUG-CC-PVTZ AUX)
    Blend: AUG-CC-PVTZ-JKFIT
	 Reference Energy          =    -797.3184706052111324 [Eh]
	 Singles Energy            =      -0.0000000000000000 [Eh]
	 Same-Spin Energy          =      -0.4858393367669059 [Eh]
	 Opposite-Spin Energy      =      -1.5018950029792655 [Eh]
	 Correlation Energy        =      -1.9877343397461713 [Eh]
	 Total Energy              =    -799.3062049449573578 [Eh]

	 ================> DF-SCS-MP2 Energies <==================
	-----------------------------------------------------------
	 SCS Same-Spin Scale       =       0.3333333333333333 [-]
	 SCS Opposite-Spin Scale   =       1.2000000000000000 [-]
	 SCS Same-Spin Energy      =      -0.1619464455889686 [Eh]
	 SCS Opposite-Spin Energy  =      -1.8022740035751186 [Eh]
	 SCS Correlation Energy    =      -1.9642204491640871 [Eh]
	 SCS Total Energy          =    -799.2826910543751637 [Eh]
	-----------------------------------------------------------

  Dipole Moment: [D]
     X:     0.4145      Y:    -2.5631      Z:     0.1774     Total:     2.6024

*** Psi4 exiting successfully. Buy a developer a beer!
