                               Psi4 1.4a3.dev225

  ==> Input File <==

--------------------------------------------------------------------------
#psi4
#
memory 32 gb

molecule  {
0 1
  S       -1.0050790    -1.7376190    -0.0151270
  O        2.1293390     1.6156530    -0.0602560
  N        1.4328010    -0.5712990    -0.0002240
  C       -2.0712570     0.6114660     0.0102110
  C        0.0482060    -0.3546190     0.0027700
  C       -0.6600310     0.8254930     0.0130800
  C       -2.4164755    -0.7100910    -0.0024548
  C       -3.0748160     1.7280810     0.0214760
  C        2.3954760     0.4154750    -0.0251370
  C        3.8156290    -0.1071950     0.0454080
  H       -0.1788490     1.7941090     0.0202490
  H       -3.3868100    -1.1685230    -0.0043580
  H        1.7501540    -1.5327770     0.0300190
  H       -2.9559420     2.3719740    -0.8556620
  H       -4.0955650     1.3361040     0.0184570
  H       -2.9548850     2.3555760     0.9102830
  H        3.9313990    -1.0827470    -0.4343570
  H        4.1211000    -0.1952360     1.0924070
  H        4.4689380     0.6162650    -0.4426230
units angstrom
no_reorient  #important for SAPT in psi4, default
symmetry c1  #important for SAPT in psi4, default
}

set PROPERTIES_ORIGIN ["COM"]
properties('MP2/aug-cc-pvtz', properties = ['dipole'])
--------------------------------------------------------------------------

    Molecular point group: c1
  Charge       = 0
  Multiplicity = 1
  Basis Set: AUG-CC-PVTZ
    Blend: AUG-CC-PVTZ
  Basis Set: (AUG-CC-PVTZ AUX)
    Blend: AUG-CC-PVTZ-JKFIT

    Orbital Energies [Eh]
    ---------------------

    Doubly Occupied:

       1A    -91.983474     2A    -20.533352     3A    -15.619615
       4A    -11.369651     5A    -11.312575     6A    -11.249672
       7A    -11.249386     8A    -11.244887     9A    -11.225784
      10A    -11.222010    11A     -8.983697    12A     -6.664866
      13A     -6.664265    14A     -6.663419    15A     -1.389127
      16A     -1.265206    17A     -1.158589    18A     -1.038864
      19A     -1.010782    20A     -0.971417    21A     -0.913296
      22A     -0.826337    23A     -0.786482    24A     -0.728196
      25A     -0.688550    26A     -0.674357    27A     -0.633113
      28A     -0.609946    29A     -0.592806    30A     -0.580909
      31A     -0.579126    32A     -0.561809    33A     -0.558290
      34A     -0.523066    35A     -0.516793    36A     -0.502443
      37A     -0.469705    38A     -0.442198    39A     -0.433912
      40A     -0.340240    41A     -0.297119

  @DF-RHF Final Energy:  -797.31976974551333

   => Energetics <=

    Nuclear Repulsion Energy =            584.5434229726895410
    One-Electron Energy =               -2253.5677233222049836
    Two-Electron Energy =                 871.7045306040021160
    Total Energy =                       -797.3197697455133266
  Basis Set: (AUG-CC-PVTZ AUX)
    Blend: AUG-CC-PVTZ-RI
    Molecular point group: c1

    Geometry (in Angstrom), charge = 0, multiplicity = 1:

       Center              X                  Y                   Z               Mass
    ------------   -----------------  -----------------  -----------------  -----------------
         S           -0.999490450257    -1.710014905490    -0.013003054269    31.972071174400
         O            2.134927549743     1.643257094510    -0.058132054269    15.994914619570
         N            1.438389549743    -0.543694905490     0.001899945731    14.003074004430
         C           -2.065668450257     0.639070094510     0.012334945731    12.000000000000
         C            0.053794549743    -0.327014905490     0.004893945731    12.000000000000
         C           -0.654442450257     0.853097094510     0.015203945731    12.000000000000
         C           -2.410886950257    -0.682486905490    -0.000330854269    12.000000000000
         C           -3.069227450257     1.755685094510     0.023599945731    12.000000000000
         C            2.401064549743     0.443079094510    -0.023013054269    12.000000000000
         C            3.821217549743    -0.079590905490     0.047531945731    12.000000000000
         H           -0.173260450257     1.821713094510     0.022372945731     1.007825032230
         H           -3.381221450257    -1.140918905490    -0.002234054269     1.007825032230
         H            1.755742549743    -1.505172905490     0.032142945731     1.007825032230
         H           -2.950353450257     2.399578094510    -0.853538054269     1.007825032230
         H           -4.089976450257     1.363708094510     0.020580945731     1.007825032230
         H           -2.949296450257     2.383180094510     0.912406945731     1.007825032230
         H            3.936987549743    -1.055142905490    -0.432233054269     1.007825032230
         H            4.126688549743    -0.167631905490     1.094530945731     1.007825032230
         H            4.474526549743     0.643869094510    -0.440499054269     1.007825032230

  Basis Set: AUG-CC-PVTZ
    Blend: AUG-CC-PVTZ
  Basis Set: (AUG-CC-PVTZ AUX)
    Blend: AUG-CC-PVTZ-JKFIT
	 Reference Energy          =    -797.3197697455133266 [Eh]
	 Singles Energy            =      -0.0000000000000000 [Eh]
	 Same-Spin Energy          =      -0.4851724240148776 [Eh]
	 Opposite-Spin Energy      =      -1.5014232713589657 [Eh]
	 Correlation Energy        =      -1.9865956953738433 [Eh]
	 Total Energy              =    -799.3063654408871344 [Eh]

	 ================> DF-SCS-MP2 Energies <==================
	-----------------------------------------------------------
	 SCS Same-Spin Scale       =       0.3333333333333333 [-]
	 SCS Opposite-Spin Scale   =       1.2000000000000000 [-]
	 SCS Same-Spin Energy      =      -0.1617241413382925 [Eh]
	 SCS Opposite-Spin Energy  =      -1.8017079256307587 [Eh]
	 SCS Correlation Energy    =      -1.9634320669690513 [Eh]
	 SCS Total Energy          =    -799.2832018124823890 [Eh]
	-----------------------------------------------------------

  Dipole Moment: [D]
     X:     0.4359      Y:    -2.4963      Z:     0.1782     Total:     2.5403

*** Psi4 exiting successfully. Buy a developer a beer!
