                               Psi4 1.3.2 release

  ==> Input File <==

--------------------------------------------------------------------------
#psi4
#
memory 32 gb

molecule  {
0 1
  C        1.1630151     1.5294587     0.0000079
  C        2.4325270     0.7073060     0.0000070
  C        2.4325270    -0.7073070    -0.0000060
  C        1.2416220    -1.4034370     0.0000270
  C        0.0000000    -0.7164940    -0.0000890
  C       -1.2416220    -1.4034360     0.0000440
  C       -2.4325280    -0.7073070    -0.0000350
  C       -2.4325270     0.7073060     0.0000360
  C       -1.2416230     1.4034370    -0.0000280
  C        0.0000000     0.7164930     0.0000370
  H        1.2406550     2.4926530    -0.0000150
  H        3.3769820     1.2466390     0.0000290
  H        3.3769830    -1.2466390     0.0000450
  H        1.2406520    -2.4926530    -0.0000080
  H       -1.2406510    -2.4926520    -0.0000430
  H       -3.3769830    -1.2466380     0.0000750
  H       -3.3769830     1.2466370     0.0000000
  H       -1.2406540     2.4926530     0.0000170
units angstrom
no_reorient  #important for SAPT in psi4, default
symmetry c1  #important for SAPT in psi4, default
}

set PROPERTIES_ORIGIN ["COM"]
properties('MP2/aug-cc-pvtz', properties = ['dipole'])
--------------------------------------------------------------------------

    Molecular point group: c1
  Charge       = 0
  Multiplicity = 1
  Basis Set: AUG-CC-PVTZ
    Blend: AUG-CC-PVTZ
  Basis Set: (AUG-CC-PVTZ AUX)
    Blend: AUG-CC-PVTZ-JKFIT

    Orbital Energies [Eh]
    ---------------------

    Doubly Occupied:

       1A    -11.253614     2A    -11.249758     3A    -11.248235
       4A    -11.244654     5A    -11.242973     6A    -11.240182
       7A    -11.239858     8A    -11.237866     9A    -11.237019
      10A    -11.235836    11A     -1.172614    12A     -1.100866
      13A     -1.052879    14A     -1.006088    15A     -0.973412
      16A     -0.858534    17A     -0.831105    18A     -0.820489
      19A     -0.713835    20A     -0.698068    21A     -0.669681
      22A     -0.645514    23A     -0.613071    24A     -0.591338
      25A     -0.574368    26A     -0.552358    27A     -0.532895
      28A     -0.530633    29A     -0.491147    30A     -0.472008
      31A     -0.441937    32A     -0.385657    33A     -0.320382
      34A     -0.279094

  @DF-RHF Final Energy:  -383.44312158494165

   => Energetics <=

    Nuclear Repulsion Energy =            455.6628850457527165
    One-Electron Energy =               -1420.6960768724582067
    Two-Electron Energy =                 581.5900702417637831
    Total Energy =                       -383.4431215849416503
  Basis Set: (AUG-CC-PVTZ AUX)
    Blend: AUG-CC-PVTZ-RI
    Molecular point group: c1

    Geometry (in Angstrom), charge = 0, multiplicity = 1:

       Center              X                  Y                   Z               Mass
    ------------   -----------------  -----------------  -----------------  -----------------
         C            1.170381074065     1.517650128278     0.000007028688    12.000000000000
         C            2.439892974065     0.695497428278     0.000006128688    12.000000000000
         C            2.439892974065    -0.719115571722    -0.000006871312    12.000000000000
         C            1.248987974065    -1.415245571722     0.000026128688    12.000000000000
         C            0.007365974065    -0.728302571722    -0.000089871312    12.000000000000
         C           -1.234256025935    -1.415244571722     0.000043128688    12.000000000000
         C           -2.425162025935    -0.719115571722    -0.000035871312    12.000000000000
         C           -2.425161025935     0.695497428278     0.000035128688    12.000000000000
         C           -1.234257025935     1.391628428278    -0.000028871312    12.000000000000
         C            0.007365974065     0.704684428278     0.000036128688    12.000000000000
         H            1.248020974065     2.480844428278    -0.000015871312     1.007825032230
         H            3.384347974065     1.234830428278     0.000028128688     1.007825032230
         H            3.384348974065    -1.258447571722     0.000044128688     1.007825032230
         H            1.248017974065    -2.504461571722    -0.000008871312     1.007825032230
         H           -1.233285025935    -2.504460571722    -0.000043871312     1.007825032230
         H           -3.369617025935    -1.258446571722     0.000074128688     1.007825032230
         H           -3.369617025935     1.234828428278    -0.000000871312     1.007825032230
         H           -1.233288025935     2.480844428278     0.000016128688     1.007825032230

  Basis Set: AUG-CC-PVTZ
    Blend: AUG-CC-PVTZ
  Basis Set: (AUG-CC-PVTZ AUX)
    Blend: AUG-CC-PVTZ-JKFIT
	 Reference Energy          =    -383.4431215849416503 [Eh]
	 Singles Energy            =      -0.0000000000000000 [Eh]
	 Same-Spin Energy          =      -0.4355498388347600 [Eh]
	 Opposite-Spin Energy      =      -1.3513286380956990 [Eh]
	 Correlation Energy        =      -1.7868784769304589 [Eh]
	 Total Energy              =    -385.2300000618720901 [Eh]

	 ================> DF-SCS-MP2 Energies <==================
	-----------------------------------------------------------
	 SCS Same-Spin Scale       =       0.3333333333333333 [-]
	 SCS Opposite-Spin Scale   =       1.2000000000000000 [-]
	 SCS Same-Spin Energy      =      -0.1451832796115866 [Eh]
	 SCS Opposite-Spin Energy  =      -1.6215943657148388 [Eh]
	 SCS Correlation Energy    =      -1.7667776453264254 [Eh]
	 SCS Total Energy          =    -385.2098992302680927 [Eh]
	-----------------------------------------------------------

  Dipole Moment: [D]
     X:     0.0108      Y:     0.0302      Z:     0.0000     Total:     0.0320

*** Psi4 exiting successfully. Buy a developer a beer!
