                               Psi4 1.3.2 release

  ==> Input File <==

--------------------------------------------------------------------------
#psi4
#
memory 32 gb

molecule  {
0 1
  C        1.2416220     1.4034370    -0.0000100
  C        2.4325270     0.7073060     0.0000070
  C        2.4325270    -0.7073070    -0.0000060
  C        1.2416220    -1.4034370     0.0000270
  C        0.0000000    -0.7164940    -0.0000890
  C       -1.2416220    -1.4034360     0.0000440
  C       -2.4325280    -0.7073070    -0.0000350
  C       -2.4325270     0.7073060     0.0000360
  C       -1.2416230     1.4034370    -0.0000280
  C        0.0247304     0.6735795     0.0000363
  H        1.2406550     2.4926530    -0.0000150
  H        3.3769820     1.2466390     0.0000290
  H        3.3769830    -1.2466390     0.0000450
  H        1.2406520    -2.4926530    -0.0000080
  H       -1.2406510    -2.4926520    -0.0000430
  H       -3.3769830    -1.2466380     0.0000750
  H       -3.3769830     1.2466370     0.0000000
  H       -1.2406540     2.4926530     0.0000170
units angstrom
no_reorient  #important for SAPT in psi4, default
symmetry c1  #important for SAPT in psi4, default
}

set PROPERTIES_ORIGIN ["COM"]
properties('MP2/aug-cc-pvtz', properties = ['dipole'])
--------------------------------------------------------------------------

    Molecular point group: c1
  Charge       = 0
  Multiplicity = 1
  Basis Set: AUG-CC-PVTZ
    Blend: AUG-CC-PVTZ
  Basis Set: (AUG-CC-PVTZ AUX)
    Blend: AUG-CC-PVTZ-JKFIT

    Orbital Energies [Eh]
    ---------------------

    Doubly Occupied:

       1A    -11.245832     2A    -11.242628     3A    -11.241950
       4A    -11.239677     5A    -11.239622     6A    -11.239328
       7A    -11.238366     8A    -11.238186     9A    -11.237321
      10A    -11.237295    11A     -1.178115    12A     -1.108235
      13A     -1.047040    14A     -1.010856    15A     -0.978543
      16A     -0.853134    17A     -0.832802    18A     -0.817392
      19A     -0.703757    20A     -0.698970    21A     -0.675031
      22A     -0.624737    23A     -0.616054    24A     -0.583297
      25A     -0.579218    26A     -0.562666    27A     -0.534985
      28A     -0.525867    29A     -0.487417    30A     -0.479519
      31A     -0.448124    32A     -0.381733    33A     -0.324194
      34A     -0.288948

  @DF-RHF Final Energy:  -383.47453305690624

   => Energetics <=

    Nuclear Repulsion Energy =            457.6291035209570168
    One-Electron Energy =               -1424.7256013491914928
    Two-Electron Energy =                 583.6219647713282939
    Total Energy =                       -383.4745330569062389
  Basis Set: (AUG-CC-PVTZ AUX)
    Blend: AUG-CC-PVTZ-RI
    Molecular point group: c1

    Geometry (in Angstrom), charge = 0, multiplicity = 1:

       Center              X                  Y                   Z               Mass
    ------------   -----------------  -----------------  -----------------  -----------------
         C            1.239304837868     1.407458361420    -0.000009128415    12.000000000000
         C            2.430209837868     0.711327361420     0.000007871585    12.000000000000
         C            2.430209837868    -0.703285638580    -0.000005128415    12.000000000000
         C            1.239304837868    -1.399415638580     0.000027871585    12.000000000000
         C           -0.002317162132    -0.712472638580    -0.000088128415    12.000000000000
         C           -1.243939162132    -1.399414638580     0.000044871585    12.000000000000
         C           -2.434845162132    -0.703285638580    -0.000034128415    12.000000000000
         C           -2.434844162132     0.711327361420     0.000036871585    12.000000000000
         C           -1.243940162132     1.407458361420    -0.000027128415    12.000000000000
         C            0.022413237868     0.677600861420     0.000037171585    12.000000000000
         H            1.238337837868     2.496674361420    -0.000014128415     1.007825032230
         H            3.374664837868     1.250660361420     0.000029871585     1.007825032230
         H            3.374665837868    -1.242617638580     0.000045871585     1.007825032230
         H            1.238334837868    -2.488631638580    -0.000007128415     1.007825032230
         H           -1.242968162132    -2.488630638580    -0.000042128415     1.007825032230
         H           -3.379300162132    -1.242616638580     0.000075871585     1.007825032230
         H           -3.379300162132     1.250658361420     0.000000871585     1.007825032230
         H           -1.242971162132     2.496674361420     0.000017871585     1.007825032230

  Basis Set: AUG-CC-PVTZ
    Blend: AUG-CC-PVTZ
  Basis Set: (AUG-CC-PVTZ AUX)
    Blend: AUG-CC-PVTZ-JKFIT
	 Reference Energy          =    -383.4745330569062389 [Eh]
	 Singles Energy            =      -0.0000000000000000 [Eh]
	 Same-Spin Energy          =      -0.4336156302188178 [Eh]
	 Opposite-Spin Energy      =      -1.3477735360042491 [Eh]
	 Correlation Energy        =      -1.7813891662230668 [Eh]
	 Total Energy              =    -385.2559222231292893 [Eh]

	 ================> DF-SCS-MP2 Energies <==================
	-----------------------------------------------------------
	 SCS Same-Spin Scale       =       0.3333333333333333 [-]
	 SCS Opposite-Spin Scale   =       1.2000000000000000 [-]
	 SCS Same-Spin Energy      =      -0.1445385434062726 [Eh]
	 SCS Opposite-Spin Energy  =      -1.6173282432050988 [Eh]
	 SCS Correlation Energy    =      -1.7618667866113715 [Eh]
	 SCS Total Energy          =    -385.2363998435176313 [Eh]
	-----------------------------------------------------------

  Dipole Moment: [D]
     X:     0.0126      Y:     0.0337      Z:     0.0000     Total:     0.0360

*** Psi4 exiting successfully. Buy a developer a beer!
