                               Psi4 1.4a3.dev225

  ==> Input File <==

--------------------------------------------------------------------------
#psi4
#
memory 32 gb

molecule  {
0 1
  C       -1.2414900    -1.4034410    -0.0038760
  C       -2.4324190    -0.7073040     0.0029100
  C       -2.4324190     0.7073040    -0.0029100
  C       -1.2414900     1.4034410     0.0038760
  C        0.0000000     0.7161900    -0.0087120
  C        1.2414900     1.4034410     0.0038760
  C        2.4324190     0.7073040    -0.0029100
  C        2.4324190    -0.7073040     0.0029100
  C        1.2414900    -1.4034410    -0.0038760
  C        0.0000000    -0.7361885     0.0089553
  H       -1.2405800    -2.4925790     0.0017850
  H       -3.3771300    -1.2461620    -0.0033580
  H       -3.3771300     1.2461620     0.0033580
  H       -1.2405800     2.4925790    -0.0017850
  H        1.2405800     2.4925790    -0.0017850
  H        3.3771300     1.2461620     0.0033580
  H        3.3771300    -1.2461620    -0.0033580
  H        1.2405800    -2.4925790     0.0017850
units angstrom
no_reorient  #important for SAPT in psi4, default
symmetry c1  #important for SAPT in psi4, default
}

set PROPERTIES_ORIGIN ["COM"]
properties('MP2/aug-cc-pvtz', properties = ['dipole'])
--------------------------------------------------------------------------

    Molecular point group: c1
  Charge       = 0
  Multiplicity = 1
  Basis Set: AUG-CC-PVTZ
    Blend: AUG-CC-PVTZ
  Basis Set: (AUG-CC-PVTZ AUX)
    Blend: AUG-CC-PVTZ-JKFIT

    Orbital Energies [Eh]
    ---------------------

    Doubly Occupied:

       1A    -11.248145     2A    -11.246257     3A    -11.240099
       4A    -11.240061     5A    -11.239579     6A    -11.239520
       7A    -11.238574     8A    -11.238527     9A    -11.237988
      10A    -11.237953    11A     -1.174835    12A     -1.108720
      13A     -1.052097    14A     -1.007550    15A     -0.980800
      16A     -0.855453    17A     -0.837266    18A     -0.808237
      19A     -0.708637    20A     -0.698067    21A     -0.677675
      22A     -0.623629    23A     -0.609310    24A     -0.585671
      25A     -0.583128    26A     -0.564246    27A     -0.532990
      28A     -0.525163    29A     -0.491569    30A     -0.474897
      31A     -0.448468    32A     -0.388631    33A     -0.318571
      34A     -0.288511

  @DF-RHF Final Energy:  -383.47541574153433

   => Energetics <=

    Nuclear Repulsion Energy =            457.1564648321740947
    One-Electron Energy =               -1423.7621164518782280
    Two-Electron Energy =                 583.1302358781697421
    Total Energy =                       -383.4754157415343343
  Basis Set: (AUG-CC-PVTZ AUX)
    Blend: AUG-CC-PVTZ-RI
    Molecular point group: c1

    Geometry (in Angstrom), charge = 0, multiplicity = 1:

       Center              X                  Y                   Z               Mass
    ------------   -----------------  -----------------  -----------------  -----------------
         C           -1.241490000000    -1.401567057104    -0.003898798225    12.000000000000
         C           -2.432419000000    -0.705430057104     0.002887201775    12.000000000000
         C           -2.432419000000     0.709177942896    -0.002932798225    12.000000000000
         C           -1.241490000000     1.405314942896     0.003853201775    12.000000000000
         C           -0.000000000000     0.718063942896    -0.008734798225    12.000000000000
         C            1.241490000000     1.405314942896     0.003853201775    12.000000000000
         C            2.432419000000     0.709177942896    -0.002932798225    12.000000000000
         C            2.432419000000    -0.705430057104     0.002887201775    12.000000000000
         C            1.241490000000    -1.401567057104    -0.003898798225    12.000000000000
         C           -0.000000000000    -0.734314557104     0.008932501775    12.000000000000
         H           -1.240580000000    -2.490705057104     0.001762201775     1.007825032230
         H           -3.377130000000    -1.244288057104    -0.003380798225     1.007825032230
         H           -3.377130000000     1.248035942896     0.003335201775     1.007825032230
         H           -1.240580000000     2.494452942896    -0.001807798225     1.007825032230
         H            1.240580000000     2.494452942896    -0.001807798225     1.007825032230
         H            3.377130000000     1.248035942896     0.003335201775     1.007825032230
         H            3.377130000000    -1.244288057104    -0.003380798225     1.007825032230
         H            1.240580000000    -2.490705057104     0.001762201775     1.007825032230

  Basis Set: AUG-CC-PVTZ
    Blend: AUG-CC-PVTZ
  Basis Set: (AUG-CC-PVTZ AUX)
    Blend: AUG-CC-PVTZ-JKFIT
	 Reference Energy          =    -383.4754157415343343 [Eh]
	 Singles Energy            =      -0.0000000000000000 [Eh]
	 Same-Spin Energy          =      -0.4346034183241258 [Eh]
	 Opposite-Spin Energy      =      -1.3481449779863288 [Eh]
	 Correlation Energy        =      -1.7827483963104547 [Eh]
	 Total Energy              =    -385.2581641378448012 [Eh]

	 ================> DF-SCS-MP2 Energies <==================
	-----------------------------------------------------------
	 SCS Same-Spin Scale       =       0.3333333333333333 [-]
	 SCS Opposite-Spin Scale   =       1.2000000000000000 [-]
	 SCS Same-Spin Energy      =      -0.1448678061080419 [Eh]
	 SCS Opposite-Spin Energy  =      -1.6177739735835945 [Eh]
	 SCS Correlation Energy    =      -1.7626417796916365 [Eh]
	 SCS Total Energy          =    -385.2380575212259828 [Eh]
	-----------------------------------------------------------

  Dipole Moment: [D]
     X:    -0.0000      Y:     0.0167      Z:     0.0001     Total:     0.0167

*** Psi4 exiting successfully. Buy a developer a beer!
