                               Psi4 1.3.2 release

  ==> Input File <==

--------------------------------------------------------------------------
#psi4
#
memory 32 gb

molecule  {
0 1
  C        1.2416220     1.4034370    -0.0000100
  C        2.4325270     0.7073060     0.0000070
  C        2.4325270    -0.7073070    -0.0000060
  C        1.2416220    -1.4034370     0.0000270
  C        0.0000000    -0.7164940    -0.0000890
  C       -1.2416220    -1.4034360     0.0000440
  C       -2.4325280    -0.7073070    -0.0000350
  C       -2.4325270     0.7073060     0.0000360
  C       -1.2416230     1.4034370    -0.0000280
  C        0.0121779     0.6949283     0.0000367
  H        1.2406550     2.4926530    -0.0000150
  H        3.3769820     1.2466390     0.0000290
  H        3.3769830    -1.2466390     0.0000450
  H        1.2406520    -2.4926530    -0.0000080
  H       -1.2406510    -2.4926520    -0.0000430
  H       -3.3769830    -1.2466380     0.0000750
  H       -3.3769830     1.2466370     0.0000000
  H       -1.2406540     2.4926530     0.0000170
units angstrom
no_reorient  #important for SAPT in psi4, default
symmetry c1  #important for SAPT in psi4, default
}

set PROPERTIES_ORIGIN ["COM"]
properties('MP2/aug-cc-pvtz', properties = ['dipole'])
--------------------------------------------------------------------------

    Molecular point group: c1
  Charge       = 0
  Multiplicity = 1
  Basis Set: AUG-CC-PVTZ
    Blend: AUG-CC-PVTZ
  Basis Set: (AUG-CC-PVTZ AUX)
    Blend: AUG-CC-PVTZ-JKFIT

    Orbital Energies [Eh]
    ---------------------

    Doubly Occupied:

       1A    -11.246166     2A    -11.244019     3A    -11.241179
       4A    -11.239792     5A    -11.239748     6A    -11.239517
       7A    -11.238558     8A    -11.238411     9A    -11.237642
      10A    -11.237578    11A     -1.176812    12A     -1.108385
      13A     -1.048666    14A     -1.009678    15A     -0.979318
      16A     -0.853809    17A     -0.834421    18A     -0.814275
      19A     -0.705156    20A     -0.698820    21A     -0.675935
      22A     -0.624164    23A     -0.613884    24A     -0.583315
      25A     -0.581402    26A     -0.563215    27A     -0.534171
      28A     -0.525646    29A     -0.486541    30A     -0.480866
      31A     -0.448239    32A     -0.384040    33A     -0.322155
      34A     -0.288819

  @DF-RHF Final Energy:  -383.47628626790703

   => Energetics <=

    Nuclear Repulsion Energy =            457.4574529682300295
    One-Electron Energy =               -1424.3787909160073468
    Two-Electron Energy =                 583.4450516798702893
    Total Energy =                       -383.4762862679070849
  Basis Set: (AUG-CC-PVTZ AUX)
    Blend: AUG-CC-PVTZ-RI
    Molecular point group: c1

    Geometry (in Angstrom), charge = 0, multiplicity = 1:

       Center              X                  Y                   Z               Mass
    ------------   -----------------  -----------------  -----------------  -----------------
         C            1.240481059495     1.405457889780    -0.000009165896    12.000000000000
         C            2.431386059495     0.709326889780     0.000007834104    12.000000000000
         C            2.431386059495    -0.705286110220    -0.000005165896    12.000000000000
         C            1.240481059495    -1.401416110220     0.000027834104    12.000000000000
         C           -0.001140940505    -0.714473110220    -0.000088165896    12.000000000000
         C           -1.242762940505    -1.401415110220     0.000044834104    12.000000000000
         C           -2.433668940505    -0.705286110220    -0.000034165896    12.000000000000
         C           -2.433667940505     0.709326889780     0.000036834104    12.000000000000
         C           -1.242763940505     1.405457889780    -0.000027165896    12.000000000000
         C            0.011036959495     0.696949189780     0.000037534104    12.000000000000
         H            1.239514059495     2.494673889780    -0.000014165896     1.007825032230
         H            3.375841059495     1.248659889780     0.000029834104     1.007825032230
         H            3.375842059495    -1.244618110220     0.000045834104     1.007825032230
         H            1.239511059495    -2.490632110220    -0.000007165896     1.007825032230
         H           -1.241791940505    -2.490631110220    -0.000042165896     1.007825032230
         H           -3.378123940505    -1.244617110220     0.000075834104     1.007825032230
         H           -3.378123940505     1.248657889780     0.000000834104     1.007825032230
         H           -1.241794940505     2.494673889780     0.000017834104     1.007825032230

  Basis Set: AUG-CC-PVTZ
    Blend: AUG-CC-PVTZ
  Basis Set: (AUG-CC-PVTZ AUX)
    Blend: AUG-CC-PVTZ-JKFIT
	 Reference Energy          =    -383.4762862679070281 [Eh]
	 Singles Energy            =      -0.0000000000000000 [Eh]
	 Same-Spin Energy          =      -0.4339277548946517 [Eh]
	 Opposite-Spin Energy      =      -1.3478216080589838 [Eh]
	 Correlation Energy        =      -1.7817493629536356 [Eh]
	 Total Energy              =    -385.2580356308606611 [Eh]

	 ================> DF-SCS-MP2 Energies <==================
	-----------------------------------------------------------
	 SCS Same-Spin Scale       =       0.3333333333333333 [-]
	 SCS Opposite-Spin Scale   =       1.2000000000000000 [-]
	 SCS Same-Spin Energy      =      -0.1446425849648839 [Eh]
	 SCS Opposite-Spin Energy  =      -1.6173859296707804 [Eh]
	 SCS Correlation Energy    =      -1.7620285146356642 [Eh]
	 SCS Total Energy          =    -385.2383147825427159 [Eh]
	-----------------------------------------------------------

  Dipole Moment: [D]
     X:     0.0065      Y:     0.0174      Z:     0.0000     Total:     0.0185

*** Psi4 exiting successfully. Buy a developer a beer!
