                               Psi4 1.3.2 release

  ==> Input File <==

--------------------------------------------------------------------------
#psi4
#
memory 32 gb

molecule  {
0 1
  C        1.2416220     1.4034370    -0.0000100
  C        2.4325270     0.7073060     0.0000070
  C        2.4325270    -0.7073070    -0.0000060
  C        1.2416220    -1.4034370     0.0000270
  C        0.0000000    -0.7164940    -0.0000890
  C       -1.2416220    -1.4034360     0.0000440
  C       -2.4325280    -0.7073070    -0.0000350
  C       -2.4325270     0.7073060     0.0000360
  C       -1.2416230     1.4034370    -0.0000280
  C       -0.0117997     0.7382669     0.0000373
  H        1.2406550     2.4926530    -0.0000150
  H        3.3769820     1.2466390     0.0000290
  H        3.3769830    -1.2466390     0.0000450
  H        1.2406520    -2.4926530    -0.0000080
  H       -1.2406510    -2.4926520    -0.0000430
  H       -3.3769830    -1.2466380     0.0000750
  H       -3.3769830     1.2466370     0.0000000
  H       -1.2406540     2.4926530     0.0000170
units angstrom
no_reorient  #important for SAPT in psi4, default
symmetry c1  #important for SAPT in psi4, default
}

set PROPERTIES_ORIGIN ["COM"]
properties('MP2/aug-cc-pvtz', properties = ['dipole'])
--------------------------------------------------------------------------

    Molecular point group: c1
  Charge       = 0
  Multiplicity = 1
  Basis Set: AUG-CC-PVTZ
    Blend: AUG-CC-PVTZ
  Basis Set: (AUG-CC-PVTZ AUX)
    Blend: AUG-CC-PVTZ-JKFIT

    Orbital Energies [Eh]
    ---------------------

    Doubly Occupied:

       1A    -11.248328     2A    -11.246304     3A    -11.240224
       4A    -11.240048     5A    -11.239888     6A    -11.239459
       7A    -11.238900     8A    -11.238290     9A    -11.238165
      10A    -11.237381    11A     -1.174750    12A     -1.108759
      13A     -1.052303    14A     -1.007439    15A     -0.980893
      16A     -0.855564    17A     -0.837413    18A     -0.807882
      19A     -0.708897    20A     -0.698046    21A     -0.677737
      22A     -0.623598    23A     -0.609162    24A     -0.585812
      25A     -0.583143    26A     -0.564301    27A     -0.532937
      28A     -0.525189    29A     -0.492010    30A     -0.474298
      31A     -0.448510    32A     -0.388901    33A     -0.318411
      34A     -0.288489

  @DF-RHF Final Energy:  -383.47523730912820

   => Energetics <=

    Nuclear Repulsion Energy =            457.1311879358412398
    One-Electron Energy =               -1423.7099942828106123
    Two-Electron Energy =                 583.1035690378411118
    Total Energy =                       -383.4752373091282607
  Basis Set: (AUG-CC-PVTZ AUX)
    Blend: AUG-CC-PVTZ-RI
    Molecular point group: c1

    Geometry (in Angstrom), charge = 0, multiplicity = 1:

       Center              X                  Y                   Z               Mass
    ------------   -----------------  -----------------  -----------------  -----------------
         C            1.242727860664     1.401396882124    -0.000009222119    12.000000000000
         C            2.433632860664     0.705265882124     0.000007777881    12.000000000000
         C            2.433632860664    -0.709347117876    -0.000005222119    12.000000000000
         C            1.242727860664    -1.405477117876     0.000027777881    12.000000000000
         C            0.001105860664    -0.718534117876    -0.000088222119    12.000000000000
         C           -1.240516139336    -1.405476117876     0.000044777881    12.000000000000
         C           -2.431422139336    -0.709347117876    -0.000034222119    12.000000000000
         C           -2.431421139336     0.705265882124     0.000036777881    12.000000000000
         C           -1.240517139336     1.401396882124    -0.000027222119    12.000000000000
         C           -0.010693839336     0.736226782124     0.000038077881    12.000000000000
         H            1.241760860664     2.490612882124    -0.000014222119     1.007825032230
         H            3.378087860664     1.244598882124     0.000029777881     1.007825032230
         H            3.378088860664    -1.248679117876     0.000045777881     1.007825032230
         H            1.241757860664    -2.494693117876    -0.000007222119     1.007825032230
         H           -1.239545139336    -2.494692117876    -0.000042222119     1.007825032230
         H           -3.375877139336    -1.248678117876     0.000075777881     1.007825032230
         H           -3.375877139336     1.244596882124     0.000000777881     1.007825032230
         H           -1.239548139336     2.490612882124     0.000017777881     1.007825032230

  Basis Set: AUG-CC-PVTZ
    Blend: AUG-CC-PVTZ
  Basis Set: (AUG-CC-PVTZ AUX)
    Blend: AUG-CC-PVTZ-JKFIT
	 Reference Energy          =    -383.4752373091282038 [Eh]
	 Singles Energy            =      -0.0000000000000000 [Eh]
	 Same-Spin Energy          =      -0.4346286740876336 [Eh]
	 Opposite-Spin Energy      =      -1.3481981127102034 [Eh]
	 Correlation Energy        =      -1.7828267867978371 [Eh]
	 Total Energy              =    -385.2580640959260450 [Eh]

	 ================> DF-SCS-MP2 Energies <==================
	-----------------------------------------------------------
	 SCS Same-Spin Scale       =       0.3333333333333333 [-]
	 SCS Opposite-Spin Scale   =       1.2000000000000000 [-]
	 SCS Same-Spin Energy      =      -0.1448762246958779 [Eh]
	 SCS Opposite-Spin Energy  =      -1.6178377352522439 [Eh]
	 SCS Correlation Energy    =      -1.7627139599481219 [Eh]
	 SCS Total Energy          =    -385.2379512690763477 [Eh]
	-----------------------------------------------------------

  Dipole Moment: [D]
     X:    -0.0071      Y:    -0.0183      Z:     0.0000     Total:     0.0196

*** Psi4 exiting successfully. Buy a developer a beer!
