                               Psi4 1.3.2 release

  ==> Input File <==

--------------------------------------------------------------------------
#psi4
#
memory 32 gb

molecule  {
0 1
  C        1.2648396     1.3596865    -0.0000159
  C        2.4325270     0.7073060     0.0000070
  C        2.4325270    -0.7073070    -0.0000060
  C        1.2416220    -1.4034370     0.0000270
  C        0.0000000    -0.7164940    -0.0000890
  C       -1.2416220    -1.4034360     0.0000440
  C       -2.4325280    -0.7073070    -0.0000350
  C       -2.4325270     0.7073060     0.0000360
  C       -1.2416230     1.4034370    -0.0000280
  C        0.0000000     0.7164930     0.0000370
  H        1.2406550     2.4926530    -0.0000150
  H        3.3769820     1.2466390     0.0000290
  H        3.3769830    -1.2466390     0.0000450
  H        1.2406520    -2.4926530    -0.0000080
  H       -1.2406510    -2.4926520    -0.0000430
  H       -3.3769830    -1.2466380     0.0000750
  H       -3.3769830     1.2466370     0.0000000
  H       -1.2406540     2.4926530     0.0000170
units angstrom
no_reorient  #important for SAPT in psi4, default
symmetry c1  #important for SAPT in psi4, default
}

set PROPERTIES_ORIGIN ["COM"]
properties('MP2/aug-cc-pvtz', properties = ['dipole'])
--------------------------------------------------------------------------

    Molecular point group: c1
  Charge       = 0
  Multiplicity = 1
  Basis Set: AUG-CC-PVTZ
    Blend: AUG-CC-PVTZ
  Basis Set: (AUG-CC-PVTZ AUX)
    Blend: AUG-CC-PVTZ-JKFIT

    Orbital Energies [Eh]
    ---------------------

    Doubly Occupied:

       1A    -11.246347     2A    -11.245318     3A    -11.240884
       4A    -11.239975     5A    -11.239160     6A    -11.239119
       7A    -11.238316     8A    -11.238076     9A    -11.237793
      10A    -11.233164    11A     -1.177581    12A     -1.112141
      13A     -1.050105    14A     -1.010177    15A     -0.982179
      16A     -0.854336    17A     -0.838172    18A     -0.808083
      19A     -0.707568    20A     -0.697110    21A     -0.679743
      22A     -0.618590    23A     -0.611156    24A     -0.589058
      25A     -0.578807    26A     -0.565692    27A     -0.535097
      28A     -0.522063    29A     -0.492410    30A     -0.471617
      31A     -0.451307    32A     -0.387113    33A     -0.320889
      34A     -0.291472

  @DF-RHF Final Energy:  -383.47401893132155

   => Energetics <=

    Nuclear Repulsion Energy =            457.9206776847265132
    One-Electron Energy =               -1425.2881550886183959
    Two-Electron Energy =                 583.8934584725702734
    Total Energy =                       -383.4740189313215524
  Basis Set: (AUG-CC-PVTZ AUX)
    Blend: AUG-CC-PVTZ-RI
    Molecular point group: c1

    Geometry (in Angstrom), charge = 0, multiplicity = 1:

       Center              X                  Y                   Z               Mass
    ------------   -----------------  -----------------  -----------------  -----------------
         C            1.262664193540     1.363786291812    -0.000014541153    12.000000000000
         C            2.430351593540     0.711405791812     0.000008358847    12.000000000000
         C            2.430351593540    -0.703207208188    -0.000004641153    12.000000000000
         C            1.239446593540    -1.399337208188     0.000028358847    12.000000000000
         C           -0.002175406460    -0.712394208188    -0.000087641153    12.000000000000
         C           -1.243797406460    -1.399336208188     0.000045358847    12.000000000000
         C           -2.434703406460    -0.703207208188    -0.000033641153    12.000000000000
         C           -2.434702406460     0.711405791812     0.000037358847    12.000000000000
         C           -1.243798406460     1.407536791812    -0.000026641153    12.000000000000
         C           -0.002175406460     0.720592791812     0.000038358847    12.000000000000
         H            1.238479593540     2.496752791812    -0.000013641153     1.007825032230
         H            3.374806593540     1.250738791812     0.000030358847     1.007825032230
         H            3.374807593540    -1.242539208188     0.000046358847     1.007825032230
         H            1.238476593540    -2.488553208188    -0.000006641153     1.007825032230
         H           -1.242826406460    -2.488552208188    -0.000041641153     1.007825032230
         H           -3.379158406460    -1.242538208188     0.000076358847     1.007825032230
         H           -3.379158406460     1.250736791812     0.000001358847     1.007825032230
         H           -1.242829406460     2.496752791812     0.000018358847     1.007825032230

  Basis Set: AUG-CC-PVTZ
    Blend: AUG-CC-PVTZ
  Basis Set: (AUG-CC-PVTZ AUX)
    Blend: AUG-CC-PVTZ-JKFIT
	 Reference Energy          =    -383.4740189313215524 [Eh]
	 Singles Energy            =      -0.0000000000000000 [Eh]
	 Same-Spin Energy          =      -0.4340555658100193 [Eh]
	 Opposite-Spin Energy      =      -1.3475733431991621 [Eh]
	 Correlation Energy        =      -1.7816289090091812 [Eh]
	 Total Energy              =    -385.2556478403307096 [Eh]

	 ================> DF-SCS-MP2 Energies <==================
	-----------------------------------------------------------
	 SCS Same-Spin Scale       =       0.3333333333333333 [-]
	 SCS Opposite-Spin Scale   =       1.2000000000000000 [-]
	 SCS Same-Spin Energy      =      -0.1446851886033397 [Eh]
	 SCS Opposite-Spin Energy  =      -1.6170880118389945 [Eh]
	 SCS Correlation Energy    =      -1.7617732004423343 [Eh]
	 SCS Total Energy          =    -385.2357921317639011 [Eh]
	-----------------------------------------------------------

  Dipole Moment: [D]
     X:    -0.0138      Y:    -0.0313      Z:     0.0000     Total:     0.0342

*** Psi4 exiting successfully. Buy a developer a beer!
