                               Psi4 1.4a3.dev225

  ==> Input File <==

--------------------------------------------------------------------------
#psi4
#
memory 32 gb

molecule  {
0 1
  C       -1.2414900    -1.4034410    -0.0038760
  C       -2.4324190    -0.7073040     0.0029100
  C       -2.4324190     0.7073040    -0.0029100
  C       -1.2414900     1.4034410     0.0038760
  C        0.0000000     0.7161900    -0.0087120
  C        1.2414900     1.4034410     0.0038760
  C        2.4324190     0.7073040    -0.0029100
  C        2.4324190    -0.7073040     0.0029100
  C        1.2414900    -1.4034410    -0.0038760
  C        0.0000000    -0.6961915     0.0084687
  H       -1.2405800    -2.4925790     0.0017850
  H       -3.3771300    -1.2461620    -0.0033580
  H       -3.3771300     1.2461620     0.0033580
  H       -1.2405800     2.4925790    -0.0017850
  H        1.2405800     2.4925790    -0.0017850
  H        3.3771300     1.2461620     0.0033580
  H        3.3771300    -1.2461620    -0.0033580
  H        1.2405800    -2.4925790     0.0017850
units angstrom
no_reorient  #important for SAPT in psi4, default
symmetry c1  #important for SAPT in psi4, default
}

set PROPERTIES_ORIGIN ["COM"]
properties('MP2/aug-cc-pvtz', properties = ['dipole'])
--------------------------------------------------------------------------

    Molecular point group: c1
  Charge       = 0
  Multiplicity = 1
  Basis Set: AUG-CC-PVTZ
    Blend: AUG-CC-PVTZ
  Basis Set: (AUG-CC-PVTZ AUX)
    Blend: AUG-CC-PVTZ-JKFIT

    Orbital Energies [Eh]
    ---------------------

    Doubly Occupied:

       1A    -11.246161     2A    -11.244119     3A    -11.240401
       4A    -11.240310     5A    -11.239736     6A    -11.239632
       7A    -11.238532     8A    -11.238501     9A    -11.237634
      10A    -11.237623    11A     -1.176746    12A     -1.108375
      13A     -1.048738    14A     -1.009625    15A     -0.979343
      16A     -0.853839    17A     -0.834500    18A     -0.814139
      19A     -0.705184    20A     -0.698783    21A     -0.676012
      22A     -0.624142    23A     -0.613690    24A     -0.583297
      25A     -0.581579    26A     -0.563244    27A     -0.534133
      28A     -0.525585    29A     -0.486048    30A     -0.481420
      31A     -0.448219    32A     -0.384145    33A     -0.322036
      34A     -0.288814

  @DF-RHF Final Energy:  -383.47633928725088

   => Energetics <=

    Nuclear Repulsion Energy =            457.4579903189479069
    One-Electron Energy =               -1424.3800863652927546
    Two-Electron Energy =                 583.4457567590940243
    Total Energy =                       -383.4763392872508803
  Basis Set: (AUG-CC-PVTZ AUX)
    Blend: AUG-CC-PVTZ-RI
    Molecular point group: c1

    Geometry (in Angstrom), charge = 0, multiplicity = 1:

       Center              X                  Y                   Z               Mass
    ------------   -----------------  -----------------  -----------------  -----------------
         C           -1.241490000000    -1.405314942896    -0.003853201775    12.000000000000
         C           -2.432419000000    -0.709177942896     0.002932798225    12.000000000000
         C           -2.432419000000     0.705430057104    -0.002887201775    12.000000000000
         C           -1.241490000000     1.401567057104     0.003898798225    12.000000000000
         C           -0.000000000000     0.714316057104    -0.008689201775    12.000000000000
         C            1.241490000000     1.401567057104     0.003898798225    12.000000000000
         C            2.432419000000     0.705430057104    -0.002887201775    12.000000000000
         C            2.432419000000    -0.709177942896     0.002932798225    12.000000000000
         C            1.241490000000    -1.405314942896    -0.003853201775    12.000000000000
         C           -0.000000000000    -0.698065442896     0.008491498225    12.000000000000
         H           -1.240580000000    -2.494452942896     0.001807798225     1.007825032230
         H           -3.377130000000    -1.248035942896    -0.003335201775     1.007825032230
         H           -3.377130000000     1.244288057104     0.003380798225     1.007825032230
         H           -1.240580000000     2.490705057104    -0.001762201775     1.007825032230
         H            1.240580000000     2.490705057104    -0.001762201775     1.007825032230
         H            3.377130000000     1.244288057104     0.003380798225     1.007825032230
         H            3.377130000000    -1.248035942896    -0.003335201775     1.007825032230
         H            1.240580000000    -2.494452942896     0.001807798225     1.007825032230

  Basis Set: AUG-CC-PVTZ
    Blend: AUG-CC-PVTZ
  Basis Set: (AUG-CC-PVTZ AUX)
    Blend: AUG-CC-PVTZ-JKFIT
	 Reference Energy          =    -383.4763392872508803 [Eh]
	 Singles Energy            =      -0.0000000000000000 [Eh]
	 Same-Spin Energy          =      -0.4339562011475397 [Eh]
	 Opposite-Spin Energy      =      -1.3478045273277761 [Eh]
	 Correlation Energy        =      -1.7817607284753159 [Eh]
	 Total Energy              =    -385.2581000157261997 [Eh]

	 ================> DF-SCS-MP2 Energies <==================
	-----------------------------------------------------------
	 SCS Same-Spin Scale       =       0.3333333333333333 [-]
	 SCS Opposite-Spin Scale   =       1.2000000000000000 [-]
	 SCS Same-Spin Energy      =      -0.1446520670491799 [Eh]
	 SCS Opposite-Spin Energy  =      -1.6173654327933313 [Eh]
	 SCS Correlation Energy    =      -1.7620174998425113 [Eh]
	 SCS Total Energy          =    -385.2383567870933803 [Eh]
	-----------------------------------------------------------

  Dipole Moment: [D]
     X:     0.0000      Y:    -0.0162      Z:    -0.0001     Total:     0.0162

*** Psi4 exiting successfully. Buy a developer a beer!
