                               Psi4 1.3.2 release

  ==> Input File <==

--------------------------------------------------------------------------
#psi4
#
memory 32 gb

molecule  {
0 1
  C        1.2416220     1.4034370    -0.0000100
  C        2.4325270     0.7073060     0.0000070
  C        2.4325270    -0.7073070    -0.0000060
  C        1.2416220    -1.4034370     0.0000270
  C        0.0000000    -0.7164940    -0.0000890
  C       -1.2416220    -1.4034360     0.0000440
  C       -2.4325280    -0.7073070    -0.0000350
  C       -2.4325270     0.7073060     0.0000360
  C       -1.2416230     1.4034370    -0.0000280
  C        0.0509433     0.6315552     0.0000356
  H        1.2406550     2.4926530    -0.0000150
  H        3.3769820     1.2466390     0.0000290
  H        3.3769830    -1.2466390     0.0000450
  H        1.2406520    -2.4926530    -0.0000080
  H       -1.2406510    -2.4926520    -0.0000430
  H       -3.3769830    -1.2466380     0.0000750
  H       -3.3769830     1.2466370     0.0000000
  H       -1.2406540     2.4926530     0.0000170
units angstrom
no_reorient  #important for SAPT in psi4, default
symmetry c1  #important for SAPT in psi4, default
}

set PROPERTIES_ORIGIN ["COM"]
properties('MP2/aug-cc-pvtz', properties = ['dipole'])
--------------------------------------------------------------------------

    Molecular point group: c1
  Charge       = 0
  Multiplicity = 1
  Basis Set: AUG-CC-PVTZ
    Blend: AUG-CC-PVTZ
  Basis Set: (AUG-CC-PVTZ AUX)
    Blend: AUG-CC-PVTZ-JKFIT

    Orbital Energies [Eh]
    ---------------------

    Doubly Occupied:

       1A    -11.245527     2A    -11.244767     3A    -11.239712
       4A    -11.239566     5A    -11.239306     6A    -11.238224
       7A    -11.237836     8A    -11.236960     9A    -11.236666
      10A    -11.236501    11A     -1.181274    12A     -1.108009
      13A     -1.044312    14A     -1.013182    15A     -0.977069
      16A     -0.852116    17A     -0.829720    18A     -0.823078
      19A     -0.702733    20A     -0.698039    21A     -0.673235
      22A     -0.627130    23A     -0.619134    24A     -0.583358
      25A     -0.574775    26A     -0.561569    27A     -0.537023
      28A     -0.526297    29A     -0.492877    30A     -0.471076
      31A     -0.447930    32A     -0.377436    33A     -0.328492
      34A     -0.289166

  @DF-RHF Final Energy:  -383.46641803178665

   => Energetics <=

    Nuclear Repulsion Energy =            457.9895975207693937
    One-Electron Energy =               -1425.4438414691860544
    Two-Electron Energy =                 583.9878259166300722
    Total Energy =                       -383.4664180317865885
  Basis Set: (AUG-CC-PVTZ AUX)
    Blend: AUG-CC-PVTZ-RI
    Molecular point group: c1

    Geometry (in Angstrom), charge = 0, multiplicity = 1:

       Center              X                  Y                   Z               Mass
    ------------   -----------------  -----------------  -----------------  -----------------
         C            1.236848579762     1.411396213681    -0.000009062822    12.000000000000
         C            2.427753579762     0.715265213681     0.000007937178    12.000000000000
         C            2.427753579762    -0.699347786319    -0.000005062822    12.000000000000
         C            1.236848579762    -1.395477786319     0.000027937178    12.000000000000
         C           -0.004773420238    -0.708534786319    -0.000088062822    12.000000000000
         C           -1.246395420238    -1.395476786319     0.000044937178    12.000000000000
         C           -2.437301420238    -0.699347786319    -0.000034062822    12.000000000000
         C           -2.437300420238     0.715265213681     0.000036937178    12.000000000000
         C           -1.246396420238     1.411396213681    -0.000027062822    12.000000000000
         C            0.046169879762     0.639514413681     0.000036537178    12.000000000000
         H            1.235881579762     2.500612213681    -0.000014062822     1.007825032230
         H            3.372208579762     1.254598213681     0.000029937178     1.007825032230
         H            3.372209579762    -1.238679786319     0.000045937178     1.007825032230
         H            1.235878579762    -2.484693786319    -0.000007062822     1.007825032230
         H           -1.245424420238    -2.484692786319    -0.000042062822     1.007825032230
         H           -3.381756420238    -1.238678786319     0.000075937178     1.007825032230
         H           -3.381756420238     1.254596213681     0.000000937178     1.007825032230
         H           -1.245427420238     2.500612213681     0.000017937178     1.007825032230

  Basis Set: AUG-CC-PVTZ
    Blend: AUG-CC-PVTZ
  Basis Set: (AUG-CC-PVTZ AUX)
    Blend: AUG-CC-PVTZ-JKFIT
	 Reference Energy          =    -383.4664180317866453 [Eh]
	 Singles Energy            =      -0.0000000000000000 [Eh]
	 Same-Spin Energy          =      -0.4330861840639744 [Eh]
	 Opposite-Spin Energy      =      -1.3479604512209766 [Eh]
	 Correlation Energy        =      -1.7810466352849510 [Eh]
	 Total Energy              =    -385.2474646670715970 [Eh]

	 ================> DF-SCS-MP2 Energies <==================
	-----------------------------------------------------------
	 SCS Same-Spin Scale       =       0.3333333333333333 [-]
	 SCS Opposite-Spin Scale   =       1.2000000000000000 [-]
	 SCS Same-Spin Energy      =      -0.1443620613546581 [Eh]
	 SCS Opposite-Spin Energy  =      -1.6175525414651719 [Eh]
	 SCS Correlation Energy    =      -1.7619146028198300 [Eh]
	 SCS Total Energy          =    -385.2283326346064882 [Eh]
	-----------------------------------------------------------

  Dipole Moment: [D]
     X:     0.0244      Y:     0.0626      Z:     0.0000     Total:     0.0672

*** Psi4 exiting successfully. Buy a developer a beer!
