                               Psi4 1.3.2 release

  ==> Input File <==

--------------------------------------------------------------------------
#psi4
#
memory 32 gb

molecule  {
0 1
  C        1.2416220     1.4034370    -0.0000100
  C        2.4325270     0.7073060     0.0000070
  C        2.4325270    -0.7073070    -0.0000060
  C        1.2416220    -1.4034370     0.0000270
  C        0.0000000    -0.7164940    -0.0000890
  C       -1.2416220    -1.4034360     0.0000440
  C       -2.4325280    -0.7073070    -0.0000350
  C       -2.4325270     0.7073060     0.0000360
  C       -1.2416230     1.4034370    -0.0000280
  C        0.0786069     0.5904713     0.0000348
  H        1.2406550     2.4926530    -0.0000150
  H        3.3769820     1.2466390     0.0000290
  H        3.3769830    -1.2466390     0.0000450
  H        1.2406520    -2.4926530    -0.0000080
  H       -1.2406510    -2.4926520    -0.0000430
  H       -3.3769830    -1.2466380     0.0000750
  H       -3.3769830     1.2466370     0.0000000
  H       -1.2406540     2.4926530     0.0000170
units angstrom
no_reorient  #important for SAPT in psi4, default
symmetry c1  #important for SAPT in psi4, default
}

set PROPERTIES_ORIGIN ["COM"]
properties('MP2/aug-cc-pvtz', properties = ['dipole'])
--------------------------------------------------------------------------

    Molecular point group: c1
  Charge       = 0
  Multiplicity = 1
  Basis Set: AUG-CC-PVTZ
    Blend: AUG-CC-PVTZ
  Basis Set: (AUG-CC-PVTZ AUX)
    Blend: AUG-CC-PVTZ-JKFIT

    Orbital Energies [Eh]
    ---------------------

    Doubly Occupied:

       1A    -11.247313     2A    -11.244167     3A    -11.239780
       4A    -11.239570     5A    -11.239151     6A    -11.238124
       7A    -11.237592     8A    -11.236189     9A    -11.235557
      10A    -11.232263    11A     -1.185181    12A     -1.107882
      13A     -1.042518    14A     -1.015210    15A     -0.975744
      16A     -0.851444    17A     -0.830747    18A     -0.824169
      19A     -0.703412    20A     -0.696213    21A     -0.671496
      22A     -0.631187    23A     -0.620311    24A     -0.583477
      25A     -0.570492    26A     -0.560482    27A     -0.539643
      28A     -0.526720    29A     -0.497837    30A     -0.460482
      31A     -0.447775    32A     -0.373668    33A     -0.332911
      34A     -0.289363

  @DF-RHF Final Energy:  -383.45211133815513

   => Energetics <=

    Nuclear Repulsion Energy =            458.3724257109682299
    One-Electron Energy =               -1426.1929337442209089
    Two-Electron Energy =                 584.3683966950976583
    Total Energy =                       -383.4521113381550776
  Basis Set: (AUG-CC-PVTZ AUX)
    Blend: AUG-CC-PVTZ-RI
    Molecular point group: c1

    Geometry (in Angstrom), charge = 0, multiplicity = 1:

       Center              X                  Y                   Z               Mass
    ------------   -----------------  -----------------  -----------------  -----------------
         C            1.234256385012     1.415245946538    -0.000008987858    12.000000000000
         C            2.425161385012     0.719114946538     0.000008012142    12.000000000000
         C            2.425161385012    -0.695498053462    -0.000004987858    12.000000000000
         C            1.234256385012    -1.391628053462     0.000028012142    12.000000000000
         C           -0.007365614988    -0.704685053462    -0.000087987858    12.000000000000
         C           -1.248987614988    -1.391627053462     0.000045012142    12.000000000000
         C           -2.439893614988    -0.695498053462    -0.000033987858    12.000000000000
         C           -2.439892614988     0.719114946538     0.000037012142    12.000000000000
         C           -1.248988614988     1.415245946538    -0.000026987858    12.000000000000
         C            0.071241285012     0.602280246538     0.000035812142    12.000000000000
         H            1.233289385012     2.504461946538    -0.000013987858     1.007825032230
         H            3.369616385012     1.258447946538     0.000030012142     1.007825032230
         H            3.369617385012    -1.234830053462     0.000046012142     1.007825032230
         H            1.233286385012    -2.480844053462    -0.000006987858     1.007825032230
         H           -1.248016614988    -2.480843053462    -0.000041987858     1.007825032230
         H           -3.384348614988    -1.234829053462     0.000076012142     1.007825032230
         H           -3.384348614988     1.258445946538     0.000001012142     1.007825032230
         H           -1.248019614988     2.504461946538     0.000018012142     1.007825032230

  Basis Set: AUG-CC-PVTZ
    Blend: AUG-CC-PVTZ
  Basis Set: (AUG-CC-PVTZ AUX)
    Blend: AUG-CC-PVTZ-JKFIT
	 Reference Energy          =    -383.4521113381551345 [Eh]
	 Singles Energy            =      -0.0000000000000000 [Eh]
	 Same-Spin Energy          =      -0.4327059842231750 [Eh]
	 Opposite-Spin Energy      =      -1.3485153769249720 [Eh]
	 Correlation Energy        =      -1.7812213611481469 [Eh]
	 Total Energy              =    -385.2333326993032756 [Eh]

	 ================> DF-SCS-MP2 Energies <==================
	-----------------------------------------------------------
	 SCS Same-Spin Scale       =       0.3333333333333333 [-]
	 SCS Opposite-Spin Scale   =       1.2000000000000000 [-]
	 SCS Same-Spin Energy      =      -0.1442353280743917 [Eh]
	 SCS Opposite-Spin Energy  =      -1.6182184523099663 [Eh]
	 SCS Correlation Energy    =      -1.7624537803843578 [Eh]
	 SCS Total Energy          =    -385.2145651185394968 [Eh]
	-----------------------------------------------------------

  Dipole Moment: [D]
     X:     0.0375      Y:     0.0856      Z:     0.0000     Total:     0.0935

*** Psi4 exiting successfully. Buy a developer a beer!
