                               Psi4 1.3.2 release

  ==> Input File <==

--------------------------------------------------------------------------
#psi4
#
memory 32 gb

molecule  {
0 1
  C        1.2416220     1.4034370    -0.0000100
  C        2.4325270     0.7073060     0.0000070
  C        2.4325270    -0.7073070    -0.0000060
  C        1.2416220    -1.4034370     0.0000270
  C        0.0000000    -0.7164940    -0.0000890
  C       -1.2416220    -1.4034360     0.0000440
  C       -2.4325280    -0.7073070    -0.0000350
  C       -2.4325270     0.7073060     0.0000360
  C       -1.2416230     1.4034370    -0.0000280
  C       -0.0232176     0.7602435     0.0000376
  H        1.2406550     2.4926530    -0.0000150
  H        3.3769820     1.2466390     0.0000290
  H        3.3769830    -1.2466390     0.0000450
  H        1.2406520    -2.4926530    -0.0000080
  H       -1.2406510    -2.4926520    -0.0000430
  H       -3.3769830    -1.2466380     0.0000750
  H       -3.3769830     1.2466370     0.0000000
  H       -1.2406540     2.4926530     0.0000170
units angstrom
no_reorient  #important for SAPT in psi4, default
symmetry c1  #important for SAPT in psi4, default
}

set PROPERTIES_ORIGIN ["COM"]
properties('MP2/aug-cc-pvtz', properties = ['dipole'])
--------------------------------------------------------------------------

    Molecular point group: c1
  Charge       = 0
  Multiplicity = 1
  Basis Set: AUG-CC-PVTZ
    Blend: AUG-CC-PVTZ
  Basis Set: (AUG-CC-PVTZ AUX)
    Blend: AUG-CC-PVTZ-JKFIT

    Orbital Energies [Eh]
    ---------------------

    Doubly Occupied:

       1A    -11.250118     2A    -11.246478     3A    -11.240491
       4A    -11.240261     5A    -11.240109     6A    -11.239692
       7A    -11.239159     8A    -11.238474     9A    -11.238424
      10A    -11.235724    11A     -1.173986    12A     -1.108982
      13A     -1.054270    14A     -1.006422    15A     -0.981669
      16A     -0.856660    17A     -0.838732    18A     -0.804664
      19A     -0.711045    20A     -0.697581    21A     -0.678628
      22A     -0.623455    23A     -0.606867    24A     -0.587737
      25A     -0.583155    26A     -0.564832    27A     -0.532510
      28A     -0.524950    29A     -0.494904    30A     -0.469850
      31A     -0.448669    32A     -0.391428    33A     -0.316749
      34A     -0.288269

  @DF-RHF Final Energy:  -383.47246074464425

   => Energetics <=

    Nuclear Repulsion Energy =            456.9763093160063931
    One-Electron Energy =               -1423.3876562854768508
    Two-Electron Energy =                 582.9388862248262058
    Total Energy =                       -383.4724607446443088
  Basis Set: (AUG-CC-PVTZ AUX)
    Blend: AUG-CC-PVTZ-RI
    Molecular point group: c1

    Geometry (in Angstrom), charge = 0, multiplicity = 1:

       Center              X                  Y                   Z               Mass
    ------------   -----------------  -----------------  -----------------  -----------------
         C            1.243797765537     1.399337583004    -0.000009250230    12.000000000000
         C            2.434702765537     0.703206583004     0.000007749770    12.000000000000
         C            2.434702765537    -0.711406416996    -0.000005250230    12.000000000000
         C            1.243797765537    -1.407536416996     0.000027749770    12.000000000000
         C            0.002175765537    -0.720593416996    -0.000088250230    12.000000000000
         C           -1.239446234463    -1.407535416996     0.000044749770    12.000000000000
         C           -2.430352234463    -0.711406416996    -0.000034250230    12.000000000000
         C           -2.430351234463     0.703206583004     0.000036749770    12.000000000000
         C           -1.239447234463     1.399337583004    -0.000027250230    12.000000000000
         C           -0.021041834463     0.756144083004     0.000038349770    12.000000000000
         H            1.242830765537     2.488553583004    -0.000014250230     1.007825032230
         H            3.379157765537     1.242539583004     0.000029749770     1.007825032230
         H            3.379158765537    -1.250738416996     0.000045749770     1.007825032230
         H            1.242827765537    -2.496752416996    -0.000007250230     1.007825032230
         H           -1.238475234463    -2.496751416996    -0.000042250230     1.007825032230
         H           -3.374807234463    -1.250737416996     0.000075749770     1.007825032230
         H           -3.374807234463     1.242537583004     0.000000749770     1.007825032230
         H           -1.238478234463     2.488553583004     0.000017749770     1.007825032230

  Basis Set: AUG-CC-PVTZ
    Blend: AUG-CC-PVTZ
  Basis Set: (AUG-CC-PVTZ AUX)
    Blend: AUG-CC-PVTZ-JKFIT
	 Reference Energy          =    -383.4724607446442519 [Eh]
	 Singles Energy            =      -0.0000000000000000 [Eh]
	 Same-Spin Energy          =      -0.4350101732037113 [Eh]
	 Opposite-Spin Energy      =      -1.3485217558261859 [Eh]
	 Correlation Energy        =      -1.7835319290298972 [Eh]
	 Total Energy              =    -385.2559926736741431 [Eh]

	 ================> DF-SCS-MP2 Energies <==================
	-----------------------------------------------------------
	 SCS Same-Spin Scale       =       0.3333333333333333 [-]
	 SCS Opposite-Spin Scale   =       1.2000000000000000 [-]
	 SCS Same-Spin Energy      =      -0.1450033910679038 [Eh]
	 SCS Opposite-Spin Energy  =      -1.6182261069914230 [Eh]
	 SCS Correlation Energy    =      -1.7632294980593268 [Eh]
	 SCS Total Energy          =    -385.2356902427035834 [Eh]
	-----------------------------------------------------------

  Dipole Moment: [D]
     X:    -0.0150      Y:    -0.0373      Z:     0.0000     Total:     0.0402

*** Psi4 exiting successfully. Buy a developer a beer!
