                               Psi4 1.3.2 release

  ==> Input File <==

--------------------------------------------------------------------------
#psi4
#
memory 32 gb

molecule  {
0 1
  C        1.2416220     1.4034370    -0.0000100
  C        2.4325270     0.7073060     0.0000070
  C        2.4325270    -0.7073070    -0.0000060
  C        1.2416220    -1.4034370     0.0000270
  C        0.0000000    -0.7164940    -0.0000890
  C       -1.2416220    -1.4034360     0.0000440
  C       -2.4325280    -0.7073070    -0.0000350
  C       -2.4325270     0.7073060     0.0000360
  C       -1.2416230     1.4034370    -0.0000280
  C       -0.0650035     0.8500410     0.0000387
  H        1.2406550     2.4926530    -0.0000150
  H        3.3769820     1.2466390     0.0000290
  H        3.3769830    -1.2466390     0.0000450
  H        1.2406520    -2.4926530    -0.0000080
  H       -1.2406510    -2.4926520    -0.0000430
  H       -3.3769830    -1.2466380     0.0000750
  H       -3.3769830     1.2466370     0.0000000
  H       -1.2406540     2.4926530     0.0000170
units angstrom
no_reorient  #important for SAPT in psi4, default
symmetry c1  #important for SAPT in psi4, default
}

set PROPERTIES_ORIGIN ["COM"]
properties('MP2/aug-cc-pvtz', properties = ['dipole'])
--------------------------------------------------------------------------

    Molecular point group: c1
  Charge       = 0
  Multiplicity = 1
  Basis Set: AUG-CC-PVTZ
    Blend: AUG-CC-PVTZ
  Basis Set: (AUG-CC-PVTZ AUX)
    Blend: AUG-CC-PVTZ-JKFIT

    Orbital Energies [Eh]
    ---------------------

    Doubly Occupied:

       1A    -11.255894     2A    -11.246529     3A    -11.241900
       4A    -11.241838     5A    -11.241145     6A    -11.240469
       7A    -11.240429     8A    -11.239677     9A    -11.239206
      10A    -11.227939    11A     -1.172661    12A     -1.110099
      13A     -1.062663    14A     -1.003397    15A     -0.984378
      16A     -0.862379    17A     -0.842730    18A     -0.792110
      19A     -0.720579    20A     -0.695691    21A     -0.682076
      22A     -0.623281    23A     -0.601548    24A     -0.591601
      25A     -0.583057    26A     -0.566788    27A     -0.532038
      28A     -0.523895    29A     -0.504191    30A     -0.449511
      31A     -0.448072    32A     -0.401866    33A     -0.311905
      34A     -0.286833

  @DF-RHF Final Energy:  -383.44673053082744

   => Energetics <=

    Nuclear Repulsion Energy =            456.4056185582873013
    One-Electron Energy =               -1422.1679504044830082
    Two-Electron Energy =                 582.3156013153683261
    Total Energy =                       -383.4467305308273808
  Basis Set: (AUG-CC-PVTZ AUX)
    Blend: AUG-CC-PVTZ-RI
    Molecular point group: c1

    Geometry (in Angstrom), charge = 0, multiplicity = 1:

       Center              X                  Y                   Z               Mass
    ------------   -----------------  -----------------  -----------------  -----------------
         C            1.247713278723     1.390923182564    -0.000009353305    12.000000000000
         C            2.438618278723     0.694792182564     0.000007646695    12.000000000000
         C            2.438618278723    -0.719820817436    -0.000005353305    12.000000000000
         C            1.247713278723    -1.415950817436     0.000027646695    12.000000000000
         C            0.006091278723    -0.729007817436    -0.000088353305    12.000000000000
         C           -1.235530721277    -1.415949817436     0.000044646695    12.000000000000
         C           -2.426436721277    -0.719820817436    -0.000034353305    12.000000000000
         C           -2.426435721277     0.694792182564     0.000036646695    12.000000000000
         C           -1.235531721277     1.390923182564    -0.000027353305    12.000000000000
         C           -0.058912221277     0.837527182564     0.000039346695    12.000000000000
         H            1.246746278723     2.480139182564    -0.000014353305     1.007825032230
         H            3.383073278723     1.234125182564     0.000029646695     1.007825032230
         H            3.383074278723    -1.259152817436     0.000045646695     1.007825032230
         H            1.246743278723    -2.505166817436    -0.000007353305     1.007825032230
         H           -1.234559721277    -2.505165817436    -0.000042353305     1.007825032230
         H           -3.370891721277    -1.259151817436     0.000075646695     1.007825032230
         H           -3.370891721277     1.234123182564     0.000000646695     1.007825032230
         H           -1.234562721277     2.480139182564     0.000017646695     1.007825032230

  Basis Set: AUG-CC-PVTZ
    Blend: AUG-CC-PVTZ
  Basis Set: (AUG-CC-PVTZ AUX)
    Blend: AUG-CC-PVTZ-JKFIT
	 Reference Energy          =    -383.4467305308274376 [Eh]
	 Singles Energy            =      -0.0000000000000000 [Eh]
	 Same-Spin Energy          =      -0.4366676650007976 [Eh]
	 Opposite-Spin Energy      =      -1.3506406662790962 [Eh]
	 Correlation Energy        =      -1.7873083312798936 [Eh]
	 Total Energy              =    -385.2340388621073544 [Eh]

	 ================> DF-SCS-MP2 Energies <==================
	-----------------------------------------------------------
	 SCS Same-Spin Scale       =       0.3333333333333333 [-]
	 SCS Opposite-Spin Scale   =       1.2000000000000000 [-]
	 SCS Same-Spin Energy      =      -0.1455558883335992 [Eh]
	 SCS Opposite-Spin Energy  =      -1.6207687995349154 [Eh]
	 SCS Correlation Energy    =      -1.7663246878685146 [Eh]
	 SCS Total Energy          =    -385.2130552186959562 [Eh]
	-----------------------------------------------------------

  Dipole Moment: [D]
     X:    -0.0554      Y:    -0.1178      Z:     0.0000     Total:     0.1302

*** Psi4 exiting successfully. Buy a developer a beer!
