                               Psi4 1.3.2 release

  ==> Input File <==

--------------------------------------------------------------------------
#psi4
#
memory 32 gb

molecule  {
0 1
  C        1.2168916     1.4463505    -0.0000041
  C        2.4325270     0.7073060     0.0000070
  C        2.4325270    -0.7073070    -0.0000060
  C        1.2416220    -1.4034370     0.0000270
  C        0.0000000    -0.7164940    -0.0000890
  C       -1.2416220    -1.4034360     0.0000440
  C       -2.4325280    -0.7073070    -0.0000350
  C       -2.4325270     0.7073060     0.0000360
  C       -1.2416230     1.4034370    -0.0000280
  C        0.0000000     0.7164930     0.0000370
  H        1.2406550     2.4926530    -0.0000150
  H        3.3769820     1.2466390     0.0000290
  H        3.3769830    -1.2466390     0.0000450
  H        1.2406520    -2.4926530    -0.0000080
  H       -1.2406510    -2.4926520    -0.0000430
  H       -3.3769830    -1.2466380     0.0000750
  H       -3.3769830     1.2466370     0.0000000
  H       -1.2406540     2.4926530     0.0000170
units angstrom
no_reorient  #important for SAPT in psi4, default
symmetry c1  #important for SAPT in psi4, default
}

set PROPERTIES_ORIGIN ["COM"]
properties('MP2/aug-cc-pvtz', properties = ['dipole'])
--------------------------------------------------------------------------

    Molecular point group: c1
  Charge       = 0
  Multiplicity = 1
  Basis Set: AUG-CC-PVTZ
    Blend: AUG-CC-PVTZ
  Basis Set: (AUG-CC-PVTZ AUX)
    Blend: AUG-CC-PVTZ-JKFIT

    Orbital Energies [Eh]
    ---------------------

    Doubly Occupied:

       1A    -11.247415     2A    -11.246414     3A    -11.244092
       4A    -11.240942     5A    -11.240698     6A    -11.239889
       7A    -11.238962     8A    -11.238766     9A    -11.238139
      10A    -11.237274    11A     -1.174291    12A     -1.105501
      13A     -1.051009    14A     -1.007347    15A     -0.977832
      16A     -0.855321    17A     -0.834022    18A     -0.814244
      19A     -0.707667    20A     -0.699103    21A     -0.674143
      22A     -0.630508    23A     -0.611988    24A     -0.586603
      25A     -0.579549    26A     -0.560908    27A     -0.532248
      28A     -0.528382    29A     -0.486269    30A     -0.481678
      31A     -0.445851    32A     -0.385956    33A     -0.319955
      34A     -0.285606

  @DF-RHF Final Energy:  -383.47210246407451

   => Energetics <=

    Nuclear Repulsion Energy =            456.7050877380113434
    One-Electron Energy =               -1422.8572358611445452
    Two-Electron Energy =                 582.6800456590586919
    Total Energy =                       -383.4721024640745100
  Basis Set: (AUG-CC-PVTZ AUX)
    Blend: AUG-CC-PVTZ-RI
    Molecular point group: c1

    Geometry (in Angstrom), charge = 0, multiplicity = 1:

       Center              X                  Y                   Z               Mass
    ------------   -----------------  -----------------  -----------------  -----------------
         C            1.219209121209     1.442329513397    -0.000003846862    12.000000000000
         C            2.434844521209     0.703285013397     0.000007253138    12.000000000000
         C            2.434844521209    -0.711327986603    -0.000005746862    12.000000000000
         C            1.243939521209    -1.407457986603     0.000027253138    12.000000000000
         C            0.002317521209    -0.720514986603    -0.000088746862    12.000000000000
         C           -1.239304478791    -1.407456986603     0.000044253138    12.000000000000
         C           -2.430210478791    -0.711327986603    -0.000034746862    12.000000000000
         C           -2.430209478791     0.703285013397     0.000036253138    12.000000000000
         C           -1.239305478791     1.399416013397    -0.000027746862    12.000000000000
         C            0.002317521209     0.712472013397     0.000037253138    12.000000000000
         H            1.242972521209     2.488632013397    -0.000014746862     1.007825032230
         H            3.379299521209     1.242618013397     0.000029253138     1.007825032230
         H            3.379300521209    -1.250659986603     0.000045253138     1.007825032230
         H            1.242969521209    -2.496673986603    -0.000007746862     1.007825032230
         H           -1.238333478791    -2.496672986603    -0.000042746862     1.007825032230
         H           -3.374665478791    -1.250658986603     0.000075253138     1.007825032230
         H           -3.374665478791     1.242616013397     0.000000253138     1.007825032230
         H           -1.238336478791     2.488632013397     0.000017253138     1.007825032230

  Basis Set: AUG-CC-PVTZ
    Blend: AUG-CC-PVTZ
  Basis Set: (AUG-CC-PVTZ AUX)
    Blend: AUG-CC-PVTZ-JKFIT
	 Reference Energy          =    -383.4721024640745100 [Eh]
	 Singles Energy            =      -0.0000000000000000 [Eh]
	 Same-Spin Energy          =      -0.4345918960778535 [Eh]
	 Opposite-Spin Energy      =      -1.3487173778949515 [Eh]
	 Correlation Energy        =      -1.7833092739728049 [Eh]
	 Total Energy              =    -385.2554117380473144 [Eh]

	 ================> DF-SCS-MP2 Energies <==================
	-----------------------------------------------------------
	 SCS Same-Spin Scale       =       0.3333333333333333 [-]
	 SCS Opposite-Spin Scale   =       1.2000000000000000 [-]
	 SCS Same-Spin Energy      =      -0.1448639653592845 [Eh]
	 SCS Opposite-Spin Energy  =      -1.6184608534739418 [Eh]
	 SCS Correlation Energy    =      -1.7633248188332262 [Eh]
	 SCS Total Energy          =    -385.2354272829077217 [Eh]
	-----------------------------------------------------------

  Dipole Moment: [D]
     X:     0.0092      Y:     0.0192      Z:     0.0000     Total:     0.0213

*** Psi4 exiting successfully. Buy a developer a beer!
