                               Psi4 1.3.2 release

  ==> Input File <==

--------------------------------------------------------------------------
#psi4
#
memory 32 gb

molecule  {
0 1
  C        1.3066255     1.2698890    -0.0000274
  C        2.4325270     0.7073060     0.0000070
  C        2.4325270    -0.7073070    -0.0000060
  C        1.2416220    -1.4034370     0.0000270
  C        0.0000000    -0.7164940    -0.0000890
  C       -1.2416220    -1.4034360     0.0000440
  C       -2.4325280    -0.7073070    -0.0000350
  C       -2.4325270     0.7073060     0.0000360
  C       -1.2416230     1.4034370    -0.0000280
  C        0.0000000     0.7164930     0.0000370
  H        1.2406550     2.4926530    -0.0000150
  H        3.3769820     1.2466390     0.0000290
  H        3.3769830    -1.2466390     0.0000450
  H        1.2406520    -2.4926530    -0.0000080
  H       -1.2406510    -2.4926520    -0.0000430
  H       -3.3769830    -1.2466380     0.0000750
  H       -3.3769830     1.2466370     0.0000000
  H       -1.2406540     2.4926530     0.0000170
units angstrom
no_reorient  #important for SAPT in psi4, default
symmetry c1  #important for SAPT in psi4, default
}

set PROPERTIES_ORIGIN ["COM"]
properties('MP2/aug-cc-pvtz', properties = ['dipole'])
--------------------------------------------------------------------------

    Molecular point group: c1
  Charge       = 0
  Multiplicity = 1
  Basis Set: AUG-CC-PVTZ
    Blend: AUG-CC-PVTZ
  Basis Set: (AUG-CC-PVTZ AUX)
    Blend: AUG-CC-PVTZ-JKFIT

    Orbital Energies [Eh]
    ---------------------

    Doubly Occupied:

       1A    -11.246741     2A    -11.244974     3A    -11.243281
       4A    -11.241033     5A    -11.240096     6A    -11.238815
       7A    -11.238741     8A    -11.236783     9A    -11.235883
      10A    -11.222857    11A     -1.183324    12A     -1.120713
      13A     -1.050317    14A     -1.014774    15A     -0.985325
      16A     -0.854749    17A     -0.843104    18A     -0.802762
      19A     -0.710739    20A     -0.694153    21A     -0.686138
      22A     -0.612646    23A     -0.610646    24A     -0.600055
      25A     -0.571528    26A     -0.567446    27A     -0.539721
      28A     -0.515080    29A     -0.498128    30A     -0.458507
      31A     -0.451445    32A     -0.389021    33A     -0.323563
      34A     -0.296058

  @DF-RHF Final Energy:  -383.44800488993718

   => Energetics <=

    Nuclear Repulsion Energy =            459.2993733810646404
    One-Electron Energy =               -1427.9564710004340213
    Two-Electron Energy =                 585.2090927294322000
    Total Energy =                       -383.4480048899371241
  Basis Set: (AUG-CC-PVTZ AUX)
    Blend: AUG-CC-PVTZ-RI
    Molecular point group: c1

    Geometry (in Angstrom), charge = 0, multiplicity = 1:

       Center              X                  Y                   Z               Mass
    ------------   -----------------  -----------------  -----------------  -----------------
         C            1.300534580354     1.282403192253    -0.000024963555    12.000000000000
         C            2.426436080354     0.719820192253     0.000009436445    12.000000000000
         C            2.426436080354    -0.694792807747    -0.000003563555    12.000000000000
         C            1.235531080354    -1.390922807747     0.000029436445    12.000000000000
         C           -0.006090919646    -0.703979807747    -0.000086563555    12.000000000000
         C           -1.247712919646    -1.390921807747     0.000046436445    12.000000000000
         C           -2.438618919646    -0.694792807747    -0.000032563555    12.000000000000
         C           -2.438617919646     0.719820192253     0.000038436445    12.000000000000
         C           -1.247713919646     1.415951192253    -0.000025563555    12.000000000000
         C           -0.006090919646     0.729007192253     0.000039436445    12.000000000000
         H            1.234564080354     2.505167192253    -0.000012563555     1.007825032230
         H            3.370891080354     1.259153192253     0.000031436445     1.007825032230
         H            3.370892080354    -1.234124807747     0.000047436445     1.007825032230
         H            1.234561080354    -2.480138807747    -0.000005563555     1.007825032230
         H           -1.246741919646    -2.480137807747    -0.000040563555     1.007825032230
         H           -3.383073919646    -1.234123807747     0.000077436445     1.007825032230
         H           -3.383073919646     1.259151192253     0.000002436445     1.007825032230
         H           -1.246744919646     2.505167192253     0.000019436445     1.007825032230

  Basis Set: AUG-CC-PVTZ
    Blend: AUG-CC-PVTZ
  Basis Set: (AUG-CC-PVTZ AUX)
    Blend: AUG-CC-PVTZ-JKFIT
	 Reference Energy          =    -383.4480048899371809 [Eh]
	 Singles Energy            =      -0.0000000000000000 [Eh]
	 Same-Spin Energy          =      -0.4340078428482392 [Eh]
	 Opposite-Spin Energy      =      -1.3478597642548180 [Eh]
	 Correlation Energy        =      -1.7818676071030572 [Eh]
	 Total Energy              =    -385.2298724970402191 [Eh]

	 ================> DF-SCS-MP2 Energies <==================
	-----------------------------------------------------------
	 SCS Same-Spin Scale       =       0.3333333333333333 [-]
	 SCS Opposite-Spin Scale   =       1.2000000000000000 [-]
	 SCS Same-Spin Energy      =      -0.1446692809494131 [Eh]
	 SCS Opposite-Spin Energy  =      -1.6174317171057815 [Eh]
	 SCS Correlation Energy    =      -1.7621009980551945 [Eh]
	 SCS Total Energy          =    -385.2101058879923698 [Eh]
	-----------------------------------------------------------

  Dipole Moment: [D]
     X:    -0.0522      Y:    -0.1398      Z:     0.0001     Total:     0.1492

*** Psi4 exiting successfully. Buy a developer a beer!
