                               Psi4 1.3.2 release

  ==> Input File <==

--------------------------------------------------------------------------
#psi4
#
memory 32 gb

molecule  {
0 1
  C        1.2416220     1.4034370    -0.0000100
  C        2.4325270     0.7073060     0.0000070
  C        2.4325270    -0.7073070    -0.0000060
  C        1.2416220    -1.4034370     0.0000270
  C        0.0000000    -0.7164940    -0.0000890
  C       -1.2416220    -1.4034360     0.0000440
  C       -2.4325280    -0.7073070    -0.0000350
  C       -2.4325270     0.7073060     0.0000360
  C       -1.2416230     1.4034370    -0.0000280
  C        0.0000000     0.8164930     0.0000458
  H        1.2406550     2.4926530    -0.0000150
  H        3.3769820     1.2466390     0.0000290
  H        3.3769830    -1.2466390     0.0000450
  H        1.2406520    -2.4926530    -0.0000080
  H       -1.2406510    -2.4926520    -0.0000430
  H       -3.3769830    -1.2466380     0.0000750
  H       -3.3769830     1.2466370     0.0000000
  H       -1.2406540     2.4926530     0.0000170
units angstrom
no_reorient  #important for SAPT in psi4, default
symmetry c1  #important for SAPT in psi4, default
}

set PROPERTIES_ORIGIN ["COM"]
properties('MP2/aug-cc-pvtz', properties = ['dipole'])
--------------------------------------------------------------------------

    Molecular point group: c1
  Charge       = 0
  Multiplicity = 1
  Basis Set: AUG-CC-PVTZ
    Blend: AUG-CC-PVTZ
  Basis Set: (AUG-CC-PVTZ AUX)
    Blend: AUG-CC-PVTZ-JKFIT

    Orbital Energies [Eh]
    ---------------------

    Doubly Occupied:

       1A    -11.254019     2A    -11.246907     3A    -11.241092
       4A    -11.241086     5A    -11.240349     6A    -11.240317
       7A    -11.239171     8A    -11.239150     9A    -11.236016
      10A    -11.235922    11A     -1.172187    12A     -1.109459
      13A     -1.058990    14A     -1.004175    15A     -0.983970
      16A     -0.859335    17A     -0.842370    18A     -0.796740
      19A     -0.716814    20A     -0.696266    21A     -0.680896
      22A     -0.622957    23A     -0.600639    24A     -0.593732
      25A     -0.583038    26A     -0.566138    27A     -0.531607
      28A     -0.524323    29A     -0.500512    30A     -0.458664
      31A     -0.448994    32A     -0.397665    33A     -0.312592
      34A     -0.288114

  @DF-RHF Final Energy:  -383.46300966768996

   => Energetics <=

    Nuclear Repulsion Energy =            456.5793701908793309
    One-Electron Energy =               -1422.5563512440494378
    Two-Electron Energy =                 582.5139713854800902
    Total Energy =                       -383.4630096676900166
  Basis Set: (AUG-CC-PVTZ AUX)
    Blend: AUG-CC-PVTZ-RI
    Molecular point group: c1

    Geometry (in Angstrom), charge = 0, multiplicity = 1:

       Center              X                  Y                   Z               Mass
    ------------   -----------------  -----------------  -----------------  -----------------
         C            1.241622179539     1.394066770147    -0.000010018604    12.000000000000
         C            2.432527179539     0.697935770147     0.000006981396    12.000000000000
         C            2.432527179539    -0.716677229853    -0.000006018604    12.000000000000
         C            1.241622179539    -1.412807229853     0.000026981396    12.000000000000
         C            0.000000179539    -0.725864229853    -0.000089018604    12.000000000000
         C           -1.241621820461    -1.412806229853     0.000043981396    12.000000000000
         C           -2.432527820461    -0.716677229853    -0.000035018604    12.000000000000
         C           -2.432526820461     0.697935770147     0.000035981396    12.000000000000
         C           -1.241622820461     1.394066770147    -0.000028018604    12.000000000000
         C            0.000000179539     0.807122770147     0.000045781396    12.000000000000
         H            1.240655179539     2.483282770147    -0.000015018604     1.007825032230
         H            3.376982179539     1.237268770147     0.000028981396     1.007825032230
         H            3.376983179539    -1.256009229853     0.000044981396     1.007825032230
         H            1.240652179539    -2.502023229853    -0.000008018604     1.007825032230
         H           -1.240650820461    -2.502022229853    -0.000043018604     1.007825032230
         H           -3.376982820461    -1.256008229853     0.000074981396     1.007825032230
         H           -3.376982820461     1.237266770147    -0.000000018604     1.007825032230
         H           -1.240653820461     2.483282770147     0.000016981396     1.007825032230

  Basis Set: AUG-CC-PVTZ
    Blend: AUG-CC-PVTZ
  Basis Set: (AUG-CC-PVTZ AUX)
    Blend: AUG-CC-PVTZ-JKFIT
	 Reference Energy          =    -383.4630096676899598 [Eh]
	 Singles Energy            =      -0.0000000000000000 [Eh]
	 Same-Spin Energy          =      -0.4360939614060319 [Eh]
	 Opposite-Spin Energy      =      -1.3495771394045128 [Eh]
	 Correlation Energy        =      -1.7856711008105448 [Eh]
	 Total Energy              =    -385.2486807685004919 [Eh]

	 ================> DF-SCS-MP2 Energies <==================
	-----------------------------------------------------------
	 SCS Same-Spin Scale       =       0.3333333333333333 [-]
	 SCS Opposite-Spin Scale   =       1.2000000000000000 [-]
	 SCS Same-Spin Energy      =      -0.1453646538020106 [Eh]
	 SCS Opposite-Spin Energy  =      -1.6194925672854155 [Eh]
	 SCS Correlation Energy    =      -1.7648572210874260 [Eh]
	 SCS Total Energy          =    -385.2278668887773847 [Eh]
	-----------------------------------------------------------

  Dipole Moment: [D]
     X:     0.0000      Y:    -0.0876      Z:     0.0000     Total:     0.0876

*** Psi4 exiting successfully. Buy a developer a beer!
