                               Psi4 1.3.2 release

  ==> Input File <==

--------------------------------------------------------------------------
#psi4
#
memory 32 gb

molecule  {
0 1
  C        1.2865163     1.3151525    -0.0000216
  C        2.4325270     0.7073060     0.0000070
  C        2.4325270    -0.7073070    -0.0000060
  C        1.2416220    -1.4034370     0.0000270
  C        0.0000000    -0.7164940    -0.0000890
  C       -1.2416220    -1.4034360     0.0000440
  C       -2.4325280    -0.7073070    -0.0000350
  C       -2.4325270     0.7073060     0.0000360
  C       -1.2416230     1.4034370    -0.0000280
  C        0.0000000     0.7164930     0.0000370
  H        1.2406550     2.4926530    -0.0000150
  H        3.3769820     1.2466390     0.0000290
  H        3.3769830    -1.2466390     0.0000450
  H        1.2406520    -2.4926530    -0.0000080
  H       -1.2406510    -2.4926520    -0.0000430
  H       -3.3769830    -1.2466380     0.0000750
  H       -3.3769830     1.2466370     0.0000000
  H       -1.2406540     2.4926530     0.0000170
units angstrom
no_reorient  #important for SAPT in psi4, default
symmetry c1  #important for SAPT in psi4, default
}

set PROPERTIES_ORIGIN ["COM"]
properties('MP2/aug-cc-pvtz', properties = ['dipole'])
--------------------------------------------------------------------------

    Molecular point group: c1
  Charge       = 0
  Multiplicity = 1
  Basis Set: AUG-CC-PVTZ
    Blend: AUG-CC-PVTZ
  Basis Set: (AUG-CC-PVTZ AUX)
    Blend: AUG-CC-PVTZ-JKFIT

    Orbital Energies [Eh]
    ---------------------

    Doubly Occupied:

       1A    -11.246314     2A    -11.245083     3A    -11.242025
       4A    -11.240416     5A    -11.239583     6A    -11.238769
       7A    -11.238615     8A    -11.237266     9A    -11.236786
      10A    -11.227926    11A     -1.180078    12A     -1.116220
      13A     -1.050060    14A     -1.012284    15A     -0.983931
      16A     -0.854395    17A     -0.840571    18A     -0.805288
      19A     -0.708970    20A     -0.695570    21A     -0.682841
      22A     -0.614922    23A     -0.610853    24A     -0.594603
      25A     -0.574655    26A     -0.566964    27A     -0.537143
      28A     -0.518521    29A     -0.495447    30A     -0.462735
      31A     -0.454690    32A     -0.387980    33A     -0.322005
      34A     -0.293941

  @DF-RHF Final Energy:  -383.46452244599345

   => Energetics <=

    Nuclear Repulsion Energy =            458.5908550146089624
    One-Electron Energy =               -1426.5958655346767046
    Two-Electron Energy =                 584.5404880740743465
    Total Energy =                       -383.4645224459934525
  Basis Set: (AUG-CC-PVTZ AUX)
    Blend: AUG-CC-PVTZ-RI
    Molecular point group: c1

    Geometry (in Angstrom), charge = 0, multiplicity = 1:

       Center              X                  Y                   Z               Mass
    ------------   -----------------  -----------------  -----------------  -----------------
         C            1.282309696302     1.323425313436    -0.000019707039    12.000000000000
         C            2.428320396302     0.715578813436     0.000008892961    12.000000000000
         C            2.428320396302    -0.699034186564    -0.000004107039    12.000000000000
         C            1.237415396302    -1.395164186564     0.000028892961    12.000000000000
         C           -0.004206603698    -0.708221186564    -0.000087107039    12.000000000000
         C           -1.245828603698    -1.395163186564     0.000045892961    12.000000000000
         C           -2.436734603698    -0.699034186564    -0.000033107039    12.000000000000
         C           -2.436733603698     0.715578813436     0.000037892961    12.000000000000
         C           -1.245829603698     1.411709813436    -0.000026107039    12.000000000000
         C           -0.004206603698     0.724765813436     0.000038892961    12.000000000000
         H            1.236448396302     2.500925813436    -0.000013107039     1.007825032230
         H            3.372775396302     1.254911813436     0.000030892961     1.007825032230
         H            3.372776396302    -1.238366186564     0.000046892961     1.007825032230
         H            1.236445396302    -2.484380186564    -0.000006107039     1.007825032230
         H           -1.244857603698    -2.484379186564    -0.000041107039     1.007825032230
         H           -3.381189603698    -1.238365186564     0.000076892961     1.007825032230
         H           -3.381189603698     1.254909813436     0.000001892961     1.007825032230
         H           -1.244860603698     2.500925813436     0.000018892961     1.007825032230

  Basis Set: AUG-CC-PVTZ
    Blend: AUG-CC-PVTZ
  Basis Set: (AUG-CC-PVTZ AUX)
    Blend: AUG-CC-PVTZ-JKFIT
	 Reference Energy          =    -383.4645224459934525 [Eh]
	 Singles Energy            =      -0.0000000000000000 [Eh]
	 Same-Spin Energy          =      -0.4339667919065746 [Eh]
	 Opposite-Spin Energy      =      -1.3475428810469445 [Eh]
	 Correlation Energy        =      -1.7815096729535191 [Eh]
	 Total Energy              =    -385.2460321189469710 [Eh]

	 ================> DF-SCS-MP2 Energies <==================
	-----------------------------------------------------------
	 SCS Same-Spin Scale       =       0.3333333333333333 [-]
	 SCS Opposite-Spin Scale   =       1.2000000000000000 [-]
	 SCS Same-Spin Energy      =      -0.1446555973021915 [Eh]
	 SCS Opposite-Spin Energy  =      -1.6170514572563335 [Eh]
	 SCS Correlation Energy    =      -1.7617070545585249 [Eh]
	 SCS Total Energy          =    -385.2262295005519945 [Eh]
	-----------------------------------------------------------

  Dipole Moment: [D]
     X:    -0.0314      Y:    -0.0770      Z:     0.0001     Total:     0.0831

*** Psi4 exiting successfully. Buy a developer a beer!
