                               Psi4 1.4a3.dev225

  ==> Input File <==

--------------------------------------------------------------------------
#psi4
#
memory 32 gb

molecule  {
0 1
  C       -1.2414900    -1.4034410    -0.0038760
  C       -2.4324190    -0.7073040     0.0029100
  C       -2.4324190     0.7073040    -0.0029100
  C       -1.2414900     1.4034410     0.0038760
  C        0.0000000     0.7161900    -0.0087120
  C        1.2414900     1.4034410     0.0038760
  C        2.4324190     0.7073040    -0.0029100
  C        2.4324190    -0.7073040     0.0029100
  C        1.2414900    -1.4034410    -0.0038760
  C        0.0000000    -0.6661937     0.0081038
  H       -1.2405800    -2.4925790     0.0017850
  H       -3.3771300    -1.2461620    -0.0033580
  H       -3.3771300     1.2461620     0.0033580
  H       -1.2405800     2.4925790    -0.0017850
  H        1.2405800     2.4925790    -0.0017850
  H        3.3771300     1.2461620     0.0033580
  H        3.3771300    -1.2461620    -0.0033580
  H        1.2405800    -2.4925790     0.0017850
units angstrom
no_reorient  #important for SAPT in psi4, default
symmetry c1  #important for SAPT in psi4, default
}

set PROPERTIES_ORIGIN ["COM"]
properties('MP2/aug-cc-pvtz', properties = ['dipole'])
--------------------------------------------------------------------------

    Molecular point group: c1
  Charge       = 0
  Multiplicity = 1
  Basis Set: AUG-CC-PVTZ
    Blend: AUG-CC-PVTZ
  Basis Set: (AUG-CC-PVTZ AUX)
    Blend: AUG-CC-PVTZ-JKFIT

    Orbital Energies [Eh]
    ---------------------

    Doubly Occupied:

       1A    -11.245686     2A    -11.241387     3A    -11.241335
       4A    -11.241129     5A    -11.239561     6A    -11.239302
       7A    -11.238226     8A    -11.238178     9A    -11.237262
      10A    -11.237250    11A     -1.178496    12A     -1.108128
      13A     -1.046338    14A     -1.011305    15A     -0.978296
      16A     -0.852767    17A     -0.832373    18A     -0.818505
      19A     -0.703258    20A     -0.698857    21A     -0.674749
      22A     -0.624836    23A     -0.616640    24A     -0.583277
      25A     -0.578759    26A     -0.562474    27A     -0.535224
      28A     -0.525898    29A     -0.485675    30A     -0.481380
      31A     -0.448031    32A     -0.380842    33A     -0.324843
      34A     -0.289080

  @DF-RHF Final Energy:  -383.47438688526256

   => Energetics <=

    Nuclear Repulsion Energy =            457.6953931703157537
    One-Electron Energy =               -1424.8608620764041461
    Two-Electron Energy =                 583.6910820208257746
    Total Energy =                       -383.4743868852625610
  Basis Set: (AUG-CC-PVTZ AUX)
    Blend: AUG-CC-PVTZ-RI
    Molecular point group: c1

    Geometry (in Angstrom), charge = 0, multiplicity = 1:

       Center              X                  Y                   Z               Mass
    ------------   -----------------  -----------------  -----------------  -----------------
         C           -1.241490000000    -1.408125861925    -0.003819009122    12.000000000000
         C           -2.432419000000    -0.711988861925     0.002966990878    12.000000000000
         C           -2.432419000000     0.702619138075    -0.002853009122    12.000000000000
         C           -1.241490000000     1.398756138075     0.003932990878    12.000000000000
         C           -0.000000000000     0.711505138075    -0.008655009122    12.000000000000
         C            1.241490000000     1.398756138075     0.003932990878    12.000000000000
         C            2.432419000000     0.702619138075    -0.002853009122    12.000000000000
         C            2.432419000000    -0.711988861925     0.002966990878    12.000000000000
         C            1.241490000000    -1.408125861925    -0.003819009122    12.000000000000
         C           -0.000000000000    -0.670878561925     0.008160790878    12.000000000000
         H           -1.240580000000    -2.497263861925     0.001841990878     1.007825032230
         H           -3.377130000000    -1.250846861925    -0.003301009122     1.007825032230
         H           -3.377130000000     1.241477138075     0.003414990878     1.007825032230
         H           -1.240580000000     2.487894138075    -0.001728009122     1.007825032230
         H            1.240580000000     2.487894138075    -0.001728009122     1.007825032230
         H            3.377130000000     1.241477138075     0.003414990878     1.007825032230
         H            3.377130000000    -1.250846861925    -0.003301009122     1.007825032230
         H            1.240580000000    -2.497263861925     0.001841990878     1.007825032230

  Basis Set: AUG-CC-PVTZ
    Blend: AUG-CC-PVTZ
  Basis Set: (AUG-CC-PVTZ AUX)
    Blend: AUG-CC-PVTZ-JKFIT
	 Reference Energy          =    -383.4743868852625610 [Eh]
	 Singles Energy            =      -0.0000000000000000 [Eh]
	 Same-Spin Energy          =      -0.4335072855688074 [Eh]
	 Opposite-Spin Energy      =      -1.3477085544269474 [Eh]
	 Correlation Energy        =      -1.7812158399957547 [Eh]
	 Total Energy              =    -385.2556027252583135 [Eh]

	 ================> DF-SCS-MP2 Energies <==================
	-----------------------------------------------------------
	 SCS Same-Spin Scale       =       0.3333333333333333 [-]
	 SCS Opposite-Spin Scale   =       1.2000000000000000 [-]
	 SCS Same-Spin Energy      =      -0.1445024285229358 [Eh]
	 SCS Opposite-Spin Energy  =      -1.6172502653123368 [Eh]
	 SCS Correlation Energy    =      -1.7617526938352726 [Eh]
	 SCS Total Energy          =    -385.2361395790978236 [Eh]
	-----------------------------------------------------------

  Dipole Moment: [D]
     X:     0.0000      Y:    -0.0391      Z:    -0.0002     Total:     0.0391

*** Psi4 exiting successfully. Buy a developer a beer!
