                               Psi4 1.3.2 release

  ==> Input File <==

--------------------------------------------------------------------------
#psi4
#
memory 32 gb

molecule  {
0 1
  C        1.2416220     1.4034370    -0.0000100
  C        2.4325270     0.7073060     0.0000070
  C        2.4325270    -0.7073070    -0.0000060
  C        1.2416220    -1.4034370     0.0000270
  C        0.0000000    -0.7164940    -0.0000890
  C       -1.2416220    -1.4034360     0.0000440
  C       -2.4325280    -0.7073070    -0.0000350
  C       -2.4325270     0.7073060     0.0000360
  C       -1.2416230     1.4034370    -0.0000280
  C       -0.0448943     0.8047775     0.0000382
  H        1.2406550     2.4926530    -0.0000150
  H        3.3769820     1.2466390     0.0000290
  H        3.3769830    -1.2466390     0.0000450
  H        1.2406520    -2.4926530    -0.0000080
  H       -1.2406510    -2.4926520    -0.0000430
  H       -3.3769830    -1.2466380     0.0000750
  H       -3.3769830     1.2466370     0.0000000
  H       -1.2406540     2.4926530     0.0000170
units angstrom
no_reorient  #important for SAPT in psi4, default
symmetry c1  #important for SAPT in psi4, default
}

set PROPERTIES_ORIGIN ["COM"]
properties('MP2/aug-cc-pvtz', properties = ['dipole'])
--------------------------------------------------------------------------

    Molecular point group: c1
  Charge       = 0
  Multiplicity = 1
  Basis Set: AUG-CC-PVTZ
    Blend: AUG-CC-PVTZ
  Basis Set: (AUG-CC-PVTZ AUX)
    Blend: AUG-CC-PVTZ-JKFIT

    Orbital Energies [Eh]
    ---------------------

    Doubly Occupied:

       1A    -11.253344     2A    -11.246579     3A    -11.241115
       4A    -11.240971     5A    -11.240613     6A    -11.240104
       7A    -11.239726     8A    -11.239107     9A    -11.238814
      10A    -11.231931    11A     -1.172982    12A     -1.109497
      13A     -1.058398    14A     -1.004674    15A     -0.983131
      16A     -0.859281    17A     -0.840972    18A     -0.798289
      19A     -0.715676    20A     -0.696625    21A     -0.680381
      22A     -0.623302    23A     -0.603031    24A     -0.590813
      25A     -0.583136    26A     -0.565852    27A     -0.532027
      28A     -0.524446    29A     -0.499998    30A     -0.459718
      31A     -0.449044    32A     -0.396610    33A     -0.313943
      34A     -0.287676

  @DF-RHF Final Energy:  -383.46248033520749

   => Energetics <=

    Nuclear Repulsion Energy =            456.6818996725363604
    One-Electron Energy =               -1422.7651502033124871
    Two-Electron Energy =                 582.6207701955686389
    Total Energy =                       -383.4624803352074878
  Basis Set: (AUG-CC-PVTZ AUX)
    Blend: AUG-CC-PVTZ-RI
    Molecular point group: c1

    Geometry (in Angstrom), charge = 0, multiplicity = 1:

       Center              X                  Y                   Z               Mass
    ------------   -----------------  -----------------  -----------------  -----------------
         C            1.245828962775     1.395164561381    -0.000009306452    12.000000000000
         C            2.436733962775     0.699033561381     0.000007693548    12.000000000000
         C            2.436733962775    -0.715579438619    -0.000005306452    12.000000000000
         C            1.245828962775    -1.411709438619     0.000027693548    12.000000000000
         C            0.004206962775    -0.724766438619    -0.000088306452    12.000000000000
         C           -1.237415037225    -1.411708438619     0.000044693548    12.000000000000
         C           -2.428321037225    -0.715579438619    -0.000034306452    12.000000000000
         C           -2.428320037225     0.699033561381     0.000036693548    12.000000000000
         C           -1.237416037225     1.395164561381    -0.000027306452    12.000000000000
         C           -0.040687337225     0.796505061381     0.000038893548    12.000000000000
         H            1.244861962775     2.484380561381    -0.000014306452     1.007825032230
         H            3.381188962775     1.238366561381     0.000029693548     1.007825032230
         H            3.381189962775    -1.254911438619     0.000045693548     1.007825032230
         H            1.244858962775    -2.500925438619    -0.000007306452     1.007825032230
         H           -1.236444037225    -2.500924438619    -0.000042306452     1.007825032230
         H           -3.372776037225    -1.254910438619     0.000075693548     1.007825032230
         H           -3.372776037225     1.238364561381     0.000000693548     1.007825032230
         H           -1.236447037225     2.484380561381     0.000017693548     1.007825032230

  Basis Set: AUG-CC-PVTZ
    Blend: AUG-CC-PVTZ
  Basis Set: (AUG-CC-PVTZ AUX)
    Blend: AUG-CC-PVTZ-JKFIT
	 Reference Energy          =    -383.4624803352074878 [Eh]
	 Singles Energy            =      -0.0000000000000000 [Eh]
	 Same-Spin Energy          =      -0.4358182443038773 [Eh]
	 Opposite-Spin Energy      =      -1.3494237237887112 [Eh]
	 Correlation Energy        =      -1.7852419680925884 [Eh]
	 Total Energy              =    -385.2477223033000655 [Eh]

	 ================> DF-SCS-MP2 Energies <==================
	-----------------------------------------------------------
	 SCS Same-Spin Scale       =       0.3333333333333333 [-]
	 SCS Opposite-Spin Scale   =       1.2000000000000000 [-]
	 SCS Same-Spin Energy      =      -0.1452727481012924 [Eh]
	 SCS Opposite-Spin Energy  =      -1.6193084685464534 [Eh]
	 SCS Correlation Energy    =      -1.7645812166477457 [Eh]
	 SCS Total Energy          =    -385.2270615518552290 [Eh]
	-----------------------------------------------------------

  Dipole Moment: [D]
     X:    -0.0332      Y:    -0.0771      Z:     0.0000     Total:     0.0840

*** Psi4 exiting successfully. Buy a developer a beer!
