                               Psi4 1.3.2 release

  ==> Input File <==

--------------------------------------------------------------------------
#psi4
#
memory 32 gb

molecule  {
0 1
  C        1.2294441     1.4250017    -0.0000071
  C        2.4325270     0.7073060     0.0000070
  C        2.4325270    -0.7073070    -0.0000060
  C        1.2416220    -1.4034370     0.0000270
  C        0.0000000    -0.7164940    -0.0000890
  C       -1.2416220    -1.4034360     0.0000440
  C       -2.4325280    -0.7073070    -0.0000350
  C       -2.4325270     0.7073060     0.0000360
  C       -1.2416230     1.4034370    -0.0000280
  C        0.0000000     0.7164930     0.0000370
  H        1.2406550     2.4926530    -0.0000150
  H        3.3769820     1.2466390     0.0000290
  H        3.3769830    -1.2466390     0.0000450
  H        1.2406520    -2.4926530    -0.0000080
  H       -1.2406510    -2.4926520    -0.0000430
  H       -3.3769830    -1.2466380     0.0000750
  H       -3.3769830     1.2466370     0.0000000
  H       -1.2406540     2.4926530     0.0000170
units angstrom
no_reorient  #important for SAPT in psi4, default
symmetry c1  #important for SAPT in psi4, default
}

set PROPERTIES_ORIGIN ["COM"]
properties('MP2/aug-cc-pvtz', properties = ['dipole'])
--------------------------------------------------------------------------

    Molecular point group: c1
  Charge       = 0
  Multiplicity = 1
  Basis Set: AUG-CC-PVTZ
    Blend: AUG-CC-PVTZ
  Basis Set: (AUG-CC-PVTZ AUX)
    Blend: AUG-CC-PVTZ-JKFIT

    Orbital Energies [Eh]
    ---------------------

    Doubly Occupied:

       1A    -11.247048     2A    -11.246046     3A    -11.241695
       4A    -11.240238     5A    -11.239938     6A    -11.239871
       7A    -11.239346     8A    -11.238465     9A    -11.238394
      10A    -11.237587    11A     -1.174936    12A     -1.106965
      13A     -1.050688    14A     -1.007884    15A     -0.978983
      16A     -0.854908    17A     -0.834960    18A     -0.812658
      19A     -0.707074    20A     -0.698914    21A     -0.675462
      22A     -0.627006    23A     -0.611755    24A     -0.584904
      25A     -0.581575    26A     -0.562466    27A     -0.532828
      28A     -0.526959    29A     -0.487276    30A     -0.480580
      31A     -0.447058    32A     -0.386169    33A     -0.320040
      34A     -0.287164

  @DF-RHF Final Energy:  -383.47516657380686

   => Energetics <=

    Nuclear Repulsion Energy =            456.9928856607467651
    One-Electron Energy =               -1423.4404243692029013
    Two-Electron Energy =                 582.9723721346492766
    Total Energy =                       -383.4751665738068596
  Basis Set: (AUG-CC-PVTZ AUX)
    Blend: AUG-CC-PVTZ-RI
    Molecular point group: c1

    Geometry (in Angstrom), charge = 0, multiplicity = 1:

       Center              X                  Y                   Z               Mass
    ------------   -----------------  -----------------  -----------------  -----------------
         C            1.230585399582     1.422981185037    -0.000006565750    12.000000000000
         C            2.433668299582     0.705285485037     0.000007534250    12.000000000000
         C            2.433668299582    -0.709327514963    -0.000005465750    12.000000000000
         C            1.242763299582    -1.405457514963     0.000027534250    12.000000000000
         C            0.001141299582    -0.718514514963    -0.000088465750    12.000000000000
         C           -1.240480700418    -1.405456514963     0.000044534250    12.000000000000
         C           -2.431386700418    -0.709327514963    -0.000034465750    12.000000000000
         C           -2.431385700418     0.705285485037     0.000036534250    12.000000000000
         C           -1.240481700418     1.401416485037    -0.000027465750    12.000000000000
         C            0.001141299582     0.714472485037     0.000037534250    12.000000000000
         H            1.241796299582     2.490632485037    -0.000014465750     1.007825032230
         H            3.378123299582     1.244618485037     0.000029534250     1.007825032230
         H            3.378124299582    -1.248659514963     0.000045534250     1.007825032230
         H            1.241793299582    -2.494673514963    -0.000007465750     1.007825032230
         H           -1.239509700418    -2.494672514963    -0.000042465750     1.007825032230
         H           -3.375841700418    -1.248658514963     0.000075534250     1.007825032230
         H           -3.375841700418     1.244616485037     0.000000534250     1.007825032230
         H           -1.239512700418     2.490632485037     0.000017534250     1.007825032230

  Basis Set: AUG-CC-PVTZ
    Blend: AUG-CC-PVTZ
  Basis Set: (AUG-CC-PVTZ AUX)
    Blend: AUG-CC-PVTZ-JKFIT
	 Reference Energy          =    -383.4751665738068596 [Eh]
	 Singles Energy            =      -0.0000000000000000 [Eh]
	 Same-Spin Energy          =      -0.4344155593700918 [Eh]
	 Opposite-Spin Energy      =      -1.3482948053221355 [Eh]
	 Correlation Energy        =      -1.7827103646922273 [Eh]
	 Total Energy              =    -385.2578769384990665 [Eh]

	 ================> DF-SCS-MP2 Energies <==================
	-----------------------------------------------------------
	 SCS Same-Spin Scale       =       0.3333333333333333 [-]
	 SCS Opposite-Spin Scale   =       1.2000000000000000 [-]
	 SCS Same-Spin Energy      =      -0.1448051864566973 [Eh]
	 SCS Opposite-Spin Energy  =      -1.6179537663865626 [Eh]
	 SCS Correlation Energy    =      -1.7627589528432599 [Eh]
	 SCS Total Energy          =    -385.2379255266501445 [Eh]
	-----------------------------------------------------------

  Dipole Moment: [D]
     X:     0.0052      Y:     0.0110      Z:     0.0000     Total:     0.0122

*** Psi4 exiting successfully. Buy a developer a beer!
