                               Psi4 1.3.2 release

  ==> Input File <==

--------------------------------------------------------------------------
#psi4
#
memory 32 gb

molecule  {
0 1
  C        1.2416220     1.4034370    -0.0000100
  C        2.4325270     0.7073060     0.0000070
  C        2.4325270    -0.7073070    -0.0000060
  C        1.2416220    -1.4034370     0.0000270
  C        0.0000000    -0.7164940    -0.0000890
  C       -1.2416220    -1.4034360     0.0000440
  C       -2.4325280    -0.7073070    -0.0000350
  C       -2.4325270     0.7073060     0.0000360
  C       -1.2416230     1.4034370    -0.0000280
  C        0.0000000     0.6164930     0.0000282
  H        1.2406550     2.4926530    -0.0000150
  H        3.3769820     1.2466390     0.0000290
  H        3.3769830    -1.2466390     0.0000450
  H        1.2406520    -2.4926530    -0.0000080
  H       -1.2406510    -2.4926520    -0.0000430
  H       -3.3769830    -1.2466380     0.0000750
  H       -3.3769830     1.2466370     0.0000000
  H       -1.2406540     2.4926530     0.0000170
units angstrom
no_reorient  #important for SAPT in psi4, default
symmetry c1  #important for SAPT in psi4, default
}

set PROPERTIES_ORIGIN ["COM"]
properties('MP2/aug-cc-pvtz', properties = ['dipole'])
--------------------------------------------------------------------------

    Molecular point group: c1
  Charge       = 0
  Multiplicity = 1
  Basis Set: AUG-CC-PVTZ
    Blend: AUG-CC-PVTZ
  Basis Set: (AUG-CC-PVTZ AUX)
    Blend: AUG-CC-PVTZ-JKFIT

    Orbital Energies [Eh]
    ---------------------

    Doubly Occupied:

       1A    -11.244784     2A    -11.243135     3A    -11.242913
       4A    -11.239412     5A    -11.239320     6A    -11.237769
       7A    -11.237741     8A    -11.236638     9A    -11.236634
      10A    -11.234896    11A     -1.182048    12A     -1.107756
      13A     -1.042844    14A     -1.014076    15A     -0.976679
      16A     -0.851232    17A     -0.829783    18A     -0.824429
      19A     -0.702723    20A     -0.696787    21A     -0.672625
      22A     -0.627398    23A     -0.619859    24A     -0.583393
      25A     -0.574277    26A     -0.561178    27A     -0.537512
      28A     -0.526470    29A     -0.491612    30A     -0.472625
      31A     -0.447740    32A     -0.375644    33A     -0.329797
      34A     -0.289602

  @DF-RHF Final Energy:  -383.46577041323019

   => Energetics <=

    Nuclear Repulsion Energy =            458.1022138517700455
    One-Electron Energy =               -1425.6733066230103759
    Two-Electron Energy =                 584.1053223580100848
    Total Energy =                       -383.4657704132301888
  Basis Set: (AUG-CC-PVTZ AUX)
    Blend: AUG-CC-PVTZ-RI
    Molecular point group: c1

    Geometry (in Angstrom), charge = 0, multiplicity = 1:

       Center              X                  Y                   Z               Mass
    ------------   -----------------  -----------------  -----------------  -----------------
         C            1.241622179539     1.412807604670    -0.000008369411    12.000000000000
         C            2.432527179539     0.716676604670     0.000008630589    12.000000000000
         C            2.432527179539    -0.697936395330    -0.000004369411    12.000000000000
         C            1.241622179539    -1.394066395330     0.000028630589    12.000000000000
         C            0.000000179539    -0.707123395330    -0.000087369411    12.000000000000
         C           -1.241621820461    -1.394065395330     0.000045630589    12.000000000000
         C           -2.432527820461    -0.697936395330    -0.000033369411    12.000000000000
         C           -2.432526820461     0.716676604670     0.000037630589    12.000000000000
         C           -1.241622820461     1.412807604670    -0.000026369411    12.000000000000
         C            0.000000179539     0.625863604670     0.000029830589    12.000000000000
         H            1.240655179539     2.502023604670    -0.000013369411     1.007825032230
         H            3.376982179539     1.256009604670     0.000030630589     1.007825032230
         H            3.376983179539    -1.237268395330     0.000046630589     1.007825032230
         H            1.240652179539    -2.483282395330    -0.000006369411     1.007825032230
         H           -1.240650820461    -2.483281395330    -0.000041369411     1.007825032230
         H           -3.376982820461    -1.237267395330     0.000076630589     1.007825032230
         H           -3.376982820461     1.256007604670     0.000001630589     1.007825032230
         H           -1.240653820461     2.502023604670     0.000018630589     1.007825032230

  Basis Set: AUG-CC-PVTZ
    Blend: AUG-CC-PVTZ
  Basis Set: (AUG-CC-PVTZ AUX)
    Blend: AUG-CC-PVTZ-JKFIT
	 Reference Energy          =    -383.4657704132301888 [Eh]
	 Singles Energy            =      -0.0000000000000000 [Eh]
	 Same-Spin Energy          =      -0.4328124832480654 [Eh]
	 Opposite-Spin Energy      =      -1.3478513674681802 [Eh]
	 Correlation Energy        =      -1.7806638507162456 [Eh]
	 Total Energy              =    -385.2464342639464121 [Eh]

	 ================> DF-SCS-MP2 Energies <==================
	-----------------------------------------------------------
	 SCS Same-Spin Scale       =       0.3333333333333333 [-]
	 SCS Opposite-Spin Scale   =       1.2000000000000000 [-]
	 SCS Same-Spin Energy      =      -0.1442708277493551 [Eh]
	 SCS Opposite-Spin Energy  =      -1.6174216409618163 [Eh]
	 SCS Correlation Energy    =      -1.7616924687111715 [Eh]
	 SCS Total Energy          =    -385.2274628819413351 [Eh]
	-----------------------------------------------------------

  Dipole Moment: [D]
     X:     0.0000      Y:     0.0735      Z:     0.0000     Total:     0.0735

*** Psi4 exiting successfully. Buy a developer a beer!
