                               Psi4 1.3.2 release

  ==> Input File <==

--------------------------------------------------------------------------
#psi4
#
memory 32 gb

molecule  {
0 1
  C        1.1906787     1.4883748     0.0000019
  C        2.4325270     0.7073060     0.0000070
  C        2.4325270    -0.7073070    -0.0000060
  C        1.2416220    -1.4034370     0.0000270
  C        0.0000000    -0.7164940    -0.0000890
  C       -1.2416220    -1.4034360     0.0000440
  C       -2.4325280    -0.7073070    -0.0000350
  C       -2.4325270     0.7073060     0.0000360
  C       -1.2416230     1.4034370    -0.0000280
  C        0.0000000     0.7164930     0.0000370
  H        1.2406550     2.4926530    -0.0000150
  H        3.3769820     1.2466390     0.0000290
  H        3.3769830    -1.2466390     0.0000450
  H        1.2406520    -2.4926530    -0.0000080
  H       -1.2406510    -2.4926520    -0.0000430
  H       -3.3769830    -1.2466380     0.0000750
  H       -3.3769830     1.2466370     0.0000000
  H       -1.2406540     2.4926530     0.0000170
units angstrom
no_reorient  #important for SAPT in psi4, default
symmetry c1  #important for SAPT in psi4, default
}

set PROPERTIES_ORIGIN ["COM"]
properties('MP2/aug-cc-pvtz', properties = ['dipole'])
--------------------------------------------------------------------------

    Molecular point group: c1
  Charge       = 0
  Multiplicity = 1
  Basis Set: AUG-CC-PVTZ
    Blend: AUG-CC-PVTZ
  Basis Set: (AUG-CC-PVTZ AUX)
    Blend: AUG-CC-PVTZ-JKFIT

    Orbital Energies [Eh]
    ---------------------

    Doubly Occupied:

       1A    -11.248999     2A    -11.248380     3A    -11.247289
       4A    -11.242752     5A    -11.241782     6A    -11.240007
       7A    -11.239320     8A    -11.238316     9A    -11.237611
      10A    -11.236572    11A     -1.173288    12A     -1.102950
      13A     -1.051832    14A     -1.006562    15A     -0.975539
      16A     -0.856577    17A     -0.832384    18A     -0.817423
      19A     -0.710108    20A     -0.698817    21A     -0.671714
      22A     -0.638057    23A     -0.612500    24A     -0.589357
      25A     -0.576412    26A     -0.557003    27A     -0.531311
      28A     -0.530867    29A     -0.488361    30A     -0.478180
      31A     -0.443723    32A     -0.385694    33A     -0.320033
      34A     -0.282381

  @DF-RHF Final Energy:  -383.46090796317230

   => Energetics <=

    Nuclear Repulsion Energy =            456.1622220240182060
    One-Electron Energy =               -1421.7420617493892223
    Two-Electron Energy =                 582.1189317621987129
    Total Energy =                       -383.4609079631723034
  Basis Set: (AUG-CC-PVTZ AUX)
    Blend: AUG-CC-PVTZ-RI
    Molecular point group: c1

    Geometry (in Angstrom), charge = 0, multiplicity = 1:

       Center              X                  Y                   Z               Mass
    ------------   -----------------  -----------------  -----------------  -----------------
         C            1.195452479315     1.480415961136     0.000001590913    12.000000000000
         C            2.437300779315     0.699347161136     0.000006690913    12.000000000000
         C            2.437300779315    -0.715265838864    -0.000006309087    12.000000000000
         C            1.246395779315    -1.411395838864     0.000026690913    12.000000000000
         C            0.004773779315    -0.724452838864    -0.000089309087    12.000000000000
         C           -1.236848220685    -1.411394838864     0.000043690913    12.000000000000
         C           -2.427754220685    -0.715265838864    -0.000035309087    12.000000000000
         C           -2.427753220685     0.699347161136     0.000035690913    12.000000000000
         C           -1.236849220685     1.395478161136    -0.000028309087    12.000000000000
         C            0.004773779315     0.708534161136     0.000036690913    12.000000000000
         H            1.245428779315     2.484694161136    -0.000015309087     1.007825032230
         H            3.381755779315     1.238680161136     0.000028690913     1.007825032230
         H            3.381756779315    -1.254597838864     0.000044690913     1.007825032230
         H            1.245425779315    -2.500611838864    -0.000008309087     1.007825032230
         H           -1.235877220685    -2.500610838864    -0.000043309087     1.007825032230
         H           -3.372209220685    -1.254596838864     0.000074690913     1.007825032230
         H           -3.372209220685     1.238678161136    -0.000000309087     1.007825032230
         H           -1.235880220685     2.484694161136     0.000016690913     1.007825032230

  Basis Set: AUG-CC-PVTZ
    Blend: AUG-CC-PVTZ
  Basis Set: (AUG-CC-PVTZ AUX)
    Blend: AUG-CC-PVTZ-JKFIT
	 Reference Energy          =    -383.4609079631723034 [Eh]
	 Singles Energy            =      -0.0000000000000000 [Eh]
	 Same-Spin Energy          =      -0.4350224200334256 [Eh]
	 Opposite-Spin Energy      =      -1.3498400674171143 [Eh]
	 Correlation Energy        =      -1.7848624874505399 [Eh]
	 Total Energy              =    -385.2457704506228424 [Eh]

	 ================> DF-SCS-MP2 Energies <==================
	-----------------------------------------------------------
	 SCS Same-Spin Scale       =       0.3333333333333333 [-]
	 SCS Opposite-Spin Scale   =       1.2000000000000000 [-]
	 SCS Same-Spin Energy      =      -0.1450074733444752 [Eh]
	 SCS Opposite-Spin Energy  =      -1.6198080809005371 [Eh]
	 SCS Correlation Energy    =      -1.7648155542450124 [Eh]
	 SCS Total Energy          =    -385.2257235174172934 [Eh]
	-----------------------------------------------------------

  Dipole Moment: [D]
     X:     0.0131      Y:     0.0286      Z:     0.0000     Total:     0.0315

*** Psi4 exiting successfully. Buy a developer a beer!
