                               Psi4 1.4a3.dev225

  ==> Input File <==

--------------------------------------------------------------------------
#psi4
#
memory 32 gb

molecule  {
0 1
  C       -1.2414900    -1.4034410    -0.0038760
  C       -2.4324190    -0.7073040     0.0029100
  C       -2.4324190     0.7073040    -0.0029100
  C       -1.2414900     1.4034410     0.0038760
  C        0.0000000     0.7161900    -0.0087120
  C        1.2414900     1.4034410     0.0038760
  C        2.4324190     0.7073040    -0.0029100
  C        2.4324190    -0.7073040     0.0029100
  C        1.2414900    -1.4034410    -0.0038760
  C        0.0000000    -0.7661863     0.0093202
  H       -1.2405800    -2.4925790     0.0017850
  H       -3.3771300    -1.2461620    -0.0033580
  H       -3.3771300     1.2461620     0.0033580
  H       -1.2405800     2.4925790    -0.0017850
  H        1.2405800     2.4925790    -0.0017850
  H        3.3771300     1.2461620     0.0033580
  H        3.3771300    -1.2461620    -0.0033580
  H        1.2405800    -2.4925790     0.0017850
units angstrom
no_reorient  #important for SAPT in psi4, default
symmetry c1  #important for SAPT in psi4, default
}

set PROPERTIES_ORIGIN ["COM"]
properties('MP2/aug-cc-pvtz', properties = ['dipole'])
--------------------------------------------------------------------------

    Molecular point group: c1
  Charge       = 0
  Multiplicity = 1
  Basis Set: AUG-CC-PVTZ
    Blend: AUG-CC-PVTZ
  Basis Set: (AUG-CC-PVTZ AUX)
    Blend: AUG-CC-PVTZ-JKFIT

    Orbital Energies [Eh]
    ---------------------

    Doubly Occupied:

       1A    -11.250552     2A    -11.246540     3A    -11.240388
       4A    -11.240365     5A    -11.239789     6A    -11.239751
       7A    -11.238641     8A    -11.238621     9A    -11.237471
      10A    -11.237389    11A     -1.173682    12A     -1.108987
      13A     -1.054671    14A     -1.006160    15A     -0.981939
      16A     -0.856805    17A     -0.839238    18A     -0.803863
      19A     -0.711536    20A     -0.697406    21A     -0.678903
      22A     -0.623363    23A     -0.605968    24A     -0.588660
      25A     -0.583124    26A     -0.564974    27A     -0.532343
      28A     -0.524840    29A     -0.495216    30A     -0.469336
      31A     -0.448656    32A     -0.392014    33A     -0.316189
      34A     -0.288326

  @DF-RHF Final Energy:  -383.47229635380154

   => Energetics <=

    Nuclear Repulsion Energy =            456.9397458332877022
    One-Electron Energy =               -1423.3126746044401898
    Two-Electron Energy =                 582.9006324173509483
    Total Energy =                       -383.4722963538015392
  Basis Set: (AUG-CC-PVTZ AUX)
    Blend: AUG-CC-PVTZ-RI
    Molecular point group: c1

    Geometry (in Angstrom), charge = 0, multiplicity = 1:

       Center              X                  Y                   Z               Mass
    ------------   -----------------  -----------------  -----------------  -----------------
         C           -1.241490000000    -1.398756138075    -0.003932990878    12.000000000000
         C           -2.432419000000    -0.702619138075     0.002853009122    12.000000000000
         C           -2.432419000000     0.711988861925    -0.002966990878    12.000000000000
         C           -1.241490000000     1.408125861925     0.003819009122    12.000000000000
         C           -0.000000000000     0.720874861925    -0.008768990878    12.000000000000
         C            1.241490000000     1.408125861925     0.003819009122    12.000000000000
         C            2.432419000000     0.711988861925    -0.002966990878    12.000000000000
         C            2.432419000000    -0.702619138075     0.002853009122    12.000000000000
         C            1.241490000000    -1.398756138075    -0.003932990878    12.000000000000
         C           -0.000000000000    -0.761501438075     0.009263209122    12.000000000000
         H           -1.240580000000    -2.487894138075     0.001728009122     1.007825032230
         H           -3.377130000000    -1.241477138075    -0.003414990878     1.007825032230
         H           -3.377130000000     1.250846861925     0.003301009122     1.007825032230
         H           -1.240580000000     2.497263861925    -0.001841990878     1.007825032230
         H            1.240580000000     2.497263861925    -0.001841990878     1.007825032230
         H            3.377130000000     1.250846861925     0.003301009122     1.007825032230
         H            3.377130000000    -1.241477138075    -0.003414990878     1.007825032230
         H            1.240580000000    -2.487894138075     0.001728009122     1.007825032230

  Basis Set: AUG-CC-PVTZ
    Blend: AUG-CC-PVTZ
  Basis Set: (AUG-CC-PVTZ AUX)
    Blend: AUG-CC-PVTZ-JKFIT
	 Reference Energy          =    -383.4722963538015392 [Eh]
	 Singles Energy            =      -0.0000000000000000 [Eh]
	 Same-Spin Energy          =      -0.4351299781903424 [Eh]
	 Opposite-Spin Energy      =      -1.3485585338574075 [Eh]
	 Correlation Energy        =      -1.7836885120477499 [Eh]
	 Total Energy              =    -385.2559848658493138 [Eh]

	 ================> DF-SCS-MP2 Energies <==================
	-----------------------------------------------------------
	 SCS Same-Spin Scale       =       0.3333333333333333 [-]
	 SCS Opposite-Spin Scale   =       1.2000000000000000 [-]
	 SCS Same-Spin Energy      =      -0.1450433260634474 [Eh]
	 SCS Opposite-Spin Energy  =      -1.6182702406288889 [Eh]
	 SCS Correlation Energy    =      -1.7633135666923363 [Eh]
	 SCS Total Energy          =    -385.2356099204938573 [Eh]
	-----------------------------------------------------------

  Dipole Moment: [D]
     X:     0.0000      Y:     0.0427      Z:     0.0003     Total:     0.0427

*** Psi4 exiting successfully. Buy a developer a beer!
