                               Psi4 1.3.2 release

  ==> Input File <==

--------------------------------------------------------------------------
#psi4
#
memory 32 gb

molecule  {
0 1
  C        1.2534217     1.3816631    -0.0000129
  C        2.4325270     0.7073060     0.0000070
  C        2.4325270    -0.7073070    -0.0000060
  C        1.2416220    -1.4034370     0.0000270
  C        0.0000000    -0.7164940    -0.0000890
  C       -1.2416220    -1.4034360     0.0000440
  C       -2.4325280    -0.7073070    -0.0000350
  C       -2.4325270     0.7073060     0.0000360
  C       -1.2416230     1.4034370    -0.0000280
  C        0.0000000     0.7164930     0.0000370
  H        1.2406550     2.4926530    -0.0000150
  H        3.3769820     1.2466390     0.0000290
  H        3.3769830    -1.2466390     0.0000450
  H        1.2406520    -2.4926530    -0.0000080
  H       -1.2406510    -2.4926520    -0.0000430
  H       -3.3769830    -1.2466380     0.0000750
  H       -3.3769830     1.2466370     0.0000000
  H       -1.2406540     2.4926530     0.0000170
units angstrom
no_reorient  #important for SAPT in psi4, default
symmetry c1  #important for SAPT in psi4, default
}

set PROPERTIES_ORIGIN ["COM"]
properties('MP2/aug-cc-pvtz', properties = ['dipole'])
--------------------------------------------------------------------------

    Molecular point group: c1
  Charge       = 0
  Multiplicity = 1
  Basis Set: AUG-CC-PVTZ
    Blend: AUG-CC-PVTZ
  Basis Set: (AUG-CC-PVTZ AUX)
    Blend: AUG-CC-PVTZ-JKFIT

    Orbital Energies [Eh]
    ---------------------

    Doubly Occupied:

       1A    -11.246508     2A    -11.245500     3A    -11.240376
       4A    -11.239845     5A    -11.239461     6A    -11.238903
       7A    -11.238833     8A    -11.238115     9A    -11.238093
      10A    -11.235737    11A     -1.176568    12A     -1.110286
      13A     -1.050233    14A     -1.009295    15A     -0.981176
      16A     -0.854429    17A     -0.837043    18A     -0.809566
      19A     -0.707109    20A     -0.697846    21A     -0.678266
      22A     -0.621004    23A     -0.611339    24A     -0.586392
      25A     -0.580945    26A     -0.564823    27A     -0.534243
      28A     -0.523781    29A     -0.490737    30A     -0.475195
      31A     -0.449782    32A     -0.386749    33A     -0.320500
      34A     -0.290108

  @DF-RHF Final Energy:  -383.47613856951506

   => Energetics <=

    Nuclear Repulsion Energy =            457.6008387826941544
    One-Electron Energy =               -1424.6563835417850896
    Two-Electron Energy =                 583.5794061895759341
    Total Energy =                       -383.4761385695150011
  Basis Set: (AUG-CC-PVTZ AUX)
    Blend: AUG-CC-PVTZ-RI
    Molecular point group: c1

    Geometry (in Angstrom), charge = 0, multiplicity = 1:

       Center              X                  Y                   Z               Mass
    ------------   -----------------  -----------------  -----------------  -----------------
         C            1.252316198413     1.383703592692    -0.000011822265    12.000000000000
         C            2.431421498413     0.709346492692     0.000008077735    12.000000000000
         C            2.431421498413    -0.705266507308    -0.000004922265    12.000000000000
         C            1.240516498413    -1.401396507308     0.000028077735    12.000000000000
         C           -0.001105501587    -0.714453507308    -0.000087922265    12.000000000000
         C           -1.242727501587    -1.401395507308     0.000045077735    12.000000000000
         C           -2.433633501587    -0.705266507308    -0.000033922265    12.000000000000
         C           -2.433632501587     0.709346492692     0.000037077735    12.000000000000
         C           -1.242728501587     1.405477492692    -0.000026922265    12.000000000000
         C           -0.001105501587     0.718533492692     0.000038077735    12.000000000000
         H            1.239549498413     2.494693492692    -0.000013922265     1.007825032230
         H            3.375876498413     1.248679492692     0.000030077735     1.007825032230
         H            3.375877498413    -1.244598507308     0.000046077735     1.007825032230
         H            1.239546498413    -2.490612507308    -0.000006922265     1.007825032230
         H           -1.241756501587    -2.490611507308    -0.000041922265     1.007825032230
         H           -3.378088501587    -1.244597507308     0.000076077735     1.007825032230
         H           -3.378088501587     1.248677492692     0.000001077735     1.007825032230
         H           -1.241759501587     2.494693492692     0.000018077735     1.007825032230

  Basis Set: AUG-CC-PVTZ
    Blend: AUG-CC-PVTZ
  Basis Set: (AUG-CC-PVTZ AUX)
    Blend: AUG-CC-PVTZ-JKFIT
	 Reference Energy          =    -383.4761385695150580 [Eh]
	 Singles Energy            =      -0.0000000000000000 [Eh]
	 Same-Spin Energy          =      -0.4341463101897562 [Eh]
	 Opposite-Spin Energy      =      -1.3477233641815940 [Eh]
	 Correlation Energy        =      -1.7818696743713502 [Eh]
	 Total Energy              =    -385.2580082438864224 [Eh]

	 ================> DF-SCS-MP2 Energies <==================
	-----------------------------------------------------------
	 SCS Same-Spin Scale       =       0.3333333333333333 [-]
	 SCS Opposite-Spin Scale   =       1.2000000000000000 [-]
	 SCS Same-Spin Energy      =      -0.1447154367299187 [Eh]
	 SCS Opposite-Spin Energy  =      -1.6172680370179127 [Eh]
	 SCS Correlation Energy    =      -1.7619834737478315 [Eh]
	 SCS Total Energy          =    -385.2381220432628766 [Eh]
	-----------------------------------------------------------

  Dipole Moment: [D]
     X:    -0.0064      Y:    -0.0140      Z:     0.0000     Total:     0.0154

*** Psi4 exiting successfully. Buy a developer a beer!
