                               Psi4 1.3.2 release

  ==> Input File <==

--------------------------------------------------------------------------
#psi4
#
memory 32 gb

molecule  {
0 1
  C        1.2416220     1.4034370    -0.0000100
  C        2.4325270     0.7073060     0.0000070
  C        2.4325270    -0.7073070    -0.0000060
  C        1.2416220    -1.4034370     0.0000270
  C        0.0000000    -0.7164940    -0.0000890
  C       -1.2416220    -1.4034360     0.0000440
  C       -2.4325280    -0.7073070    -0.0000350
  C       -2.4325270     0.7073060     0.0000360
  C       -1.2416230     1.4034370    -0.0000280
  C        0.0000000     0.9164930     0.0000546
  H        1.2406550     2.4926530    -0.0000150
  H        3.3769820     1.2466390     0.0000290
  H        3.3769830    -1.2466390     0.0000450
  H        1.2406520    -2.4926530    -0.0000080
  H       -1.2406510    -2.4926520    -0.0000430
  H       -3.3769830    -1.2466380     0.0000750
  H       -3.3769830     1.2466370     0.0000000
  H       -1.2406540     2.4926530     0.0000170
units angstrom
no_reorient  #important for SAPT in psi4, default
symmetry c1  #important for SAPT in psi4, default
}

set PROPERTIES_ORIGIN ["COM"]
properties('MP2/aug-cc-pvtz', properties = ['dipole'])
--------------------------------------------------------------------------

    Molecular point group: c1
  Charge       = 0
  Multiplicity = 1
  Basis Set: AUG-CC-PVTZ
    Blend: AUG-CC-PVTZ
  Basis Set: (AUG-CC-PVTZ AUX)
    Blend: AUG-CC-PVTZ-JKFIT

    Orbital Energies [Eh]
    ---------------------

    Doubly Occupied:

       1A    -11.258239     2A    -11.248129     3A    -11.242975
       4A    -11.242974     5A    -11.241454     6A    -11.241440
       7A    -11.239980     8A    -11.239946     9A    -11.233708
      10A    -11.233600    11A     -1.170663    12A     -1.110401
      13A     -1.067299    14A     -1.001434    15A     -0.988315
      16A     -0.865427    17A     -0.847682    18A     -0.784080
      19A     -0.727986    20A     -0.693959    21A     -0.684706
      22A     -0.622292    23A     -0.603367    24A     -0.591715
      25A     -0.582462    26A     -0.568071    27A     -0.531398
      28A     -0.523040    29A     -0.508273    30A     -0.449641
      31A     -0.432923    32A     -0.408386    33A     -0.306845
      34A     -0.287967

  @DF-RHF Final Energy:  -383.43077791488577

   => Energetics <=

    Nuclear Repulsion Energy =            455.9149390451362365
    One-Electron Energy =               -1421.1298800058407323
    Two-Electron Energy =                 581.7841630458187865
    Total Energy =                       -383.4307779148857662
  Basis Set: (AUG-CC-PVTZ AUX)
    Blend: AUG-CC-PVTZ-RI
    Molecular point group: c1

    Geometry (in Angstrom), charge = 0, multiplicity = 1:

       Center              X                  Y                   Z               Mass
    ------------   -----------------  -----------------  -----------------  -----------------
         C            1.241622179539     1.384696352885    -0.000010843201    12.000000000000
         C            2.432527179539     0.688565352885     0.000006156799    12.000000000000
         C            2.432527179539    -0.726047647115    -0.000006843201    12.000000000000
         C            1.241622179539    -1.422177647115     0.000026156799    12.000000000000
         C            0.000000179539    -0.735234647115    -0.000089843201    12.000000000000
         C           -1.241621820461    -1.422176647115     0.000043156799    12.000000000000
         C           -2.432527820461    -0.726047647115    -0.000035843201    12.000000000000
         C           -2.432526820461     0.688565352885     0.000035156799    12.000000000000
         C           -1.241622820461     1.384696352885    -0.000028843201    12.000000000000
         C            0.000000179539     0.897752352885     0.000053756799    12.000000000000
         H            1.240655179539     2.473912352885    -0.000015843201     1.007825032230
         H            3.376982179539     1.227898352885     0.000028156799     1.007825032230
         H            3.376983179539    -1.265379647115     0.000044156799     1.007825032230
         H            1.240652179539    -2.511393647115    -0.000008843201     1.007825032230
         H           -1.240650820461    -2.511392647115    -0.000043843201     1.007825032230
         H           -3.376982820461    -1.265378647115     0.000074156799     1.007825032230
         H           -3.376982820461     1.227896352885    -0.000000843201     1.007825032230
         H           -1.240653820461     2.473912352885     0.000016156799     1.007825032230

  Basis Set: AUG-CC-PVTZ
    Blend: AUG-CC-PVTZ
  Basis Set: (AUG-CC-PVTZ AUX)
    Blend: AUG-CC-PVTZ-JKFIT
	 Reference Energy          =    -383.4307779148857662 [Eh]
	 Singles Energy            =      -0.0000000000000000 [Eh]
	 Same-Spin Energy          =      -0.4384042329193692 [Eh]
	 Opposite-Spin Energy      =      -1.3525724825623049 [Eh]
	 Correlation Energy        =      -1.7909767154816740 [Eh]
	 Total Energy              =    -385.2217546303674567 [Eh]

	 ================> DF-SCS-MP2 Energies <==================
	-----------------------------------------------------------
	 SCS Same-Spin Scale       =       0.3333333333333333 [-]
	 SCS Opposite-Spin Scale   =       1.2000000000000000 [-]
	 SCS Same-Spin Energy      =      -0.1461347443064564 [Eh]
	 SCS Opposite-Spin Energy  =      -1.6230869790747657 [Eh]
	 SCS Correlation Energy    =      -1.7692217233812222 [Eh]
	 SCS Total Energy          =    -385.1999996382670020 [Eh]
	-----------------------------------------------------------

  Dipole Moment: [D]
     X:     0.0000      Y:    -0.1768      Z:     0.0001     Total:     0.1768

*** Psi4 exiting successfully. Buy a developer a beer!
