                               Psi4 1.3.2 release

  ==> Input File <==

--------------------------------------------------------------------------
#psi4
#
memory 32 gb

molecule  {
0 1
  C        1.2416220     1.4034370    -0.0000100
  C        2.4325270     0.7073060     0.0000070
  C        2.4325270    -0.7073070    -0.0000060
  C        1.2416220    -1.4034370     0.0000270
  C        0.0000000    -0.7164940    -0.0000890
  C       -1.2416220    -1.4034360     0.0000440
  C       -2.4325280    -0.7073070    -0.0000350
  C       -2.4325270     0.7073060     0.0000360
  C       -1.2416230     1.4034370    -0.0000280
  C        0.0000000     0.5164930     0.0000194
  H        1.2406550     2.4926530    -0.0000150
  H        3.3769820     1.2466390     0.0000290
  H        3.3769830    -1.2466390     0.0000450
  H        1.2406520    -2.4926530    -0.0000080
  H       -1.2406510    -2.4926520    -0.0000430
  H       -3.3769830    -1.2466380     0.0000750
  H       -3.3769830     1.2466370     0.0000000
  H       -1.2406540     2.4926530     0.0000170
units angstrom
no_reorient  #important for SAPT in psi4, default
symmetry c1  #important for SAPT in psi4, default
}

set PROPERTIES_ORIGIN ["COM"]
properties('MP2/aug-cc-pvtz', properties = ['dipole'])
--------------------------------------------------------------------------

    Molecular point group: c1
  Charge       = 0
  Multiplicity = 1
  Basis Set: AUG-CC-PVTZ
    Blend: AUG-CC-PVTZ
  Basis Set: (AUG-CC-PVTZ AUX)
    Blend: AUG-CC-PVTZ-JKFIT

    Orbital Energies [Eh]
    ---------------------

    Doubly Occupied:

       1A    -11.246390     2A    -11.246362     3A    -11.240902
       4A    -11.239113     5A    -11.239099     6A    -11.237053
       7A    -11.237051     8A    -11.235405     9A    -11.235403
      10A    -11.221156    11A     -1.192351    12A     -1.107128
      13A     -1.040288    14A     -1.016936    15A     -0.973712
      16A     -0.849140    17A     -0.840262    18A     -0.818411
      19A     -0.705309    20A     -0.690427    21A     -0.668574
      22A     -0.635941    23A     -0.620763    24A     -0.584104
      25A     -0.566503    26A     -0.558505    27A     -0.544573
      28A     -0.527562    29A     -0.500129    30A     -0.450890
      31A     -0.447097    32A     -0.367736    33A     -0.339684
      34A     -0.290810

  @DF-RHF Final Energy:  -383.42280849491073

   => Energetics <=

    Nuclear Repulsion Energy =            459.0662259500917344
    One-Electron Energy =               -1427.5485288909817427
    Two-Electron Energy =                 585.0594944459792259
    Total Energy =                       -383.4228084949107824
  Basis Set: (AUG-CC-PVTZ AUX)
    Blend: AUG-CC-PVTZ-RI
    Molecular point group: c1

    Geometry (in Angstrom), charge = 0, multiplicity = 1:

       Center              X                  Y                   Z               Mass
    ------------   -----------------  -----------------  -----------------  -----------------
         C            1.241622179539     1.422178021931    -0.000007544814    12.000000000000
         C            2.432527179539     0.726047021931     0.000009455186    12.000000000000
         C            2.432527179539    -0.688565978069    -0.000003544814    12.000000000000
         C            1.241622179539    -1.384695978069     0.000029455186    12.000000000000
         C            0.000000179539    -0.697752978069    -0.000086544814    12.000000000000
         C           -1.241621820461    -1.384694978069     0.000046455186    12.000000000000
         C           -2.432527820461    -0.688565978069    -0.000032544814    12.000000000000
         C           -2.432526820461     0.726047021931     0.000038455186    12.000000000000
         C           -1.241622820461     1.422178021931    -0.000025544814    12.000000000000
         C            0.000000179539     0.535234021931     0.000021855186    12.000000000000
         H            1.240655179539     2.511394021931    -0.000012544814     1.007825032230
         H            3.376982179539     1.265380021931     0.000031455186     1.007825032230
         H            3.376983179539    -1.227897978069     0.000047455186     1.007825032230
         H            1.240652179539    -2.473911978069    -0.000005544814     1.007825032230
         H           -1.240650820461    -2.473910978069    -0.000040544814     1.007825032230
         H           -3.376982820461    -1.227896978069     0.000077455186     1.007825032230
         H           -3.376982820461     1.265378021931     0.000002455186     1.007825032230
         H           -1.240653820461     2.511394021931     0.000019455186     1.007825032230

  Basis Set: AUG-CC-PVTZ
    Blend: AUG-CC-PVTZ
  Basis Set: (AUG-CC-PVTZ AUX)
    Blend: AUG-CC-PVTZ-JKFIT
	 Reference Energy          =    -383.4228084949107256 [Eh]
	 Singles Energy            =      -0.0000000000000000 [Eh]
	 Same-Spin Energy          =      -0.4316698130589661 [Eh]
	 Opposite-Spin Energy      =      -1.3491702408348185 [Eh]
	 Correlation Energy        =      -1.7808400538937845 [Eh]
	 Total Energy              =    -385.2036485488044946 [Eh]

	 ================> DF-SCS-MP2 Energies <==================
	-----------------------------------------------------------
	 SCS Same-Spin Scale       =       0.3333333333333333 [-]
	 SCS Opposite-Spin Scale   =       1.2000000000000000 [-]
	 SCS Same-Spin Energy      =      -0.1438899376863220 [Eh]
	 SCS Opposite-Spin Energy  =      -1.6190042890017822 [Eh]
	 SCS Correlation Energy    =      -1.7628942266881042 [Eh]
	 SCS Total Energy          =    -385.1857027215988296 [Eh]
	-----------------------------------------------------------

  Dipole Moment: [D]
     X:     0.0000      Y:     0.1228      Z:     0.0000     Total:     0.1228

*** Psi4 exiting successfully. Buy a developer a beer!
