                               Psi4 1.4a2.dev612

  ==> Input File <==

--------------------------------------------------------------------------
#psi4
#
memory 32 gb

molecule  {
0 1
  N       -0.0163110    -1.1135150     0.2687020
  C       -1.2530910    -0.4674540     0.0795420
  C        1.2381220    -0.5006260     0.1304260
  C       -2.4182660    -1.1561390     0.4533410
  C        2.2667570    -1.1558630    -0.5622090
  C       -1.3361884     0.8731325    -0.3821023
  C        1.5092770     0.7278700     0.7556340
  C       -3.6714090    -0.5759060     0.2727570
  C        3.5406120    -0.5923050    -0.6332660
  C       -2.6261210     1.4012190    -0.6198330
  C        2.7778010     1.2960600     0.6560260
  C       -3.7841190     0.7131400    -0.2541910
  C        3.8015860     0.6410890    -0.0341290
  H       -0.0267310    -2.1016380     0.0386100
  H       -2.3298760    -2.1493130     0.8905540
  H        2.0612250    -2.1062600    -1.0527600
  H       -0.4782440     1.3547320    -0.7878460
  H        0.7296610     1.2176160     1.3328820
  H       -4.5621930    -1.1275980     0.5644400
  H        4.3269750    -1.1156860    -1.1722660
  H       -2.6987240     2.4001080    -1.0444480
  H        2.9731640     2.2486720     1.1432600
  H       -4.7609150     1.1715970    -0.3832790
  H        4.7911470     1.0854140    -0.1002240
units angstrom
no_reorient  #important for SAPT in psi4, default
symmetry c1  #important for SAPT in psi4, default
}

set PROPERTIES_ORIGIN ["COM"]
properties('MP2/aug-cc-pvtz', properties = ['dipole'])
--------------------------------------------------------------------------

    Molecular point group: c1
  Charge       = 0
  Multiplicity = 1
  Basis Set: AUG-CC-PVTZ
    Blend: AUG-CC-PVTZ
  Basis Set: (AUG-CC-PVTZ AUX)
    Blend: AUG-CC-PVTZ-JKFIT

    Orbital Energies [Eh]
    ---------------------

    Doubly Occupied:

       1A    -15.581095     2A    -11.287964     3A    -11.283630
       4A    -11.241676     5A    -11.241092     6A    -11.240980
       7A    -11.240262     8A    -11.234293     9A    -11.230931
      10A    -11.230206    11A    -11.229524    12A    -11.229269
      13A    -11.225834    14A     -1.261795    15A     -1.150383
      16A     -1.125455    17A     -1.023800    18A     -1.018230
      19A     -1.010393    20A     -0.972181    21A     -0.846099
      22A     -0.841173    23A     -0.819364    24A     -0.794446
      25A     -0.716665    26A     -0.707060    27A     -0.679933
      28A     -0.657218    29A     -0.627338    30A     -0.622385
      31A     -0.599977    32A     -0.592190    33A     -0.586770
      34A     -0.585132    35A     -0.542116    36A     -0.520981
      37A     -0.506227    38A     -0.502291    39A     -0.496757
      40A     -0.492475    41A     -0.448871    42A     -0.341962
      43A     -0.338603    44A     -0.336324    45A     -0.279350

  @DF-RHF Final Energy:  -515.43735123971692

   => Energetics <=

    Nuclear Repulsion Energy =            694.9386008810278099
    One-Electron Energy =               -2075.6705063777658324
    Two-Electron Energy =                 865.2945542570209909
    Total Energy =                       -515.4373512397169179
  Basis Set: (AUG-CC-PVTZ AUX)
    Blend: AUG-CC-PVTZ-RI
    Molecular point group: c1

    Geometry (in Angstrom), charge = 0, multiplicity = 1:

       Center              X                  Y                   Z               Mass
    ------------   -----------------  -----------------  -----------------  -----------------
         N           -0.018302916770    -1.111992067521     0.259647269398    14.003074004430
         C           -1.255082916770    -0.465931067521     0.070487269398    12.000000000000
         C            1.236130083230    -0.499103067521     0.121371269398    12.000000000000
         C           -2.420257916770    -1.154616067521     0.444286269398    12.000000000000
         C            2.264765083230    -1.154340067521    -0.571263730602    12.000000000000
         C           -1.338180316770     0.874655432479    -0.391157030602    12.000000000000
         C            1.507285083230     0.729392932479     0.746579269398    12.000000000000
         C           -3.673400916770    -0.574383067521     0.263702269398    12.000000000000
         C            3.538620083230    -0.590782067521    -0.642320730602    12.000000000000
         C           -2.628112916770     1.402741932479    -0.628887730602    12.000000000000
         C            2.775809083230     1.297582932479     0.646971269398    12.000000000000
         C           -3.786110916770     0.714662932479    -0.263245730602    12.000000000000
         C            3.799594083230     0.642611932479    -0.043183730602    12.000000000000
         H           -0.028722916770    -2.100115067521     0.029555269398     1.007825032230
         H           -2.331867916770    -2.147790067521     0.881499269398     1.007825032230
         H            2.059233083230    -2.104737067521    -1.061814730602     1.007825032230
         H           -0.480235916770     1.356254932479    -0.796900730602     1.007825032230
         H            0.727669083230     1.219138932479     1.323827269398     1.007825032230
         H           -4.564184916770    -1.126075067521     0.555385269398     1.007825032230
         H            4.324983083230    -1.114163067521    -1.181320730602     1.007825032230
         H           -2.700715916770     2.401630932479    -1.053502730602     1.007825032230
         H            2.971172083230     2.250194932479     1.134205269398     1.007825032230
         H           -4.762906916770     1.173119932479    -0.392333730602     1.007825032230
         H            4.789155083230     1.086936932479    -0.109278730602     1.007825032230

  Basis Set: AUG-CC-PVTZ
    Blend: AUG-CC-PVTZ
  Basis Set: (AUG-CC-PVTZ AUX)
    Blend: AUG-CC-PVTZ-JKFIT
	 Reference Energy          =    -515.4373512397169179 [Eh]
	 Singles Energy            =      -0.0000000000000000 [Eh]
	 Same-Spin Energy          =      -0.5800693409776210 [Eh]
	 Opposite-Spin Energy      =      -1.7970390148936306 [Eh]
	 Correlation Energy        =      -2.3771083558712514 [Eh]
	 Total Energy              =    -517.8144595955881186 [Eh]

	 ================> DF-SCS-MP2 Energies <==================
	-----------------------------------------------------------
	 SCS Same-Spin Scale       =       0.3333333333333333 [-]
	 SCS Opposite-Spin Scale   =       1.2000000000000000 [-]
	 SCS Same-Spin Energy      =      -0.1933564469925403 [Eh]
	 SCS Opposite-Spin Energy  =      -2.1564468178723568 [Eh]
	 SCS Correlation Energy    =      -2.3498032648648972 [Eh]
	 SCS Total Energy          =    -517.7871545045818493 [Eh]
	-----------------------------------------------------------

  Dipole Moment: [D]
     X:     0.1741      Y:    -0.7367      Z:    -0.3829     Total:     0.8483

*** Psi4 exiting successfully. Buy a developer a beer!
