                               Psi4 1.4a2.dev612

  ==> Input File <==

--------------------------------------------------------------------------
#psi4
#
memory 32 gb

molecule  {
0 1
  N       -0.0163110    -1.1135150     0.2687020
  C       -1.2530910    -0.4674540     0.0795420
  C        1.2381220    -0.5006260     0.1304260
  C       -2.4182660    -1.1561390     0.4533410
  C        2.2667570    -1.1558630    -0.5622090
  C       -1.3060098     0.9245220    -0.3018005
  C        1.5092770     0.7278700     0.7556340
  C       -3.6714090    -0.5759060     0.2727570
  C        3.5406120    -0.5923050    -0.6332660
  C       -2.6261210     1.4012190    -0.6198330
  C        2.7778010     1.2960600     0.6560260
  C       -3.7841190     0.7131400    -0.2541910
  C        3.8015860     0.6410890    -0.0341290
  H       -0.0267310    -2.1016380     0.0386100
  H       -2.3298760    -2.1493130     0.8905540
  H        2.0612250    -2.1062600    -1.0527600
  H       -0.4782440     1.3547320    -0.7878460
  H        0.7296610     1.2176160     1.3328820
  H       -4.5621930    -1.1275980     0.5644400
  H        4.3269750    -1.1156860    -1.1722660
  H       -2.6987240     2.4001080    -1.0444480
  H        2.9731640     2.2486720     1.1432600
  H       -4.7609150     1.1715970    -0.3832790
  H        4.7911470     1.0854140    -0.1002240
units angstrom
no_reorient  #important for SAPT in psi4, default
symmetry c1  #important for SAPT in psi4, default
}

set PROPERTIES_ORIGIN ["COM"]
properties('MP2/aug-cc-pvtz', properties = ['dipole'])
--------------------------------------------------------------------------

    Molecular point group: c1
  Charge       = 0
  Multiplicity = 1
  Basis Set: AUG-CC-PVTZ
    Blend: AUG-CC-PVTZ
  Basis Set: (AUG-CC-PVTZ AUX)
    Blend: AUG-CC-PVTZ-JKFIT

    Orbital Energies [Eh]
    ---------------------

    Doubly Occupied:

       1A    -15.582228     2A    -11.292741     3A    -11.283547
       4A    -11.245813     5A    -11.243591     6A    -11.240968
       7A    -11.239963     8A    -11.234576     9A    -11.231173
      10A    -11.230700    11A    -11.229773    12A    -11.229670
      13A    -11.225121    14A     -1.262253    15A     -1.149051
      16A     -1.123965    17A     -1.023398    18A     -1.017863
      19A     -1.008196    20A     -0.971571    21A     -0.847050
      22A     -0.840697    23A     -0.818155    24A     -0.793541
      25A     -0.716188    26A     -0.706102    27A     -0.681078
      28A     -0.657288    29A     -0.626546    30A     -0.621722
      31A     -0.600542    32A     -0.590478    33A     -0.586698
      34A     -0.582724    35A     -0.541395    36A     -0.520891
      37A     -0.505678    38A     -0.500577    39A     -0.497627
      40A     -0.490870    41A     -0.448578    42A     -0.341698
      43A     -0.338295    44A     -0.335183    45A     -0.278286

  @DF-RHF Final Energy:  -515.42548850484911

   => Energetics <=

    Nuclear Repulsion Energy =            694.4556481615520624
    One-Electron Energy =               -2074.6941759345427272
    Two-Electron Energy =                 864.8130392681415515
    Total Energy =                       -515.4254885048491133
  Basis Set: (AUG-CC-PVTZ AUX)
    Blend: AUG-CC-PVTZ-RI
    Molecular point group: c1

    Geometry (in Angstrom), charge = 0, multiplicity = 1:

       Center              X                  Y                   Z               Mass
    ------------   -----------------  -----------------  -----------------  -----------------
         N           -0.020444646155    -1.115639102250     0.253948372670    14.003074004430
         C           -1.257224646155    -0.469578102250     0.064788372670    12.000000000000
         C            1.233988353845    -0.502750102250     0.115672372670    12.000000000000
         C           -2.422399646155    -1.158263102250     0.438587372670    12.000000000000
         C            2.262623353845    -1.157987102250    -0.576962627330    12.000000000000
         C           -1.310143446155     0.922397897750    -0.316554127330    12.000000000000
         C            1.505143353845     0.725745897750     0.740880372670    12.000000000000
         C           -3.675542646155    -0.578030102250     0.258003372670    12.000000000000
         C            3.536478353845    -0.594429102250    -0.648019627330    12.000000000000
         C           -2.630254646155     1.399094897750    -0.634586627330    12.000000000000
         C            2.773667353845     1.293935897750     0.641272372670    12.000000000000
         C           -3.788252646155     0.711015897750    -0.268944627330    12.000000000000
         C            3.797452353845     0.638964897750    -0.048882627330    12.000000000000
         H           -0.030864646155    -2.103762102250     0.023856372670     1.007825032230
         H           -2.334009646155    -2.151437102250     0.875800372670     1.007825032230
         H            2.057091353845    -2.108384102250    -1.067513627330     1.007825032230
         H           -0.482377646155     1.352607897750    -0.802599627330     1.007825032230
         H            0.725527353845     1.215491897750     1.318128372670     1.007825032230
         H           -4.566326646155    -1.129722102250     0.549686372670     1.007825032230
         H            4.322841353845    -1.117810102250    -1.187019627330     1.007825032230
         H           -2.702857646155     2.397983897750    -1.059201627330     1.007825032230
         H            2.969030353845     2.246547897750     1.128506372670     1.007825032230
         H           -4.765048646155     1.169472897750    -0.398032627330     1.007825032230
         H            4.787013353845     1.083289897750    -0.114977627330     1.007825032230

  Basis Set: AUG-CC-PVTZ
    Blend: AUG-CC-PVTZ
  Basis Set: (AUG-CC-PVTZ AUX)
    Blend: AUG-CC-PVTZ-JKFIT
	 Reference Energy          =    -515.4254885048491133 [Eh]
	 Singles Energy            =      -0.0000000000000000 [Eh]
	 Same-Spin Energy          =      -0.5806164813622392 [Eh]
	 Opposite-Spin Energy      =      -1.7988889675107025 [Eh]
	 Correlation Energy        =      -2.3795054488729415 [Eh]
	 Total Energy              =    -517.8049939537220325 [Eh]

	 ================> DF-SCS-MP2 Energies <==================
	-----------------------------------------------------------
	 SCS Same-Spin Scale       =       0.3333333333333333 [-]
	 SCS Opposite-Spin Scale   =       1.2000000000000000 [-]
	 SCS Same-Spin Energy      =      -0.1935388271207464 [Eh]
	 SCS Opposite-Spin Energy  =      -2.1586667610128427 [Eh]
	 SCS Correlation Energy    =      -2.3522055881335890 [Eh]
	 SCS Total Energy          =    -517.7776940929827560 [Eh]
	-----------------------------------------------------------

  Dipole Moment: [D]
     X:     0.1777      Y:    -0.8180      Z:    -0.4066     Total:     0.9306

*** Psi4 exiting successfully. Buy a developer a beer!
