                               Psi4 1.4a2.dev612

  ==> Input File <==

--------------------------------------------------------------------------
#psi4
#
memory 32 gb

molecule  {
0 1
  N       -0.0163110    -1.1135150     0.2687020
  C       -1.2530910    -0.4674540     0.0795420
  C        1.2381220    -0.5006260     0.1304260
  C       -2.4182660    -1.1561390     0.4533410
  C        2.2667570    -1.1558630    -0.5622090
  C       -1.3512777     0.8474377    -0.4222531
  C        1.5092770     0.7278700     0.7556340
  C       -3.6714090    -0.5759060     0.2727570
  C        3.5406120    -0.5923050    -0.6332660
  C       -2.6261210     1.4012190    -0.6198330
  C        2.7778010     1.2960600     0.6560260
  C       -3.7841190     0.7131400    -0.2541910
  C        3.8015860     0.6410890    -0.0341290
  H       -0.0267310    -2.1016380     0.0386100
  H       -2.3298760    -2.1493130     0.8905540
  H        2.0612250    -2.1062600    -1.0527600
  H       -0.4782440     1.3547320    -0.7878460
  H        0.7296610     1.2176160     1.3328820
  H       -4.5621930    -1.1275980     0.5644400
  H        4.3269750    -1.1156860    -1.1722660
  H       -2.6987240     2.4001080    -1.0444480
  H        2.9731640     2.2486720     1.1432600
  H       -4.7609150     1.1715970    -0.3832790
  H        4.7911470     1.0854140    -0.1002240
units angstrom
no_reorient  #important for SAPT in psi4, default
symmetry c1  #important for SAPT in psi4, default
}

set PROPERTIES_ORIGIN ["COM"]
properties('MP2/aug-cc-pvtz', properties = ['dipole'])
--------------------------------------------------------------------------

    Molecular point group: c1
  Charge       = 0
  Multiplicity = 1
  Basis Set: AUG-CC-PVTZ
    Blend: AUG-CC-PVTZ
  Basis Set: (AUG-CC-PVTZ AUX)
    Blend: AUG-CC-PVTZ-JKFIT

    Orbital Energies [Eh]
    ---------------------

    Doubly Occupied:

       1A    -15.580730     2A    -11.286112     3A    -11.283644
       4A    -11.241118     5A    -11.240352     6A    -11.240123
       7A    -11.240069     8A    -11.234161     9A    -11.231002
      10A    -11.230440    11A    -11.229446    12A    -11.228645
      13A    -11.226176    14A     -1.261639    15A     -1.151074
      16A     -1.126151    17A     -1.024057    18A     -1.018354
      19A     -1.011119    20A     -0.972451    21A     -0.845604
      22A     -0.841324    23A     -0.819941    24A     -0.794640
      25A     -0.716814    26A     -0.707484    27A     -0.679175
      28A     -0.657082    29A     -0.628009    30A     -0.622271
      31A     -0.599475    32A     -0.592983    33A     -0.586874
      34A     -0.585575    35A     -0.542365    36A     -0.520923
      37A     -0.506731    38A     -0.503014    39A     -0.495924
      40A     -0.492508    41A     -0.448886    42A     -0.342099
      43A     -0.338682    44A     -0.336877    45A     -0.279977

  @DF-RHF Final Energy:  -515.44059828160221

   => Energetics <=

    Nuclear Repulsion Energy =            695.1074508352126031
    One-Electron Energy =               -2076.0118960096524461
    Two-Electron Energy =                 865.4638468928376369
    Total Energy =                       -515.4405982816022060
  Basis Set: (AUG-CC-PVTZ AUX)
    Blend: AUG-CC-PVTZ-RI
    Molecular point group: c1

    Geometry (in Angstrom), charge = 0, multiplicity = 1:

       Center              X                  Y                   Z               Mass
    ------------   -----------------  -----------------  -----------------  -----------------
         N           -0.017232052077    -1.110168546608     0.262496710665    14.003074004430
         C           -1.254012052077    -0.464107546608     0.073336710665    12.000000000000
         C            1.237200947923    -0.497279546608     0.124220710665    12.000000000000
         C           -2.419187052077    -1.152792546608     0.447135710665    12.000000000000
         C            2.265835947923    -1.152516546608    -0.568414289335    12.000000000000
         C           -1.352198752077     0.850784153392    -0.428458389335    12.000000000000
         C            1.508355947923     0.731216453392     0.749428710665    12.000000000000
         C           -3.672330052077    -0.572559546608     0.266551710665    12.000000000000
         C            3.539690947923    -0.588958546608    -0.639471289335    12.000000000000
         C           -2.627042052077     1.404565453392    -0.626038289335    12.000000000000
         C            2.776879947923     1.299406453392     0.649820710665    12.000000000000
         C           -3.785040052077     0.716486453392    -0.260396289335    12.000000000000
         C            3.800664947923     0.644435453392    -0.040334289335    12.000000000000
         H           -0.027652052077    -2.098291546608     0.032404710665     1.007825032230
         H           -2.330797052077    -2.145966546608     0.884348710665     1.007825032230
         H            2.060303947923    -2.102913546608    -1.058965289335     1.007825032230
         H           -0.479165052077     1.358078453392    -0.794051289335     1.007825032230
         H            0.728739947923     1.220962453392     1.326676710665     1.007825032230
         H           -4.563114052077    -1.124251546608     0.558234710665     1.007825032230
         H            4.326053947923    -1.112339546608    -1.178471289335     1.007825032230
         H           -2.699645052077     2.403454453392    -1.050653289335     1.007825032230
         H            2.972242947923     2.252018453392     1.137054710665     1.007825032230
         H           -4.761836052077     1.174943453392    -0.389484289335     1.007825032230
         H            4.790225947923     1.088760453392    -0.106429289335     1.007825032230

  Basis Set: AUG-CC-PVTZ
    Blend: AUG-CC-PVTZ
  Basis Set: (AUG-CC-PVTZ AUX)
    Blend: AUG-CC-PVTZ-JKFIT
	 Reference Energy          =    -515.4405982816022060 [Eh]
	 Singles Energy            =      -0.0000000000000000 [Eh]
	 Same-Spin Energy          =      -0.5798985025062580 [Eh]
	 Opposite-Spin Energy      =      -1.7964573517468203 [Eh]
	 Correlation Energy        =      -2.3763558542530783 [Eh]
	 Total Energy              =    -517.8169541358553261 [Eh]

	 ================> DF-SCS-MP2 Energies <==================
	-----------------------------------------------------------
	 SCS Same-Spin Scale       =       0.3333333333333333 [-]
	 SCS Opposite-Spin Scale   =       1.2000000000000000 [-]
	 SCS Same-Spin Energy      =      -0.1932995008354193 [Eh]
	 SCS Opposite-Spin Energy  =      -2.1557488220961845 [Eh]
	 SCS Correlation Energy    =      -2.3490483229316039 [Eh]
	 SCS Total Energy          =    -517.7896466045338002 [Eh]
	-----------------------------------------------------------

  Dipole Moment: [D]
     X:     0.1656      Y:    -0.7067      Z:    -0.3671     Total:     0.8134

*** Psi4 exiting successfully. Buy a developer a beer!
