                               Psi4 1.4a2.dev612

  ==> Input File <==

--------------------------------------------------------------------------
#psi4
#
memory 32 gb

molecule  {
0 1
  N       -0.0163110    -1.1135150     0.2687020
  C       -1.2530910    -0.4674540     0.0795420
  C        1.2381220    -0.5006260     0.1304260
  C       -2.4182660    -1.1561390     0.4533410
  C        2.2667570    -1.1558630    -0.5622090
  C       -1.2758311     0.9759115    -0.2214988
  C        1.5092770     0.7278700     0.7556340
  C       -3.6714090    -0.5759060     0.2727570
  C        3.5406120    -0.5923050    -0.6332660
  C       -2.6261210     1.4012190    -0.6198330
  C        2.7778010     1.2960600     0.6560260
  C       -3.7841190     0.7131400    -0.2541910
  C        3.8015860     0.6410890    -0.0341290
  H       -0.0267310    -2.1016380     0.0386100
  H       -2.3298760    -2.1493130     0.8905540
  H        2.0612250    -2.1062600    -1.0527600
  H       -0.4782440     1.3547320    -0.7878460
  H        0.7296610     1.2176160     1.3328820
  H       -4.5621930    -1.1275980     0.5644400
  H        4.3269750    -1.1156860    -1.1722660
  H       -2.6987240     2.4001080    -1.0444480
  H        2.9731640     2.2486720     1.1432600
  H       -4.7609150     1.1715970    -0.3832790
  H        4.7911470     1.0854140    -0.1002240
units angstrom
no_reorient  #important for SAPT in psi4, default
symmetry c1  #important for SAPT in psi4, default
}

set PROPERTIES_ORIGIN ["COM"]
properties('MP2/aug-cc-pvtz', properties = ['dipole'])
--------------------------------------------------------------------------

    Molecular point group: c1
  Charge       = 0
  Multiplicity = 1
  Basis Set: AUG-CC-PVTZ
    Blend: AUG-CC-PVTZ
  Basis Set: (AUG-CC-PVTZ AUX)
    Blend: AUG-CC-PVTZ-JKFIT

    Orbital Energies [Eh]
    ---------------------

    Doubly Occupied:

       1A    -15.583971     2A    -11.298669     3A    -11.283365
       4A    -11.250884     5A    -11.247457     6A    -11.240736
       7A    -11.239476     8A    -11.234888     9A    -11.233569
      10A    -11.230312    11A    -11.229801    12A    -11.229445
      13A    -11.224426    14A     -1.262936    15A     -1.147858
      16A     -1.122496    17A     -1.023166    18A     -1.017403
      19A     -1.004865    20A     -0.970802    21A     -0.847847
      22A     -0.840041    23A     -0.817025    24A     -0.792023
      25A     -0.715616    26A     -0.705211    27A     -0.681511
      28A     -0.657024    29A     -0.626518    30A     -0.620150
      31A     -0.600414    32A     -0.588674    33A     -0.585978
      34A     -0.579253    35A     -0.540571    36A     -0.520313
      37A     -0.505705    38A     -0.498713    39A     -0.497113
      40A     -0.487069    41A     -0.447937    42A     -0.341404
      43A     -0.337851    44A     -0.334150    45A     -0.277588

  @DF-RHF Final Energy:  -515.40699930416804

   => Energetics <=

    Nuclear Repulsion Energy =            693.7944996474313939
    One-Electron Energy =               -2073.3585570202840245
    Two-Electron Energy =                 864.1570580686845915
    Total Energy =                       -515.4069993041680391
  Basis Set: (AUG-CC-PVTZ AUX)
    Blend: AUG-CC-PVTZ-RI
    Molecular point group: c1

    Geometry (in Angstrom), charge = 0, multiplicity = 1:

       Center              X                  Y                   Z               Mass
    ------------   -----------------  -----------------  -----------------  -----------------
         N           -0.022586382638    -1.119286136979     0.248249483039    14.003074004430
         C           -1.259366382638    -0.473225136979     0.059089483039    12.000000000000
         C            1.231846617362    -0.506397136979     0.109973483039    12.000000000000
         C           -2.424541382638    -1.161910136979     0.432888483039    12.000000000000
         C            2.260481617362    -1.161634136979    -0.582661516961    12.000000000000
         C           -1.282106482638     0.970140363021    -0.241951316961    12.000000000000
         C            1.503001617362     0.722098863021     0.735181483039    12.000000000000
         C           -3.677684382638    -0.581677136979     0.252304483039    12.000000000000
         C            3.534336617362    -0.598076136979    -0.653718516961    12.000000000000
         C           -2.632396382638     1.395447863021    -0.640285516961    12.000000000000
         C            2.771525617362     1.290288863021     0.635573483039    12.000000000000
         C           -3.790394382638     0.707368863021    -0.274643516961    12.000000000000
         C            3.795310617362     0.635317863021    -0.054581516961    12.000000000000
         H           -0.033006382638    -2.107409136979     0.018157483039     1.007825032230
         H           -2.336151382638    -2.155084136979     0.870101483039     1.007825032230
         H            2.054949617362    -2.112031136979    -1.073212516961     1.007825032230
         H           -0.484519382638     1.348960863021    -0.808298516961     1.007825032230
         H            0.723385617362     1.211844863021     1.312429483039     1.007825032230
         H           -4.568468382638    -1.133369136979     0.543987483039     1.007825032230
         H            4.320699617362    -1.121457136979    -1.192718516961     1.007825032230
         H           -2.704999382638     2.394336863021    -1.064900516961     1.007825032230
         H            2.966888617362     2.242900863021     1.122807483039     1.007825032230
         H           -4.767190382638     1.165825863021    -0.403731516961     1.007825032230
         H            4.784871617362     1.079642863021    -0.120676516961     1.007825032230

  Basis Set: AUG-CC-PVTZ
    Blend: AUG-CC-PVTZ
  Basis Set: (AUG-CC-PVTZ AUX)
    Blend: AUG-CC-PVTZ-JKFIT
	 Reference Energy          =    -515.4069993041680391 [Eh]
	 Singles Energy            =      -0.0000000000000000 [Eh]
	 Same-Spin Energy          =      -0.5813729267559533 [Eh]
	 Opposite-Spin Energy      =      -1.8014979044246795 [Eh]
	 Correlation Energy        =      -2.3828708311806328 [Eh]
	 Total Energy              =    -517.7898701353486786 [Eh]

	 ================> DF-SCS-MP2 Energies <==================
	-----------------------------------------------------------
	 SCS Same-Spin Scale       =       0.3333333333333333 [-]
	 SCS Opposite-Spin Scale   =       1.2000000000000000 [-]
	 SCS Same-Spin Energy      =      -0.1937909755853178 [Eh]
	 SCS Opposite-Spin Energy  =      -2.1617974853096151 [Eh]
	 SCS Correlation Energy    =      -2.3555884608949329 [Eh]
	 SCS Total Energy          =    -517.7625877650630173 [Eh]
	-----------------------------------------------------------

  Dipole Moment: [D]
     X:     0.1692      Y:    -0.9276      Z:    -0.4198     Total:     1.0321

*** Psi4 exiting successfully. Buy a developer a beer!
