                               Psi4 1.4a2.dev612

  ==> Input File <==

--------------------------------------------------------------------------
#psi4
#
memory 32 gb

molecule  {
0 1
  N       -0.0163110    -1.1135150     0.2687020
  C       -1.2530910    -0.4674540     0.0795420
  C        1.2381220    -0.5006260     0.1304260
  C       -2.4182660    -1.1561390     0.4533410
  C        2.2667570    -1.1558630    -0.5622090
  C       -1.3210991     0.8988272    -0.3419514
  C        1.5092770     0.7278700     0.7556340
  C       -3.6714090    -0.5759060     0.2727570
  C        3.5406120    -0.5923050    -0.6332660
  C       -2.6261210     1.4012190    -0.6198330
  C        2.7778010     1.2960600     0.6560260
  C       -3.7841190     0.7131400    -0.2541910
  C        3.8015860     0.6410890    -0.0341290
  H       -0.0267310    -2.1016380     0.0386100
  H       -2.3298760    -2.1493130     0.8905540
  H        2.0612250    -2.1062600    -1.0527600
  H       -0.4782440     1.3547320    -0.7878460
  H        0.7296610     1.2176160     1.3328820
  H       -4.5621930    -1.1275980     0.5644400
  H        4.3269750    -1.1156860    -1.1722660
  H       -2.6987240     2.4001080    -1.0444480
  H        2.9731640     2.2486720     1.1432600
  H       -4.7609150     1.1715970    -0.3832790
  H        4.7911470     1.0854140    -0.1002240
units angstrom
no_reorient  #important for SAPT in psi4, default
symmetry c1  #important for SAPT in psi4, default
}

set PROPERTIES_ORIGIN ["COM"]
properties('MP2/aug-cc-pvtz', properties = ['dipole'])
--------------------------------------------------------------------------

    Molecular point group: c1
  Charge       = 0
  Multiplicity = 1
  Basis Set: AUG-CC-PVTZ
    Blend: AUG-CC-PVTZ
  Basis Set: (AUG-CC-PVTZ AUX)
    Blend: AUG-CC-PVTZ-JKFIT

    Orbital Energies [Eh]
    ---------------------

    Doubly Occupied:

       1A    -15.581591     2A    -11.290186     3A    -11.283599
       4A    -11.243601     5A    -11.242134     6A    -11.241043
       7A    -11.240134     8A    -11.234431     9A    -11.230833
      10A    -11.230132    11A    -11.229980    12A    -11.229599
      13A    -11.225480    14A     -1.261998    15A     -1.149705
      16A     -1.124720    17A     -1.023579    18A     -1.018063
      19A     -1.009428    20A     -0.971889    21A     -0.846585
      22A     -0.840961    23A     -0.818760    24A     -0.794079
      25A     -0.716450    26A     -0.706593    27A     -0.680581
      28A     -0.657292    29A     -0.626824    30A     -0.622214
      31A     -0.600348    32A     -0.591359    33A     -0.586761
      34A     -0.584114    35A     -0.541785    36A     -0.520979
      37A     -0.505861    38A     -0.501473    39A     -0.497375
      40A     -0.491907    41A     -0.448768    42A     -0.341831
      43A     -0.338471    44A     -0.335752    45A     -0.278781

  @DF-RHF Final Energy:  -515.43229151783532

   => Energetics <=

    Nuclear Repulsion Energy =            694.7206313881195001
    One-Electron Energy =               -2075.2297859992022495
    Two-Electron Energy =                 865.0768630932474252
    Total Energy =                       -515.4322915178353242
  Basis Set: (AUG-CC-PVTZ AUX)
    Blend: AUG-CC-PVTZ-RI
    Molecular point group: c1

    Geometry (in Angstrom), charge = 0, multiplicity = 1:

       Center              X                  Y                   Z               Mass
    ------------   -----------------  -----------------  -----------------  -----------------
         N           -0.019373781462    -1.113815581337     0.256797821034    14.003074004430
         C           -1.256153781462    -0.467754581337     0.067637821034    12.000000000000
         C            1.235059218538    -0.500926581337     0.118521821034    12.000000000000
         C           -2.421328781462    -1.156439581337     0.441436821034    12.000000000000
         C            2.263694218538    -1.156163581337    -0.574113178966    12.000000000000
         C           -1.324161881462     0.898526618663    -0.353855578966    12.000000000000
         C            1.506214218538     0.727569418663     0.743729821034    12.000000000000
         C           -3.674471781462    -0.576206581337     0.260852821034    12.000000000000
         C            3.537549218538    -0.592605581337    -0.645170178966    12.000000000000
         C           -2.629183781462     1.400918418663    -0.631737178966    12.000000000000
         C            2.774738218538     1.295759418663     0.644121821034    12.000000000000
         C           -3.787181781462     0.712839418663    -0.266095178966    12.000000000000
         C            3.798523218538     0.640788418663    -0.046033178966    12.000000000000
         H           -0.029793781462    -2.101938581337     0.026705821034     1.007825032230
         H           -2.332938781462    -2.149613581337     0.878649821034     1.007825032230
         H            2.058162218538    -2.106560581337    -1.064664178966     1.007825032230
         H           -0.481306781462     1.354431418663    -0.799750178966     1.007825032230
         H            0.726598218538     1.217315418663     1.320977821034     1.007825032230
         H           -4.565255781462    -1.127898581337     0.552535821034     1.007825032230
         H            4.323912218538    -1.115986581337    -1.184170178966     1.007825032230
         H           -2.701786781462     2.399807418663    -1.056352178966     1.007825032230
         H            2.970101218538     2.248371418663     1.131355821034     1.007825032230
         H           -4.763977781462     1.171296418663    -0.395183178966     1.007825032230
         H            4.788084218538     1.085113418663    -0.112128178966     1.007825032230

  Basis Set: AUG-CC-PVTZ
    Blend: AUG-CC-PVTZ
  Basis Set: (AUG-CC-PVTZ AUX)
    Blend: AUG-CC-PVTZ-JKFIT
	 Reference Energy          =    -515.4322915178353242 [Eh]
	 Singles Energy            =      -0.0000000000000000 [Eh]
	 Same-Spin Energy          =      -0.5803111681990372 [Eh]
	 Opposite-Spin Energy      =      -1.7978577720779616 [Eh]
	 Correlation Energy        =      -2.3781689402769990 [Eh]
	 Total Energy              =    -517.8104604581122885 [Eh]

	 ================> DF-SCS-MP2 Energies <==================
	-----------------------------------------------------------
	 SCS Same-Spin Scale       =       0.3333333333333333 [-]
	 SCS Opposite-Spin Scale   =       1.2000000000000000 [-]
	 SCS Same-Spin Energy      =      -0.1934370560663457 [Eh]
	 SCS Opposite-Spin Energy  =      -2.1574293264935540 [Eh]
	 SCS Correlation Energy    =      -2.3508663825598997 [Eh]
	 SCS Total Energy          =    -517.7831579003951674 [Eh]
	-----------------------------------------------------------

  Dipole Moment: [D]
     X:     0.1779      Y:    -0.7737      Z:    -0.3960     Total:     0.8872

*** Psi4 exiting successfully. Buy a developer a beer!
