                               Psi4 1.4a2.dev612

  ==> Input File <==

--------------------------------------------------------------------------
#psi4
#
memory 32 gb

molecule  {
0 1
  N       -0.0163110    -1.1135150     0.2687020
  C       -1.2530910    -0.4674540     0.0795420
  C        1.2381220    -0.5006260     0.1304260
  C       -2.4182660    -1.1561390     0.4533410
  C        2.2667570    -1.1558630    -0.5622090
  C       -1.2909204     0.9502167    -0.2616496
  C        1.5092770     0.7278700     0.7556340
  C       -3.6714090    -0.5759060     0.2727570
  C        3.5406120    -0.5923050    -0.6332660
  C       -2.6261210     1.4012190    -0.6198330
  C        2.7778010     1.2960600     0.6560260
  C       -3.7841190     0.7131400    -0.2541910
  C        3.8015860     0.6410890    -0.0341290
  H       -0.0267310    -2.1016380     0.0386100
  H       -2.3298760    -2.1493130     0.8905540
  H        2.0612250    -2.1062600    -1.0527600
  H       -0.4782440     1.3547320    -0.7878460
  H        0.7296610     1.2176160     1.3328820
  H       -4.5621930    -1.1275980     0.5644400
  H        4.3269750    -1.1156860    -1.1722660
  H       -2.6987240     2.4001080    -1.0444480
  H        2.9731640     2.2486720     1.1432600
  H       -4.7609150     1.1715970    -0.3832790
  H        4.7911470     1.0854140    -0.1002240
units angstrom
no_reorient  #important for SAPT in psi4, default
symmetry c1  #important for SAPT in psi4, default
}

set PROPERTIES_ORIGIN ["COM"]
properties('MP2/aug-cc-pvtz', properties = ['dipole'])
--------------------------------------------------------------------------

    Molecular point group: c1
  Charge       = 0
  Multiplicity = 1
  Basis Set: AUG-CC-PVTZ
    Blend: AUG-CC-PVTZ
  Basis Set: (AUG-CC-PVTZ AUX)
    Blend: AUG-CC-PVTZ-JKFIT

    Orbital Energies [Eh]
    ---------------------

    Doubly Occupied:

       1A    -15.583017     2A    -11.295586     3A    -11.283469
       4A    -11.248260     5A    -11.245363     6A    -11.240867
       7A    -11.239745     8A    -11.234728     9A    -11.232335
      10A    -11.230527    11A    -11.229737    12A    -11.229591
      13A    -11.224767    14A     -1.262564    15A     -1.148433
      16A     -1.123214    17A     -1.023260    18A     -1.017640
      19A     -1.006676    20A     -0.971215    21A     -0.847476
      22A     -0.840388    23A     -0.817572    24A     -0.792846
      25A     -0.715900    26A     -0.705625    27A     -0.681392
      28A     -0.657200    29A     -0.626471    30A     -0.620991
      31A     -0.600556    32A     -0.589554    33A     -0.586489
      34A     -0.581074    35A     -0.540977    36A     -0.520682
      37A     -0.505654    38A     -0.499635    39A     -0.497524
      40A     -0.489292    41A     -0.448301    42A     -0.341557
      43A     -0.338085    44A     -0.334641    45A     -0.277882

  @DF-RHF Final Energy:  -515.41702623178992

   => Energetics <=

    Nuclear Repulsion Energy =            694.1460549979873349
    One-Electron Energy =               -2074.0686447164439414
    Two-Electron Energy =                 864.5055634866665741
    Total Energy =                       -515.4170262317899187
  Basis Set: (AUG-CC-PVTZ AUX)
    Blend: AUG-CC-PVTZ-RI
    Molecular point group: c1

    Geometry (in Angstrom), charge = 0, multiplicity = 1:

       Center              X                  Y                   Z               Mass
    ------------   -----------------  -----------------  -----------------  -----------------
         N           -0.021515517945    -1.117462616066     0.251098924306    14.003074004430
         C           -1.258295517945    -0.471401616066     0.061938924306    12.000000000000
         C            1.232917482055    -0.504573616066     0.112822924306    12.000000000000
         C           -2.423470517945    -1.160086616066     0.435737924306    12.000000000000
         C            2.261552482055    -1.159810616066    -0.579812075694    12.000000000000
         C           -1.296124917945     0.946269083934    -0.279252675694    12.000000000000
         C            1.504072482055     0.723922383934     0.738030924306    12.000000000000
         C           -3.676613517945    -0.579853616066     0.255153924306    12.000000000000
         C            3.535407482055    -0.596252616066    -0.650869075694    12.000000000000
         C           -2.631325517945     1.397271383934    -0.637436075694    12.000000000000
         C            2.772596482055     1.292112383934     0.638422924306    12.000000000000
         C           -3.789323517945     0.709192383934    -0.271794075694    12.000000000000
         C            3.796381482055     0.637141383934    -0.051732075694    12.000000000000
         H           -0.031935517945    -2.105585616066     0.021006924306     1.007825032230
         H           -2.335080517945    -2.153260616066     0.872950924306     1.007825032230
         H            2.056020482055    -2.110207616066    -1.070363075694     1.007825032230
         H           -0.483448517945     1.350784383934    -0.805449075694     1.007825032230
         H            0.724456482055     1.213668383934     1.315278924306     1.007825032230
         H           -4.567397517945    -1.131545616066     0.546836924306     1.007825032230
         H            4.321770482055    -1.119633616066    -1.189869075694     1.007825032230
         H           -2.703928517945     2.396160383934    -1.062051075694     1.007825032230
         H            2.967959482055     2.244724383934     1.125656924306     1.007825032230
         H           -4.766119517945     1.167649383934    -0.400882075694     1.007825032230
         H            4.785942482055     1.081466383934    -0.117827075694     1.007825032230

  Basis Set: AUG-CC-PVTZ
    Blend: AUG-CC-PVTZ
  Basis Set: (AUG-CC-PVTZ AUX)
    Blend: AUG-CC-PVTZ-JKFIT
	 Reference Energy          =    -515.4170262317899187 [Eh]
	 Singles Energy            =      -0.0000000000000000 [Eh]
	 Same-Spin Energy          =      -0.5809749992485749 [Eh]
	 Opposite-Spin Energy      =      -1.8001110174112511 [Eh]
	 Correlation Energy        =      -2.3810860166598262 [Eh]
	 Total Energy              =    -517.7981122484497973 [Eh]

	 ================> DF-SCS-MP2 Energies <==================
	-----------------------------------------------------------
	 SCS Same-Spin Scale       =       0.3333333333333333 [-]
	 SCS Opposite-Spin Scale   =       1.2000000000000000 [-]
	 SCS Same-Spin Energy      =      -0.1936583330828583 [Eh]
	 SCS Opposite-Spin Energy  =      -2.1601332208935013 [Eh]
	 SCS Correlation Energy    =      -2.3537915539763596 [Eh]
	 SCS Total Energy          =    -517.7708177857663259 [Eh]
	-----------------------------------------------------------

  Dipole Moment: [D]
     X:     0.1743      Y:    -0.8693      Z:    -0.4146     Total:     0.9788

*** Psi4 exiting successfully. Buy a developer a beer!
