                               Psi4 1.3.2 release

  ==> Input File <==

--------------------------------------------------------------------------
#psi4
#
memory 32 gb

molecule  {
0 1
 Cl       -1.6618979    -0.1941683    -0.1126810
 Cl        1.0048330    -1.3498640    -0.0833960
 Cl        0.6665980     1.5451390    -0.0834000
  C        0.0000270     0.0000110     0.4524940
  H        0.0000210     0.0000570     1.5382550
units angstrom
no_reorient  #important for SAPT in psi4, default
symmetry c1  #important for SAPT in psi4, default
}

set PROPERTIES_ORIGIN ["COM"]
properties('MP2/aug-cc-pvtz', properties = ['dipole'])
--------------------------------------------------------------------------

    Molecular point group: c1
  Charge       = 0
  Multiplicity = 1
  Basis Set: AUG-CC-PVTZ
    Blend: AUG-CC-PVTZ
  Basis Set: (AUG-CC-PVTZ AUX)
    Blend: AUG-CC-PVTZ-JKFIT

    Orbital Energies [Eh]
    ---------------------

    Doubly Occupied:

       1A   -104.867286     2A   -104.867070     3A   -104.867069
       4A    -11.435452     5A    -10.591707     6A    -10.591515
       7A    -10.591506     8A     -8.058515     9A     -8.058319
      10A     -8.058318    11A     -8.056381    12A     -8.056337
      13A     -8.056188    14A     -8.056187    15A     -8.056142
      16A     -8.056141    17A     -1.243537    18A     -1.115686
      19A     -1.115247    20A     -0.874927    21A     -0.682460
      22A     -0.627194    23A     -0.626734    24A     -0.505179
      25A     -0.504511    26A     -0.468749    27A     -0.468330
      28A     -0.465966    29A     -0.451538

  @DF-RHF Final Energy: -1417.00230701105420

   => Energetics <=

    Nuclear Repulsion Energy =            263.8413629900232991
    One-Electron Energy =               -2482.7389625645682827
    Two-Electron Energy =                 801.8952925634907842
    Total Energy =                      -1417.0023070110541994
  Basis Set: (AUG-CC-PVTZ AUX)
    Blend: AUG-CC-PVTZ-RI
    Molecular point group: c1

    Geometry (in Angstrom), charge = 0, multiplicity = 1:

       Center              X                  Y                   Z               Mass
    ------------   -----------------  -----------------  -----------------  -----------------
         CL          -1.664727976579    -0.194498111125    -0.088996271529    34.968852682000
         CL           1.002002923421    -1.350193811125    -0.059711271529    34.968852682000
         CL           0.663767923421     1.544809188875    -0.059715271529    34.968852682000
         C           -0.002803076579    -0.000318811125     0.476178728471    12.000000000000
         H           -0.002809076579    -0.000272811125     1.561939728471     1.007825032230

  Basis Set: AUG-CC-PVTZ
    Blend: AUG-CC-PVTZ
  Basis Set: (AUG-CC-PVTZ AUX)
    Blend: AUG-CC-PVTZ-JKFIT
	 Reference Energy          =   -1417.0023070110541994 [Eh]
	 Singles Energy            =      -0.0000000000000000 [Eh]
	 Same-Spin Energy          =      -0.2275061132696233 [Eh]
	 Opposite-Spin Energy      =      -0.6560729191135435 [Eh]
	 Correlation Energy        =      -0.8835790323831667 [Eh]
	 Total Energy              =   -1417.8858860434372673 [Eh]

	 ================> DF-SCS-MP2 Energies <==================
	-----------------------------------------------------------
	 SCS Same-Spin Scale       =       0.3333333333333333 [-]
	 SCS Opposite-Spin Scale   =       1.2000000000000000 [-]
	 SCS Same-Spin Energy      =      -0.0758353710898744 [Eh]
	 SCS Opposite-Spin Energy  =      -0.7872875029362522 [Eh]
	 SCS Correlation Energy    =      -0.8631228740261265 [Eh]
	 SCS Total Energy          =   -1417.8654298850804025 [Eh]
	-----------------------------------------------------------

  Dipole Moment: [D]
     X:    -0.0101      Y:    -0.0011      Z:     1.0632     Total:     1.0633

*** Psi4 exiting successfully. Buy a developer a beer!
