                               Psi4 1.3.2 release

  ==> Input File <==

--------------------------------------------------------------------------
#psi4
#
memory 32 gb

molecule  {
0 1
 Cl       -1.6636996    -0.2218472    -0.0969746
 Cl        1.0048330    -1.3498640    -0.0833960
 Cl        0.6665980     1.5451390    -0.0834000
  C        0.0000270     0.0000110     0.4524940
  H        0.0000210     0.0000570     1.5382550
units angstrom
no_reorient  #important for SAPT in psi4, default
symmetry c1  #important for SAPT in psi4, default
}

set PROPERTIES_ORIGIN ["COM"]
properties('MP2/aug-cc-pvtz', properties = ['dipole'])
--------------------------------------------------------------------------

    Molecular point group: c1
  Charge       = 0
  Multiplicity = 1
  Basis Set: AUG-CC-PVTZ
    Blend: AUG-CC-PVTZ
  Basis Set: (AUG-CC-PVTZ AUX)
    Blend: AUG-CC-PVTZ-JKFIT

    Orbital Energies [Eh]
    ---------------------

    Doubly Occupied:

       1A   -104.867827     2A   -104.867325     3A   -104.866633
       4A    -11.435358     5A    -10.592206     6A    -10.591740
       7A    -10.591104     8A     -8.059017     9A     -8.058549
      10A     -8.057912    11A     -8.056885    12A     -8.056838
      13A     -8.056416    14A     -8.056371    15A     -8.055780
      16A     -8.055734    17A     -1.243404    18A     -1.116521
      19A     -1.114721    20A     -0.874808    21A     -0.682187
      22A     -0.627807    23A     -0.626305    24A     -0.505603
      25A     -0.503993    26A     -0.469671    27A     -0.468136
      28A     -0.465469    29A     -0.451721

  @DF-RHF Final Energy: -1417.00227995518730

   => Energetics <=

    Nuclear Repulsion Energy =            263.6997856802433375
    One-Electron Energy =               -2482.4520462566456445
    Two-Electron Energy =                 801.7499806212149451
    Total Energy =                      -1417.0022799551875323
  Basis Set: (AUG-CC-PVTZ AUX)
    Blend: AUG-CC-PVTZ-RI
    Molecular point group: c1

    Geometry (in Angstrom), charge = 0, multiplicity = 1:

       Center              X                  Y                   Z               Mass
    ------------   -----------------  -----------------  -----------------  -----------------
         CL          -1.665995361932    -0.213968518223    -0.077947783256    34.968852682000
         CL           1.002537238068    -1.341985318223    -0.064369183256    34.968852682000
         CL           0.664302238068     1.553017681777    -0.064373183256    34.968852682000
         C           -0.002268761932     0.007889681777     0.471520816744    12.000000000000
         H           -0.002274761932     0.007935681777     1.557281816744     1.007825032230

  Basis Set: AUG-CC-PVTZ
    Blend: AUG-CC-PVTZ
  Basis Set: (AUG-CC-PVTZ AUX)
    Blend: AUG-CC-PVTZ-JKFIT
	 Reference Energy          =   -1417.0022799551873049 [Eh]
	 Singles Energy            =      -0.0000000000000000 [Eh]
	 Same-Spin Energy          =      -0.2274945541063040 [Eh]
	 Opposite-Spin Energy      =      -0.6560703608491230 [Eh]
	 Correlation Energy        =      -0.8835649149554270 [Eh]
	 Total Energy              =   -1417.8858448701428188 [Eh]

	 ================> DF-SCS-MP2 Energies <==================
	-----------------------------------------------------------
	 SCS Same-Spin Scale       =       0.3333333333333333 [-]
	 SCS Opposite-Spin Scale   =       1.2000000000000000 [-]
	 SCS Same-Spin Energy      =      -0.0758315180354347 [Eh]
	 SCS Opposite-Spin Energy  =      -0.7872844330189476 [Eh]
	 SCS Correlation Energy    =      -0.8631159510543822 [Eh]
	 SCS Total Energy          =   -1417.8653959062417016 [Eh]
	-----------------------------------------------------------

  Dipole Moment: [D]
     X:    -0.0066      Y:     0.0168      Z:     1.0592     Total:     1.0593

*** Psi4 exiting successfully. Buy a developer a beer!
