                               Psi4 1.3.2 release

  ==> Input File <==

--------------------------------------------------------------------------
#psi4
#
memory 32 gb

molecule  {
0 1
 Cl       -1.6714420    -0.1952820    -0.0833930
 Cl        1.0048330    -1.3498640    -0.0833960
 Cl        0.6665980     1.5451390    -0.0834000
  C        0.0000270     0.0000110     0.4524940
  H        0.0000221     0.0000485     1.3382550
units angstrom
no_reorient  #important for SAPT in psi4, default
symmetry c1  #important for SAPT in psi4, default
}

set PROPERTIES_ORIGIN ["COM"]
properties('MP2/aug-cc-pvtz', properties = ['dipole'])
--------------------------------------------------------------------------

    Molecular point group: c1
  Charge       = 0
  Multiplicity = 1
  Basis Set: AUG-CC-PVTZ
    Blend: AUG-CC-PVTZ
  Basis Set: (AUG-CC-PVTZ AUX)
    Blend: AUG-CC-PVTZ-JKFIT

    Orbital Energies [Eh]
    ---------------------

    Doubly Occupied:

       1A   -104.867604     2A   -104.867603     3A   -104.867598
       4A    -11.415961     5A    -10.592061     6A    -10.592058
       7A    -10.592045     8A     -8.058872     9A     -8.058871
      10A     -8.058866    11A     -8.056746    12A     -8.056746
      13A     -8.056740    14A     -8.056702    15A     -8.056701
      16A     -8.056696    17A     -1.253453    18A     -1.116396
      19A     -1.116387    20A     -0.926319    21A     -0.702684
      22A     -0.628396    23A     -0.628391    24A     -0.505643
      25A     -0.505639    26A     -0.476635    27A     -0.469453
      28A     -0.469449    29A     -0.452470

  @DF-RHF Final Energy: -1416.96795268650703

   => Energetics <=

    Nuclear Repulsion Energy =            264.9316991198916185
    One-Electron Energy =               -2484.6729350084069665
    Two-Electron Energy =                 802.7732832020083151
    Total Energy =                      -1416.9679526865070329
  Basis Set: (AUG-CC-PVTZ AUX)
    Blend: AUG-CC-PVTZ-RI
    Molecular point group: c1

    Geometry (in Angstrom), charge = 0, multiplicity = 1:

       Center              X                  Y                   Z               Mass
    ------------   -----------------  -----------------  -----------------  -----------------
         CL          -1.671441674472    -0.195281458061    -0.066684543036    34.968852682000
         CL           1.004833325528    -1.349863458061    -0.066687543036    34.968852682000
         CL           0.666598325528     1.545139541939    -0.066691543036    34.968852682000
         C            0.000027325528     0.000011541939     0.469202456964    12.000000000000
         H            0.000022425528     0.000049041939     1.354963456964     1.007825032230

  Basis Set: AUG-CC-PVTZ
    Blend: AUG-CC-PVTZ
  Basis Set: (AUG-CC-PVTZ AUX)
    Blend: AUG-CC-PVTZ-JKFIT
	 Reference Energy          =   -1416.9679526865070329 [Eh]
	 Singles Energy            =      -0.0000000000000000 [Eh]
	 Same-Spin Energy          =      -0.2269759462241774 [Eh]
	 Opposite-Spin Energy      =      -0.6557170539664626 [Eh]
	 Correlation Energy        =      -0.8826930001906400 [Eh]
	 Total Energy              =   -1417.8506456866975896 [Eh]

	 ================> DF-SCS-MP2 Energies <==================
	-----------------------------------------------------------
	 SCS Same-Spin Scale       =       0.3333333333333333 [-]
	 SCS Opposite-Spin Scale   =       1.2000000000000000 [-]
	 SCS Same-Spin Energy      =      -0.0756586487413925 [Eh]
	 SCS Opposite-Spin Energy  =      -0.7868604647597551 [Eh]
	 SCS Correlation Energy    =      -0.8625191135011476 [Eh]
	 SCS Total Energy          =   -1417.8304718000081266 [Eh]
	-----------------------------------------------------------

  Dipole Moment: [D]
     X:     0.0002      Y:     0.0001      Z:     0.9672     Total:     0.9672

*** Psi4 exiting successfully. Buy a developer a beer!
