                               Psi4 1.3.2 release

  ==> Input File <==

--------------------------------------------------------------------------
#psi4
#
memory 32 gb

molecule  {
0 1
 Cl       -1.6174381    -0.3534984    -0.1622911
 Cl        1.0048330    -1.3498640    -0.0833960
 Cl        0.6665980     1.5451390    -0.0834000
  C        0.0000270     0.0000110     0.4524940
  H        0.0000210     0.0000570     1.5382550
units angstrom
no_reorient  #important for SAPT in psi4, default
symmetry c1  #important for SAPT in psi4, default
}

set PROPERTIES_ORIGIN ["COM"]
properties('MP2/aug-cc-pvtz', properties = ['dipole'])
--------------------------------------------------------------------------

    Molecular point group: c1
  Charge       = 0
  Multiplicity = 1
  Basis Set: AUG-CC-PVTZ
    Blend: AUG-CC-PVTZ
  Basis Set: (AUG-CC-PVTZ AUX)
    Blend: AUG-CC-PVTZ-JKFIT

    Orbital Energies [Eh]
    ---------------------

    Doubly Occupied:

       1A   -104.870051     2A   -104.866910     3A   -104.862813
       4A    -11.435679     5A    -10.594283     6A    -10.591396
       7A    -10.587621     8A     -8.061096     9A     -8.058966
      10A     -8.058915    11A     -8.058196    12A     -8.056052
      13A     -8.056011    14A     -8.054413    15A     -8.052280
      16A     -8.052237    17A     -1.244454    18A     -1.120315
      19A     -1.109188    20A     -0.875420    21A     -0.683455
      22A     -0.631051    23A     -0.621975    24A     -0.510311
      25A     -0.500281    26A     -0.472381    27A     -0.467836
      28A     -0.463625    29A     -0.447823

  @DF-RHF Final Energy: -1416.99996735112700

   => Energetics <=

    Nuclear Repulsion Energy =            264.5393951008699673
    One-Electron Energy =               -2484.1486532496082873
    Two-Electron Energy =                 802.6092907976112656
    Total Energy =                      -1416.9999673511269975
  Basis Set: (AUG-CC-PVTZ AUX)
    Blend: AUG-CC-PVTZ-RI
    Molecular point group: c1

    Geometry (in Angstrom), charge = 0, multiplicity = 1:

       Center              X                  Y                   Z               Mass
    ------------   -----------------  -----------------  -----------------  -----------------
         CL          -1.633453236415    -0.306577056098    -0.123893931594    34.968852682000
         CL           0.988817863585    -1.302942656098    -0.044998831594    34.968852682000
         CL           0.650582863585     1.592060343902    -0.045002831594    34.968852682000
         C           -0.015988136415     0.046932343902     0.490891168406    12.000000000000
         H           -0.015994136415     0.046978343902     1.576652168406     1.007825032230

  Basis Set: AUG-CC-PVTZ
    Blend: AUG-CC-PVTZ
  Basis Set: (AUG-CC-PVTZ AUX)
    Blend: AUG-CC-PVTZ-JKFIT
	 Reference Energy          =   -1416.9999673511269975 [Eh]
	 Singles Energy            =      -0.0000000000000000 [Eh]
	 Same-Spin Energy          =      -0.2276515677194885 [Eh]
	 Opposite-Spin Energy      =      -0.6562558631562642 [Eh]
	 Correlation Energy        =      -0.8839074308757526 [Eh]
	 Total Energy              =   -1417.8838747820027493 [Eh]

	 ================> DF-SCS-MP2 Energies <==================
	-----------------------------------------------------------
	 SCS Same-Spin Scale       =       0.3333333333333333 [-]
	 SCS Opposite-Spin Scale   =       1.2000000000000000 [-]
	 SCS Same-Spin Energy      =      -0.0758838559064962 [Eh]
	 SCS Opposite-Spin Energy  =      -0.7875070357875170 [Eh]
	 SCS Correlation Energy    =      -0.8633908916940132 [Eh]
	 SCS Total Energy          =   -1417.8633582428210502 [Eh]
	-----------------------------------------------------------

  Dipole Moment: [D]
     X:    -0.0414      Y:     0.0992      Z:     1.0751     Total:     1.0805

*** Psi4 exiting successfully. Buy a developer a beer!
