                               Psi4 1.3.2 release

  ==> Input File <==

--------------------------------------------------------------------------
#psi4
#
memory 32 gb

molecule  {
0 1
 Cl       -1.6302407    -0.1904736    -0.1994765
 Cl        1.0048330    -1.3498640    -0.0833960
 Cl        0.6665980     1.5451390    -0.0834000
  C        0.0000270     0.0000110     0.4524940
  H        0.0000210     0.0000570     1.5382550
units angstrom
no_reorient  #important for SAPT in psi4, default
symmetry c1  #important for SAPT in psi4, default
}

set PROPERTIES_ORIGIN ["COM"]
properties('MP2/aug-cc-pvtz', properties = ['dipole'])
--------------------------------------------------------------------------

    Molecular point group: c1
  Charge       = 0
  Multiplicity = 1
  Basis Set: AUG-CC-PVTZ
    Blend: AUG-CC-PVTZ
  Basis Set: (AUG-CC-PVTZ AUX)
    Blend: AUG-CC-PVTZ-JKFIT

    Orbital Energies [Eh]
    ---------------------

    Doubly Occupied:

       1A   -104.867022     2A   -104.866134     3A   -104.866134
       4A    -11.435941     5A    -10.591485     6A    -10.590677
       7A    -10.590668     8A     -8.058288     9A     -8.057476
      10A     -8.057475    11A     -8.056144    12A     -8.056110
      13A     -8.055346    14A     -8.055346    15A     -8.055301
      16A     -8.055300    17A     -1.244422    18A     -1.115441
      19A     -1.113668    20A     -0.875614    21A     -0.684079
      22A     -0.627360    23A     -0.625374    24A     -0.506549
      25A     -0.503820    26A     -0.468685    27A     -0.467432
      28A     -0.465636    29A     -0.450015

  @DF-RHF Final Energy: -1417.00160301447318

   => Energetics <=

    Nuclear Repulsion Energy =            264.7032200230438548
    One-Electron Energy =               -2484.4837586793341870
    Two-Electron Energy =                 802.7789356418173838
    Total Energy =                      -1417.0016030144729484
  Basis Set: (AUG-CC-PVTZ AUX)
    Blend: AUG-CC-PVTZ-RI
    Molecular point group: c1

    Geometry (in Angstrom), charge = 0, multiplicity = 1:

       Center              X                  Y                   Z               Mass
    ------------   -----------------  -----------------  -----------------  -----------------
         CL          -1.642459079636    -0.191899116471    -0.150051577892    34.968852682000
         CL           0.992614620364    -1.351289516471    -0.033971077892    34.968852682000
         CL           0.654379620364     1.543713483529    -0.033975077892    34.968852682000
         C           -0.012191379636    -0.001414516471     0.501918922108    12.000000000000
         H           -0.012197379636    -0.001368516471     1.587679922108     1.007825032230

  Basis Set: AUG-CC-PVTZ
    Blend: AUG-CC-PVTZ
  Basis Set: (AUG-CC-PVTZ AUX)
    Blend: AUG-CC-PVTZ-JKFIT
	 Reference Energy          =   -1417.0016030144731758 [Eh]
	 Singles Energy            =      -0.0000000000000000 [Eh]
	 Same-Spin Energy          =      -0.2276067472937972 [Eh]
	 Opposite-Spin Energy      =      -0.6561489434009402 [Eh]
	 Correlation Energy        =      -0.8837556906947374 [Eh]
	 Total Energy              =   -1417.8853587051678460 [Eh]

	 ================> DF-SCS-MP2 Energies <==================
	-----------------------------------------------------------
	 SCS Same-Spin Scale       =       0.3333333333333333 [-]
	 SCS Opposite-Spin Scale   =       1.2000000000000000 [-]
	 SCS Same-Spin Energy      =      -0.0758689157645990 [Eh]
	 SCS Opposite-Spin Energy  =      -0.7873787320811282 [Eh]
	 SCS Correlation Energy    =      -0.8632476478457273 [Eh]
	 SCS Total Energy          =   -1417.8648506623189860 [Eh]
	-----------------------------------------------------------

  Dipole Moment: [D]
     X:    -0.0414      Y:    -0.0048      Z:     1.0848     Total:     1.0856

*** Psi4 exiting successfully. Buy a developer a beer!
