                               Psi4 1.3.2 release

  ==> Input File <==

--------------------------------------------------------------------------
#psi4
#
memory 32 gb

molecule  {
0 1
 Cl       -1.6374417    -0.3011050    -0.1366989
 Cl        1.0048330    -1.3498640    -0.0833960
 Cl        0.6665980     1.5451390    -0.0834000
  C        0.0000270     0.0000110     0.4524940
  H        0.0000210     0.0000570     1.5382550
units angstrom
no_reorient  #important for SAPT in psi4, default
symmetry c1  #important for SAPT in psi4, default
}

set PROPERTIES_ORIGIN ["COM"]
properties('MP2/aug-cc-pvtz', properties = ['dipole'])
--------------------------------------------------------------------------

    Molecular point group: c1
  Charge       = 0
  Multiplicity = 1
  Basis Set: AUG-CC-PVTZ
    Blend: AUG-CC-PVTZ
  Basis Set: (AUG-CC-PVTZ AUX)
    Blend: AUG-CC-PVTZ-JKFIT

    Orbital Energies [Eh]
    ---------------------

    Doubly Occupied:

       1A   -104.869171     2A   -104.867115     3A   -104.864364
       4A    -11.435568     5A    -10.593460     6A    -10.591565
       7A    -10.589031     8A     -8.060272     9A     -8.058369
      10A     -8.058142    11A     -8.058092    12A     -8.056231
      13A     -8.056188    14A     -8.055830    15A     -8.053697
      16A     -8.053654    17A     -1.243952    18A     -1.118792
      19A     -1.111471    20A     -0.875159    21A     -0.682930
      22A     -0.629772    23A     -0.623740    24A     -0.508334
      25A     -0.501756    26A     -0.471250    27A     -0.466891
      28A     -0.465212    29A     -0.449906

  @DF-RHF Final Energy: -1417.00131561569037

   => Energetics <=

    Nuclear Repulsion Energy =            264.1661418146280766
    One-Electron Energy =               -2483.3950866914383369
    Two-Electron Energy =                 802.2276292611197732
    Total Energy =                      -1417.0013156156903733
  Basis Set: (AUG-CC-PVTZ AUX)
    Blend: AUG-CC-PVTZ-RI
    Molecular point group: c1

    Geometry (in Angstrom), charge = 0, multiplicity = 1:

       Center              X                  Y                   Z               Mass
    ------------   -----------------  -----------------  -----------------  -----------------
         CL          -1.647524541107    -0.269721515333    -0.105891389855    34.968852682000
         CL           0.994750158893    -1.318480515333    -0.052588489855    34.968852682000
         CL           0.656515158893     1.576522484667    -0.052592489855    34.968852682000
         C           -0.010055841107     0.031394484667     0.483301510145    12.000000000000
         H           -0.010061841107     0.031440484667     1.569062510145     1.007825032230

  Basis Set: AUG-CC-PVTZ
    Blend: AUG-CC-PVTZ
  Basis Set: (AUG-CC-PVTZ AUX)
    Blend: AUG-CC-PVTZ-JKFIT
	 Reference Energy          =   -1417.0013156156903733 [Eh]
	 Singles Energy            =      -0.0000000000000000 [Eh]
	 Same-Spin Energy          =      -0.2275704890601273 [Eh]
	 Opposite-Spin Energy      =      -0.6561520352626973 [Eh]
	 Correlation Energy        =      -0.8837225243228246 [Eh]
	 Total Energy              =   -1417.8850381400131937 [Eh]

	 ================> DF-SCS-MP2 Energies <==================
	-----------------------------------------------------------
	 SCS Same-Spin Scale       =       0.3333333333333333 [-]
	 SCS Opposite-Spin Scale   =       1.2000000000000000 [-]
	 SCS Same-Spin Energy      =      -0.0758568296867091 [Eh]
	 SCS Opposite-Spin Energy  =      -0.7873824423152367 [Eh]
	 SCS Correlation Energy    =      -0.8632392720019457 [Eh]
	 SCS Total Energy          =   -1417.8645548876922931 [Eh]
	-----------------------------------------------------------

  Dipole Moment: [D]
     X:    -0.0274      Y:     0.0666      Z:     1.0691     Total:     1.0715

*** Psi4 exiting successfully. Buy a developer a beer!
