                               Psi4 1.3.2 release

  ==> Input File <==

--------------------------------------------------------------------------
#psi4
#
memory 32 gb

molecule  {
0 1
 Cl       -1.7179234    -0.2007045     0.0954472
 Cl        1.0048330    -1.3498640    -0.0833960
 Cl        0.6665980     1.5451390    -0.0834000
  C        0.0000270     0.0000110     0.4524940
  H        0.0000210     0.0000570     1.5382550
units angstrom
no_reorient  #important for SAPT in psi4, default
symmetry c1  #important for SAPT in psi4, default
}

set PROPERTIES_ORIGIN ["COM"]
properties('MP2/aug-cc-pvtz', properties = ['dipole'])
--------------------------------------------------------------------------

    Molecular point group: c1
  Charge       = 0
  Multiplicity = 1
  Basis Set: AUG-CC-PVTZ
    Blend: AUG-CC-PVTZ
  Basis Set: (AUG-CC-PVTZ AUX)
    Blend: AUG-CC-PVTZ-JKFIT

    Orbital Energies [Eh]
    ---------------------

    Doubly Occupied:

       1A   -104.869122     2A   -104.869121     3A   -104.867850
       4A    -11.434089     5A    -10.593356     6A    -10.593347
       7A    -10.592217     8A     -8.060171     9A     -8.060170
      10A     -8.059033    11A     -8.058032    12A     -8.058032
      13A     -8.057984    14A     -8.057982    15A     -8.056905
      16A     -8.056842    17A     -1.242003    18A     -1.118730
      19A     -1.116252    20A     -0.873355    21A     -0.679364
      22A     -0.628946    23A     -0.626845    24A     -0.506163
      25A     -0.502413    26A     -0.474024    27A     -0.471829
      28A     -0.458861    29A     -0.454487

  @DF-RHF Final Energy: -1417.00030920436689

   => Energetics <=

    Nuclear Repulsion Energy =            262.0818923666130900
    One-Electron Energy =               -2479.1693560578769393
    Two-Electron Energy =                 800.0871544868971341
    Total Energy =                      -1417.0003092043668858
  Basis Set: (AUG-CC-PVTZ AUX)
    Blend: AUG-CC-PVTZ-RI
    Molecular point group: c1

    Geometry (in Angstrom), charge = 0, multiplicity = 1:

       Center              X                  Y                   Z               Mass
    ------------   -----------------  -----------------  -----------------  -----------------
         CL          -1.704138476739    -0.199095926604     0.057409141354    34.968852682000
         CL           1.018617923261    -1.348255426604    -0.121434058646    34.968852682000
         CL           0.680382923261     1.546747573396    -0.121438058646    34.968852682000
         C            0.013811923261     0.001619573396     0.414455941354    12.000000000000
         H            0.013805923261     0.001665573396     1.500216941354     1.007825032230

  Basis Set: AUG-CC-PVTZ
    Blend: AUG-CC-PVTZ
  Basis Set: (AUG-CC-PVTZ AUX)
    Blend: AUG-CC-PVTZ-JKFIT
	 Reference Energy          =   -1417.0003092043668858 [Eh]
	 Singles Energy            =      -0.0000000000000000 [Eh]
	 Same-Spin Energy          =      -0.2274169223681334 [Eh]
	 Opposite-Spin Energy      =      -0.6561578531456043 [Eh]
	 Correlation Energy        =      -0.8835747755137376 [Eh]
	 Total Energy              =   -1417.8838839798806930 [Eh]

	 ================> DF-SCS-MP2 Energies <==================
	-----------------------------------------------------------
	 SCS Same-Spin Scale       =       0.3333333333333333 [-]
	 SCS Opposite-Spin Scale   =       1.2000000000000000 [-]
	 SCS Same-Spin Energy      =      -0.0758056407893778 [Eh]
	 SCS Opposite-Spin Energy  =      -0.7873894237747251 [Eh]
	 SCS Correlation Energy    =      -0.8631950645641029 [Eh]
	 SCS Total Energy          =   -1417.8635042689309103 [Eh]
	-----------------------------------------------------------

  Dipole Moment: [D]
     X:     0.0598      Y:     0.0070      Z:     1.0071     Total:     1.0088

*** Psi4 exiting successfully. Buy a developer a beer!
