                               Psi4 1.3.2 release

  ==> Input File <==

--------------------------------------------------------------------------
#psi4
#
memory 32 gb

molecule  {
0 1
 Cl       -1.6714420    -0.1952820    -0.0833930
 Cl        1.0048330    -1.3498640    -0.0833960
 Cl        0.6665980     1.5451390    -0.0834000
  C        0.1893102     0.0221267     0.5131798
  H        0.0000210     0.0000570     1.5382550
units angstrom
no_reorient  #important for SAPT in psi4, default
symmetry c1  #important for SAPT in psi4, default
}

set PROPERTIES_ORIGIN ["COM"]
properties('MP2/aug-cc-pvtz', properties = ['dipole'])
--------------------------------------------------------------------------

    Molecular point group: c1
  Charge       = 0
  Multiplicity = 1
  Basis Set: AUG-CC-PVTZ
    Blend: AUG-CC-PVTZ
  Basis Set: (AUG-CC-PVTZ AUX)
    Blend: AUG-CC-PVTZ-JKFIT

    Orbital Energies [Eh]
    ---------------------

    Doubly Occupied:

       1A   -104.880896     2A   -104.880895     3A   -104.837939
       4A    -11.440991     5A    -10.605990     6A    -10.605981
       7A    -10.561204     8A     -8.072927     9A     -8.072926
      10A     -8.070605    11A     -8.070604    12A     -8.070536
      13A     -8.070535    14A     -8.027692    15A     -8.025949
      16A     -8.025932    17A     -1.252861    18A     -1.140633
      19A     -1.077747    20A     -0.889312    21A     -0.698088
      22A     -0.643497    23A     -0.610412    24A     -0.513746
      25A     -0.501378    26A     -0.482744    27A     -0.459584
      28A     -0.445299    29A     -0.441896

  @DF-RHF Final Energy: -1416.98497695566380

   => Energetics <=

    Nuclear Repulsion Energy =            262.8100183301357333
    One-Electron Energy =               -2480.6323879835786101
    Two-Electron Energy =                 800.8373926977790234
    Total Energy =                      -1416.9849769556637966
  Basis Set: (AUG-CC-PVTZ AUX)
    Blend: AUG-CC-PVTZ-RI
    Molecular point group: c1

    Geometry (in Angstrom), charge = 0, multiplicity = 1:

       Center              X                  Y                   Z               Mass
    ------------   -----------------  -----------------  -----------------  -----------------
         CL          -1.690704780737    -0.197532217973    -0.074569879686    34.968852682000
         CL           0.985570219263    -1.352114217973    -0.074572879686    34.968852682000
         CL           0.647335219263     1.542888782027    -0.074576879686    34.968852682000
         C            0.170047419263     0.019876482027     0.522002920314    12.000000000000
         H           -0.019241780737    -0.002193217973     1.547078120314     1.007825032230

  Basis Set: AUG-CC-PVTZ
    Blend: AUG-CC-PVTZ
  Basis Set: (AUG-CC-PVTZ AUX)
    Blend: AUG-CC-PVTZ-JKFIT
	 Reference Energy          =   -1416.9849769556637966 [Eh]
	 Singles Energy            =      -0.0000000000000000 [Eh]
	 Same-Spin Energy          =      -0.2280315144726795 [Eh]
	 Opposite-Spin Energy      =      -0.6573648202875239 [Eh]
	 Correlation Energy        =      -0.8853963347602034 [Eh]
	 Total Energy              =   -1417.8703732904239132 [Eh]

	 ================> DF-SCS-MP2 Energies <==================
	-----------------------------------------------------------
	 SCS Same-Spin Scale       =       0.3333333333333333 [-]
	 SCS Opposite-Spin Scale   =       1.2000000000000000 [-]
	 SCS Same-Spin Energy      =      -0.0760105048242265 [Eh]
	 SCS Opposite-Spin Energy  =      -0.7888377843450286 [Eh]
	 SCS Correlation Energy    =      -0.8648482891692550 [Eh]
	 SCS Total Energy          =   -1417.8498252448330277 [Eh]
	-----------------------------------------------------------

  Dipole Moment: [D]
     X:     1.1450      Y:     0.1338      Z:     1.0922     Total:     1.5880

*** Psi4 exiting successfully. Buy a developer a beer!
