                               Psi4 1.4a3.dev225

  ==> Input File <==

--------------------------------------------------------------------------
#psi4
#
memory 32 gb

molecule  {
0 1
 Cl       -1.6313870    -0.4143060    -0.0833670
 Cl        1.1744920    -1.2056670    -0.0833670
 Cl        0.4568920     1.6199720    -0.0833670
  C        0.0000060     0.0000020     0.4522250
  H       -0.0000007     0.0000010     1.4883770
units angstrom
no_reorient  #important for SAPT in psi4, default
symmetry c1  #important for SAPT in psi4, default
}

set PROPERTIES_ORIGIN ["COM"]
properties('MP2/aug-cc-pvtz', properties = ['dipole'])
--------------------------------------------------------------------------

    Molecular point group: c1
  Charge       = 0
  Multiplicity = 1
  Basis Set: AUG-CC-PVTZ
    Blend: AUG-CC-PVTZ
  Basis Set: (AUG-CC-PVTZ AUX)
    Blend: AUG-CC-PVTZ-JKFIT

    Orbital Energies [Eh]
    ---------------------

    Doubly Occupied:

       1A   -104.867367     2A   -104.867366     3A   -104.867365
       4A    -11.430662     5A    -10.591792     6A    -10.591791
       7A    -10.591778     8A     -8.058599     9A     -8.058598
      10A     -8.058597    11A     -8.056469    12A     -8.056469
      13A     -8.056468    14A     -8.056423    15A     -8.056423
      16A     -8.056421    17A     -1.245062    18A     -1.115852
      19A     -1.115849    20A     -0.885528    21A     -0.687699
      22A     -0.627308    23A     -0.627307    24A     -0.504927
      25A     -0.504926    26A     -0.469242    27A     -0.469241
      28A     -0.468089    29A     -0.452112

  @DF-RHF Final Energy: -1417.00168963645251

   => Energetics <=

    Nuclear Repulsion Energy =            263.8316298738025694
    One-Electron Energy =               -2482.6751812207176044
    Two-Electron Energy =                 801.8418617104622399
    Total Energy =                      -1417.0016896364527383
  Basis Set: (AUG-CC-PVTZ AUX)
    Blend: AUG-CC-PVTZ-RI
    Molecular point group: c1

    Geometry (in Angstrom), charge = 0, multiplicity = 1:

       Center              X                  Y                   Z               Mass
    ------------   -----------------  -----------------  -----------------  -----------------
         CL          -1.631386714945    -0.414305915523    -0.067940371126    34.968852682000
         CL           1.174492285055    -1.205666915523    -0.067940371126    34.968852682000
         CL           0.456892285055     1.619972084477    -0.067940371126    34.968852682000
         C            0.000006285055     0.000002084477     0.467651628874    12.000000000000
         H           -0.000000414945     0.000001084477     1.503803628874     1.007825032230

  Basis Set: AUG-CC-PVTZ
    Blend: AUG-CC-PVTZ
  Basis Set: (AUG-CC-PVTZ AUX)
    Blend: AUG-CC-PVTZ-JKFIT
	 Reference Energy          =   -1417.0016896364525110 [Eh]
	 Singles Energy            =      -0.0000000000000000 [Eh]
	 Same-Spin Energy          =      -0.2273099432405030 [Eh]
	 Opposite-Spin Energy      =      -0.6558233981599909 [Eh]
	 Correlation Energy        =      -0.8831333414004939 [Eh]
	 Total Energy              =   -1417.8848229778529912 [Eh]

	 ================> DF-SCS-MP2 Energies <==================
	-----------------------------------------------------------
	 SCS Same-Spin Scale       =       0.3333333333333333 [-]
	 SCS Opposite-Spin Scale   =       1.2000000000000000 [-]
	 SCS Same-Spin Energy      =      -0.0757699810801677 [Eh]
	 SCS Opposite-Spin Energy  =      -0.7869880777919891 [Eh]
	 SCS Correlation Energy    =      -0.8627580588721567 [Eh]
	 SCS Total Energy          =   -1417.8644476953247704 [Eh]
	-----------------------------------------------------------

  Dipole Moment: [D]
     X:     0.0000      Y:     0.0000      Z:     1.0399     Total:     1.0399

*** Psi4 exiting successfully. Buy a developer a beer!
