                               Psi4 1.3.2 release

  ==> Input File <==

--------------------------------------------------------------------------
#psi4
#
memory 32 gb

molecule  {
0 1
 Cl       -1.6804769    -0.1963362    -0.0539418
 Cl        1.0048330    -1.3498640    -0.0833960
 Cl        0.6665980     1.5451390    -0.0834000
  C        0.0000270     0.0000110     0.4524940
  H        0.0000210     0.0000570     1.5382550
units angstrom
no_reorient  #important for SAPT in psi4, default
symmetry c1  #important for SAPT in psi4, default
}

set PROPERTIES_ORIGIN ["COM"]
properties('MP2/aug-cc-pvtz', properties = ['dipole'])
--------------------------------------------------------------------------

    Molecular point group: c1
  Charge       = 0
  Multiplicity = 1
  Basis Set: AUG-CC-PVTZ
    Blend: AUG-CC-PVTZ
  Basis Set: (AUG-CC-PVTZ AUX)
    Blend: AUG-CC-PVTZ-JKFIT

    Orbital Energies [Eh]
    ---------------------

    Doubly Occupied:

       1A   -104.867675     2A   -104.867674     3A   -104.867450
       4A    -11.435097     5A    -10.592058     6A    -10.592050
       7A    -10.591849     8A     -8.058866     9A     -8.058865
      10A     -8.058661    11A     -8.056733    12A     -8.056732
      13A     -8.056686    14A     -8.056685    15A     -8.056530
      16A     -8.056481    17A     -1.243024    18A     -1.116266
      19A     -1.115851    20A     -0.874474    21A     -0.681464
      22A     -0.627512    23A     -0.627089    24A     -0.504981
      25A     -0.504331    26A     -0.470027    27A     -0.469631
      28A     -0.464058    29A     -0.452460

  @DF-RHF Final Energy: -1417.00225515622378

   => Energetics <=

    Nuclear Repulsion Energy =            263.3030509248836779
    One-Electron Energy =               -2481.6480874104163377
    Two-Electron Energy =                 801.3427813293087638
    Total Energy =                      -1417.0022551562237823
  Basis Set: (AUG-CC-PVTZ AUX)
    Blend: AUG-CC-PVTZ-RI
    Molecular point group: c1

    Geometry (in Angstrom), charge = 0, multiplicity = 1:

       Center              X                  Y                   Z               Mass
    ------------   -----------------  -----------------  -----------------  -----------------
         CL          -1.677797162619    -0.196023095699    -0.047676849997    34.968852682000
         CL           1.007512737381    -1.349550895699    -0.077131049997    34.968852682000
         CL           0.669277737381     1.545452104301    -0.077135049997    34.968852682000
         C            0.002706737381     0.000324104301     0.458758950003    12.000000000000
         H            0.002700737381     0.000370104301     1.544519950003     1.007825032230

  Basis Set: AUG-CC-PVTZ
    Blend: AUG-CC-PVTZ
  Basis Set: (AUG-CC-PVTZ AUX)
    Blend: AUG-CC-PVTZ-JKFIT
	 Reference Energy          =   -1417.0022551562237823 [Eh]
	 Singles Energy            =      -0.0000000000000000 [Eh]
	 Same-Spin Energy          =      -0.2274599478545482 [Eh]
	 Opposite-Spin Energy      =      -0.6560594212396398 [Eh]
	 Correlation Energy        =      -0.8835193690941880 [Eh]
	 Total Energy              =   -1417.8857745253180838 [Eh]

	 ================> DF-SCS-MP2 Energies <==================
	-----------------------------------------------------------
	 SCS Same-Spin Scale       =       0.3333333333333333 [-]
	 SCS Opposite-Spin Scale   =       1.2000000000000000 [-]
	 SCS Same-Spin Energy      =      -0.0758199826181827 [Eh]
	 SCS Opposite-Spin Energy  =      -0.7872713054875677 [Eh]
	 SCS Correlation Energy    =      -0.8630912881057504 [Eh]
	 SCS Total Energy          =   -1417.8653464443295888 [Eh]
	-----------------------------------------------------------

  Dipole Moment: [D]
     X:     0.0104      Y:     0.0013      Z:     1.0480     Total:     1.0480

*** Psi4 exiting successfully. Buy a developer a beer!
