                               Psi4 1.3.2 release

  ==> Input File <==

--------------------------------------------------------------------------
#psi4
#
memory 32 gb

molecule  {
0 1
 Cl       -1.6889999    -0.1973307    -0.0243363
 Cl        1.0048330    -1.3498640    -0.0833960
 Cl        0.6665980     1.5451390    -0.0834000
  C        0.0000270     0.0000110     0.4524940
  H        0.0000210     0.0000570     1.5382550
units angstrom
no_reorient  #important for SAPT in psi4, default
symmetry c1  #important for SAPT in psi4, default
}

set PROPERTIES_ORIGIN ["COM"]
properties('MP2/aug-cc-pvtz', properties = ['dipole'])
--------------------------------------------------------------------------

    Molecular point group: c1
  Charge       = 0
  Multiplicity = 1
  Basis Set: AUG-CC-PVTZ
    Blend: AUG-CC-PVTZ
  Basis Set: (AUG-CC-PVTZ AUX)
    Blend: AUG-CC-PVTZ-JKFIT

    Orbital Energies [Eh]
    ---------------------

    Doubly Occupied:

       1A   -104.867973     2A   -104.867972     3A   -104.867531
       4A    -11.434910     5A    -10.592325     6A    -10.592316
       7A    -10.591921     8A     -8.059135     9A     -8.059134
      10A     -8.058733    11A     -8.057000    12A     -8.057000
      13A     -8.056953    14A     -8.056952    15A     -8.056604
      16A     -8.056552    17A     -1.242790    18A     -1.116767
      19A     -1.115933    20A     -0.874249    21A     -0.680997
      22A     -0.627860    23A     -0.627039    24A     -0.505217
      25A     -0.503925    26A     -0.470855    27A     -0.470072
      28A     -0.463068    29A     -0.452896

  @DF-RHF Final Energy: -1417.00207351387121

   => Energetics <=

    Nuclear Repulsion Energy =            263.0446520308528875
    One-Electron Energy =               -2481.1241010012754487
    Two-Electron Energy =                 801.0773754565512945
    Total Energy =                      -1417.0020735138714372
  Basis Set: (AUG-CC-PVTZ AUX)
    Blend: AUG-CC-PVTZ-RI
    Molecular point group: c1

    Geometry (in Angstrom), charge = 0, multiplicity = 1:

       Center              X                  Y                   Z               Mass
    ------------   -----------------  -----------------  -----------------  -----------------
         CL          -1.683792569940    -0.196722665403    -0.026851198062    34.968852682000
         CL           1.010040330060    -1.349255965403    -0.085910898062    34.968852682000
         CL           0.671805330060     1.545747034597    -0.085914898062    34.968852682000
         C            0.005234330060     0.000619034597     0.449979101938    12.000000000000
         H            0.005228330060     0.000665034597     1.535740101938     1.007825032230

  Basis Set: AUG-CC-PVTZ
    Blend: AUG-CC-PVTZ
  Basis Set: (AUG-CC-PVTZ AUX)
    Blend: AUG-CC-PVTZ-JKFIT
	 Reference Energy          =   -1417.0020735138712098 [Eh]
	 Singles Energy            =      -0.0000000000000000 [Eh]
	 Same-Spin Energy          =      -0.2274430788573742 [Eh]
	 Opposite-Spin Energy      =      -0.6560638748533325 [Eh]
	 Correlation Energy        =      -0.8835069537107068 [Eh]
	 Total Energy              =   -1417.8855804675818035 [Eh]

	 ================> DF-SCS-MP2 Energies <==================
	-----------------------------------------------------------
	 SCS Same-Spin Scale       =       0.3333333333333333 [-]
	 SCS Opposite-Spin Scale   =       1.2000000000000000 [-]
	 SCS Same-Spin Energy      =      -0.0758143596191247 [Eh]
	 SCS Opposite-Spin Energy  =      -0.7872766498239990 [Eh]
	 SCS Correlation Energy    =      -0.8630910094431238 [Eh]
	 SCS Total Energy          =   -1417.8651645233144336 [Eh]
	-----------------------------------------------------------

  Dipole Moment: [D]
     X:     0.0205      Y:     0.0024      Z:     1.0401     Total:     1.0403

*** Psi4 exiting successfully. Buy a developer a beer!
