                               Psi4 1.3.2 release

  ==> Input File <==

--------------------------------------------------------------------------
#psi4
#
memory 32 gb

molecule  {
0 1
 Cl       -1.6972991    -0.0885075    -0.0274763
 Cl        1.0048330    -1.3498640    -0.0833960
 Cl        0.6665980     1.5451390    -0.0834000
  C        0.0000270     0.0000110     0.4524940
  H        0.0000210     0.0000570     1.5382550
units angstrom
no_reorient  #important for SAPT in psi4, default
symmetry c1  #important for SAPT in psi4, default
}

set PROPERTIES_ORIGIN ["COM"]
properties('MP2/aug-cc-pvtz', properties = ['dipole'])
--------------------------------------------------------------------------

    Molecular point group: c1
  Charge       = 0
  Multiplicity = 1
  Basis Set: AUG-CC-PVTZ
    Blend: AUG-CC-PVTZ
  Basis Set: (AUG-CC-PVTZ AUX)
    Blend: AUG-CC-PVTZ-JKFIT

    Orbital Energies [Eh]
    ---------------------

    Doubly Occupied:

       1A   -104.870260     2A   -104.867424     3A   -104.865531
       4A    -11.434913     5A    -10.594442     6A    -10.591832
       7A    -10.590071     8A     -8.061260     9A     -8.059125
      10A     -8.059074    11A     -8.058642    12A     -8.056877
      13A     -8.056511    14A     -8.056458    15A     -8.054743
      16A     -8.054699    17A     -1.242982    18A     -1.119741
      19A     -1.112730    20A     -0.874312    21A     -0.681082
      22A     -0.630363    23A     -0.624405    24A     -0.507801
      25A     -0.501557    26A     -0.473589    27A     -0.467562
      28A     -0.463265    29A     -0.451836

  @DF-RHF Final Energy: -1417.00127285933831

   => Energetics <=

    Nuclear Repulsion Energy =            263.1613301201167019
    One-Electron Energy =               -2481.3590307651352305
    Two-Electron Energy =                 801.1964277856801573
    Total Energy =                      -1417.0012728593383144
  Basis Set: (AUG-CC-PVTZ AUX)
    Blend: AUG-CC-PVTZ-RI
    Molecular point group: c1

    Geometry (in Angstrom), charge = 0, multiplicity = 1:

       Center              X                  Y                   Z               Mass
    ------------   -----------------  -----------------  -----------------  -----------------
         CL          -1.689630547698    -0.120172224246    -0.029059995315    34.968852682000
         CL           1.012501552302    -1.381528724246    -0.084979695315    34.968852682000
         CL           0.674266552302     1.513474275754    -0.084983695315    34.968852682000
         C            0.007695552302    -0.031653724246     0.450910304685    12.000000000000
         H            0.007689552302    -0.031607724246     1.536671304685     1.007825032230

  Basis Set: AUG-CC-PVTZ
    Blend: AUG-CC-PVTZ
  Basis Set: (AUG-CC-PVTZ AUX)
    Blend: AUG-CC-PVTZ-JKFIT
	 Reference Energy          =   -1417.0012728593383144 [Eh]
	 Singles Energy            =      -0.0000000000000000 [Eh]
	 Same-Spin Energy          =      -0.2274827591923130 [Eh]
	 Opposite-Spin Energy      =      -0.6561253637404892 [Eh]
	 Correlation Energy        =      -0.8836081229328023 [Eh]
	 Total Energy              =   -1417.8848809822711701 [Eh]

	 ================> DF-SCS-MP2 Energies <==================
	-----------------------------------------------------------
	 SCS Same-Spin Scale       =       0.3333333333333333 [-]
	 SCS Opposite-Spin Scale   =       1.2000000000000000 [-]
	 SCS Same-Spin Energy      =      -0.0758275863974377 [Eh]
	 SCS Opposite-Spin Energy  =      -0.7873504364885870 [Eh]
	 SCS Correlation Energy    =      -0.8631780228860247 [Eh]
	 SCS Total Energy          =   -1417.8644508822244461 [Eh]
	-----------------------------------------------------------

  Dipole Moment: [D]
     X:     0.0270      Y:    -0.0677      Z:     1.0408     Total:     1.0433

*** Psi4 exiting successfully. Buy a developer a beer!
