                               Psi4 1.3.2 release

  ==> Input File <==

--------------------------------------------------------------------------
#psi4
#
memory 32 gb

molecule  {
0 1
 Cl       -1.6554503    -0.2483448    -0.1103888
 Cl        1.0048330    -1.3498640    -0.0833960
 Cl        0.6665980     1.5451390    -0.0834000
  C        0.0000270     0.0000110     0.4524940
  H        0.0000210     0.0000570     1.5382550
units angstrom
no_reorient  #important for SAPT in psi4, default
symmetry c1  #important for SAPT in psi4, default
}

set PROPERTIES_ORIGIN ["COM"]
properties('MP2/aug-cc-pvtz', properties = ['dipole'])
--------------------------------------------------------------------------

    Molecular point group: c1
  Charge       = 0
  Multiplicity = 1
  Basis Set: AUG-CC-PVTZ
    Blend: AUG-CC-PVTZ
  Basis Set: (AUG-CC-PVTZ AUX)
    Blend: AUG-CC-PVTZ-JKFIT

    Orbital Energies [Eh]
    ---------------------

    Doubly Occupied:

       1A   -104.868278     2A   -104.867267     3A   -104.865885
       4A    -11.435433     5A    -10.592627     6A    -10.591692
       7A    -10.590419     8A     -8.059438     9A     -8.058500
      10A     -8.057307    11A     -8.057259    12A     -8.057224
      13A     -8.056365    14A     -8.056321    15A     -8.055092
      16A     -8.055047    17A     -1.243561    18A     -1.117277
      19A     -1.113659    20A     -0.874920    21A     -0.682429
      22A     -0.628468    23A     -0.625461    24A     -0.506485
      25A     -0.503244    26A     -0.470178    27A     -0.467137
      28A     -0.465906    29A     -0.451282

  @DF-RHF Final Energy: -1417.00209474900339

   => Energetics <=

    Nuclear Repulsion Energy =            263.8429994090464561
    One-Electron Energy =               -2482.7418707416468351
    Two-Electron Energy =                 801.8967765835968748
    Total Energy =                      -1417.0020947490033905
  Basis Set: (AUG-CC-PVTZ AUX)
    Blend: AUG-CC-PVTZ-RI
    Molecular point group: c1

    Geometry (in Angstrom), charge = 0, multiplicity = 1:

       Center              X                  Y                   Z               Mass
    ------------   -----------------  -----------------  -----------------  -----------------
         CL          -1.660192485760    -0.232607953285    -0.087383849534    34.968852682000
         CL           1.000090814240    -1.334127153285    -0.060391049534    34.968852682000
         CL           0.661855814240     1.560875846715    -0.060395049534    34.968852682000
         C           -0.004715185760     0.015747846715     0.475498950466    12.000000000000
         H           -0.004721185760     0.015793846715     1.561259950466     1.007825032230

  Basis Set: AUG-CC-PVTZ
    Blend: AUG-CC-PVTZ
  Basis Set: (AUG-CC-PVTZ AUX)
    Blend: AUG-CC-PVTZ-JKFIT
	 Reference Energy          =   -1417.0020947490033905 [Eh]
	 Singles Energy            =      -0.0000000000000000 [Eh]
	 Same-Spin Energy          =      -0.2275139416527738 [Eh]
	 Opposite-Spin Energy      =      -0.6560878690201282 [Eh]
	 Correlation Energy        =      -0.8836018106729020 [Eh]
	 Total Energy              =   -1417.8856965596762620 [Eh]

	 ================> DF-SCS-MP2 Energies <==================
	-----------------------------------------------------------
	 SCS Same-Spin Scale       =       0.3333333333333333 [-]
	 SCS Opposite-Spin Scale   =       1.2000000000000000 [-]
	 SCS Same-Spin Energy      =      -0.0758379805509246 [Eh]
	 SCS Opposite-Spin Energy  =      -0.7873054428241538 [Eh]
	 SCS Correlation Energy    =      -0.8631434233750784 [Eh]
	 SCS Total Energy          =   -1417.8652381723784401 [Eh]
	-----------------------------------------------------------

  Dipole Moment: [D]
     X:    -0.0135      Y:     0.0335      Z:     1.0626     Total:     1.0632

*** Psi4 exiting successfully. Buy a developer a beer!
