                               Psi4 1.4a3.dev225

  ==> Input File <==

--------------------------------------------------------------------------
#psi4
#
memory 32 gb

molecule  {
0 1
 Cl       -1.6313870    -0.4143060    -0.0833670
 Cl        1.1744920    -1.2056670    -0.0833670
 Cl        0.4568920     1.6199720    -0.0833670
  C       -0.0461741    -0.0117259     0.4370639
  H       -0.0000010     0.0000010     1.5383770
units angstrom
no_reorient  #important for SAPT in psi4, default
symmetry c1  #important for SAPT in psi4, default
}

set PROPERTIES_ORIGIN ["COM"]
properties('MP2/aug-cc-pvtz', properties = ['dipole'])
--------------------------------------------------------------------------

    Molecular point group: c1
  Charge       = 0
  Multiplicity = 1
  Basis Set: AUG-CC-PVTZ
    Blend: AUG-CC-PVTZ
  Basis Set: (AUG-CC-PVTZ AUX)
    Blend: AUG-CC-PVTZ-JKFIT

    Orbital Energies [Eh]
    ---------------------

    Doubly Occupied:

       1A   -104.873401     2A   -104.864339     3A   -104.864339
       4A    -11.435601     5A    -10.598553     6A    -10.588549
       7A    -10.588541     8A     -8.065480     9A     -8.063204
      10A     -8.063145    11A     -8.055316    12A     -8.055315
      13A     -8.053231    14A     -8.053231    15A     -8.053187
      16A     -8.053186    17A     -1.245811    18A     -1.123038
      19A     -1.109681    20A     -0.870784    21A     -0.681458
      22A     -0.631816    23A     -0.625413    24A     -0.507236
      25A     -0.502129    26A     -0.473103    27A     -0.466819
      28A     -0.461692    29A     -0.451631

  @DF-RHF Final Energy: -1417.00040302682601

   => Energetics <=

    Nuclear Repulsion Energy =            263.7246270346044525
    One-Electron Energy =               -2482.4915996198960784
    Two-Electron Energy =                 801.7665695584653349
    Total Energy =                      -1417.0004030268262341
  Basis Set: (AUG-CC-PVTZ AUX)
    Blend: AUG-CC-PVTZ-RI
    Molecular point group: c1

    Geometry (in Angstrom), charge = 0, multiplicity = 1:

       Center              X                  Y                   Z               Mass
    ------------   -----------------  -----------------  -----------------  -----------------
         CL          -1.626687021084    -0.413112381738    -0.066824799430    34.968852682000
         CL           1.179191978916    -1.204473381738    -0.066824799430    34.968852682000
         CL           0.461591978916     1.621165618262    -0.066824799430    34.968852682000
         C           -0.041474121084    -0.010532281738     0.453606100570    12.000000000000
         H            0.004698978916     0.001194618262     1.554919200570     1.007825032230

  Basis Set: AUG-CC-PVTZ
    Blend: AUG-CC-PVTZ
  Basis Set: (AUG-CC-PVTZ AUX)
    Blend: AUG-CC-PVTZ-JKFIT
	 Reference Energy          =   -1417.0004030268260067 [Eh]
	 Singles Energy            =      -0.0000000000000000 [Eh]
	 Same-Spin Energy          =      -0.2277066942532640 [Eh]
	 Opposite-Spin Energy      =      -0.6562399823151546 [Eh]
	 Correlation Energy        =      -0.8839466765684186 [Eh]
	 Total Energy              =   -1417.8843497033944914 [Eh]

	 ================> DF-SCS-MP2 Energies <==================
	-----------------------------------------------------------
	 SCS Same-Spin Scale       =       0.3333333333333333 [-]
	 SCS Opposite-Spin Scale   =       1.2000000000000000 [-]
	 SCS Same-Spin Energy      =      -0.0759022314177547 [Eh]
	 SCS Opposite-Spin Energy  =      -0.7874879787781854 [Eh]
	 SCS Correlation Energy    =      -0.8633902101959401 [Eh]
	 SCS Total Energy          =   -1417.8637932370220369 [Eh]
	-----------------------------------------------------------

  Dipole Moment: [D]
     X:    -0.2852      Y:    -0.0724      Z:     1.0446     Total:     1.0853

*** Psi4 exiting successfully. Buy a developer a beer!
