                               Psi4 1.4a3.dev225

  ==> Input File <==

--------------------------------------------------------------------------
#psi4
#
memory 32 gb

molecule  {
0 1
 Cl       -1.6313870    -0.4143060    -0.0833670
 Cl        1.1744920    -1.2056670    -0.0833670
 Cl        0.4568920     1.6199720    -0.0833670
  C        0.0000060     0.0000020     0.4522250
  H       -0.0000011     0.0000010     1.5583770
units angstrom
no_reorient  #important for SAPT in psi4, default
symmetry c1  #important for SAPT in psi4, default
}

set PROPERTIES_ORIGIN ["COM"]
properties('MP2/aug-cc-pvtz', properties = ['dipole'])
--------------------------------------------------------------------------

    Molecular point group: c1
  Charge       = 0
  Multiplicity = 1
  Basis Set: AUG-CC-PVTZ
    Blend: AUG-CC-PVTZ
  Basis Set: (AUG-CC-PVTZ AUX)
    Blend: AUG-CC-PVTZ-JKFIT

    Orbital Energies [Eh]
    ---------------------

    Doubly Occupied:

       1A   -104.867432     2A   -104.867431     3A   -104.867430
       4A    -11.437205     5A    -10.591828     6A    -10.591827
       7A    -10.591815     8A     -8.058634     9A     -8.058633
      10A     -8.058631    11A     -8.056500    12A     -8.056500
      13A     -8.056499    14A     -8.056454    15A     -8.056454
      16A     -8.056452    17A     -1.242454    18A     -1.115707
      19A     -1.115705    20A     -0.870666    21A     -0.679372
      22A     -0.627002    23A     -0.627001    24A     -0.504655
      25A     -0.504654    26A     -0.469216    27A     -0.469215
      28A     -0.463699    29A     -0.452032

  @DF-RHF Final Energy: -1417.00161678588029

   => Energetics <=

    Nuclear Repulsion Energy =            263.3968210177606011
    One-Electron Energy =               -2481.8546671007916302
    Two-Electron Energy =                 801.4562292971511397
    Total Energy =                      -1417.0016167858800600
  Basis Set: (AUG-CC-PVTZ AUX)
    Blend: AUG-CC-PVTZ-RI
    Molecular point group: c1

    Geometry (in Angstrom), charge = 0, multiplicity = 1:

       Center              X                  Y                   Z               Mass
    ------------   -----------------  -----------------  -----------------  -----------------
         CL          -1.631386711527    -0.414305915523    -0.068538667538    34.968852682000
         CL           1.174492288473    -1.205666915523    -0.068538667538    34.968852682000
         CL           0.456892288473     1.619972084477    -0.068538667538    34.968852682000
         C            0.000006288473     0.000002084477     0.467053332462    12.000000000000
         H           -0.000000811527     0.000001084477     1.573205332462     1.007825032230

  Basis Set: AUG-CC-PVTZ
    Blend: AUG-CC-PVTZ
  Basis Set: (AUG-CC-PVTZ AUX)
    Blend: AUG-CC-PVTZ-JKFIT
	 Reference Energy          =   -1417.0016167858802874 [Eh]
	 Singles Energy            =      -0.0000000000000000 [Eh]
	 Same-Spin Energy          =      -0.2275464478717756 [Eh]
	 Opposite-Spin Energy      =      -0.6561911612539979 [Eh]
	 Correlation Energy        =      -0.8837376091257735 [Eh]
	 Total Energy              =   -1417.8853543950060612 [Eh]

	 ================> DF-SCS-MP2 Energies <==================
	-----------------------------------------------------------
	 SCS Same-Spin Scale       =       0.3333333333333333 [-]
	 SCS Opposite-Spin Scale   =       1.2000000000000000 [-]
	 SCS Same-Spin Energy      =      -0.0758488159572585 [Eh]
	 SCS Opposite-Spin Energy  =      -0.7874293935047975 [Eh]
	 SCS Correlation Energy    =      -0.8632782094620560 [Eh]
	 SCS Total Energy          =   -1417.8648949953424108 [Eh]
	-----------------------------------------------------------

  Dipole Moment: [D]
     X:     0.0000      Y:     0.0000      Z:     1.0607     Total:     1.0607

*** Psi4 exiting successfully. Buy a developer a beer!
