                               Psi4 1.3.2 release

  ==> Input File <==

--------------------------------------------------------------------------
#psi4
#
memory 32 gb

molecule  {
0 1
 Cl       -1.6714420    -0.1952820    -0.0833930
 Cl        1.0048330    -1.3498640    -0.0833960
 Cl        0.6665980     1.5451390    -0.0834000
  C        0.0000270     0.0000110     0.4524940
  H        0.0000204     0.0000612     1.6382550
units angstrom
no_reorient  #important for SAPT in psi4, default
symmetry c1  #important for SAPT in psi4, default
}

set PROPERTIES_ORIGIN ["COM"]
properties('MP2/aug-cc-pvtz', properties = ['dipole'])
--------------------------------------------------------------------------

    Molecular point group: c1
  Charge       = 0
  Multiplicity = 1
  Basis Set: AUG-CC-PVTZ
    Blend: AUG-CC-PVTZ
  Basis Set: (AUG-CC-PVTZ AUX)
    Blend: AUG-CC-PVTZ-JKFIT

    Orbital Energies [Eh]
    ---------------------

    Doubly Occupied:

       1A   -104.867634     2A   -104.867633     3A   -104.867629
       4A    -11.444064     5A    -10.591994     6A    -10.591991
       7A    -10.591978     8A     -8.058797     9A     -8.058797
      10A     -8.058791    11A     -8.056659    12A     -8.056659
      13A     -8.056653    14A     -8.056614    15A     -8.056613
      16A     -8.056608    17A     -1.240350    18A     -1.115667
      19A     -1.115657    20A     -0.856952    21A     -0.669235
      22A     -0.626861    23A     -0.626856    24A     -0.504430
      25A     -0.504426    26A     -0.469239    27A     -0.469235
      28A     -0.458351    29A     -0.451999

  @DF-RHF Final Energy: -1416.99476232896541

   => Energetics <=

    Nuclear Repulsion Energy =            262.9839739656841857
    One-Electron Energy =               -2481.0607305215594351
    Two-Electron Energy =                 801.0819942269099556
    Total Energy =                      -1416.9947623289654075
  Basis Set: (AUG-CC-PVTZ AUX)
    Blend: AUG-CC-PVTZ-RI
    Molecular point group: c1

    Geometry (in Angstrom), charge = 0, multiplicity = 1:

       Center              X                  Y                   Z               Mass
    ------------   -----------------  -----------------  -----------------  -----------------
         CL          -1.671441659942    -0.195281566609    -0.069248670513    34.968852682000
         CL           1.004833340058    -1.349863566609    -0.069251670513    34.968852682000
         CL           0.666598340058     1.545139433391    -0.069255670513    34.968852682000
         C            0.000027340058     0.000011433391     0.466638329487    12.000000000000
         H            0.000020740058     0.000061633391     1.652399329487     1.007825032230

  Basis Set: AUG-CC-PVTZ
    Blend: AUG-CC-PVTZ
  Basis Set: (AUG-CC-PVTZ AUX)
    Blend: AUG-CC-PVTZ-JKFIT
	 Reference Energy          =   -1416.9947623289654075 [Eh]
	 Singles Energy            =      -0.0000000000000000 [Eh]
	 Same-Spin Energy          =      -0.2278678419332940 [Eh]
	 Opposite-Spin Energy      =      -0.6568309437604678 [Eh]
	 Correlation Energy        =      -0.8846987856937618 [Eh]
	 Total Energy              =   -1417.8794611146590796 [Eh]

	 ================> DF-SCS-MP2 Energies <==================
	-----------------------------------------------------------
	 SCS Same-Spin Scale       =       0.3333333333333333 [-]
	 SCS Opposite-Spin Scale   =       1.2000000000000000 [-]
	 SCS Same-Spin Energy      =      -0.0759559473110980 [Eh]
	 SCS Opposite-Spin Energy  =      -0.7881971325125613 [Eh]
	 SCS Correlation Energy    =      -0.8641530798236593 [Eh]
	 SCS Total Energy          =   -1417.8589154087890165 [Eh]
	-----------------------------------------------------------

  Dipole Moment: [D]
     X:     0.0002      Y:     0.0001      Z:     1.0719     Total:     1.0719

*** Psi4 exiting successfully. Buy a developer a beer!
