                               Psi4 1.3.2 release

  ==> Input File <==

--------------------------------------------------------------------------
#psi4
#
memory 32 gb

molecule  {
0 1
 Cl       -1.7071330    -0.0349260     0.0013764
 Cl        1.0048330    -1.3498640    -0.0833960
 Cl        0.6665980     1.5451390    -0.0834000
  C        0.0000270     0.0000110     0.4524940
  H        0.0000210     0.0000570     1.5382550
units angstrom
no_reorient  #important for SAPT in psi4, default
symmetry c1  #important for SAPT in psi4, default
}

set PROPERTIES_ORIGIN ["COM"]
properties('MP2/aug-cc-pvtz', properties = ['dipole'])
--------------------------------------------------------------------------

    Molecular point group: c1
  Charge       = 0
  Multiplicity = 1
  Basis Set: AUG-CC-PVTZ
    Blend: AUG-CC-PVTZ
  Basis Set: (AUG-CC-PVTZ AUX)
    Blend: AUG-CC-PVTZ-JKFIT

    Orbital Energies [Eh]
    ---------------------

    Doubly Occupied:

       1A   -104.871657     2A   -104.867379     3A   -104.864593
       4A    -11.434708     5A    -10.595734     6A    -10.591801
       7A    -10.589203     8A     -8.062555     9A     -8.060418
      10A     -8.060363    11A     -8.058610    12A     -8.056477
      13A     -8.056420    14A     -8.056006    15A     -8.053871
      16A     -8.053827    17A     -1.242971    18A     -1.121629
      19A     -1.111197    20A     -0.874141    21A     -0.680691
      22A     -0.631912    23A     -0.623000    24A     -0.509360
      25A     -0.500083    26A     -0.475781    27A     -0.466955
      28A     -0.462395    29A     -0.451075

  @DF-RHF Final Energy: -1417.00000547694594

   => Energetics <=

    Nuclear Repulsion Energy =            263.0263771125185599
    One-Electron Energy =               -2481.0831396714088442
    Two-Electron Energy =                 801.0567570819442835
    Total Energy =                      -1417.0000054769457165
  Basis Set: (AUG-CC-PVTZ AUX)
    Blend: AUG-CC-PVTZ-RI
    Molecular point group: c1

    Geometry (in Angstrom), charge = 0, multiplicity = 1:

       Center              X                  Y                   Z               Mass
    ------------   -----------------  -----------------  -----------------  -----------------
         CL          -1.696548092701    -0.082480928062    -0.008763891970    34.968852682000
         CL           1.015417907299    -1.397418928062    -0.093536291970    34.968852682000
         CL           0.677182907299     1.497584071938    -0.093540291970    34.968852682000
         C            0.010611907299    -0.047543928062     0.442353708030    12.000000000000
         H            0.010605907299    -0.047497928062     1.528114708030     1.007825032230

  Basis Set: AUG-CC-PVTZ
    Blend: AUG-CC-PVTZ
  Basis Set: (AUG-CC-PVTZ AUX)
    Blend: AUG-CC-PVTZ-JKFIT
	 Reference Energy          =   -1417.0000054769459439 [Eh]
	 Singles Energy            =      -0.0000000000000000 [Eh]
	 Same-Spin Energy          =      -0.2275164435557869 [Eh]
	 Opposite-Spin Energy      =      -0.6562127814061555 [Eh]
	 Correlation Energy        =      -0.8837292249619424 [Eh]
	 Total Energy              =   -1417.8837347019079971 [Eh]

	 ================> DF-SCS-MP2 Energies <==================
	-----------------------------------------------------------
	 SCS Same-Spin Scale       =       0.3333333333333333 [-]
	 SCS Opposite-Spin Scale   =       1.2000000000000000 [-]
	 SCS Same-Spin Energy      =      -0.0758388145185956 [Eh]
	 SCS Opposite-Spin Energy  =      -0.7874553376873865 [Eh]
	 SCS Correlation Energy    =      -0.8632941522059822 [Eh]
	 SCS Total Energy          =   -1417.8632996291519248 [Eh]
	-----------------------------------------------------------

  Dipole Moment: [D]
     X:     0.0400      Y:    -0.1017      Z:     1.0328     Total:     1.0385

*** Psi4 exiting successfully. Buy a developer a beer!
