                               Psi4 1.4a3.dev225

  ==> Input File <==

--------------------------------------------------------------------------
#psi4
#
memory 32 gb

molecule  {
0 1
 Cl       -1.6313870    -0.4143060    -0.0833670
 Cl        1.1744920    -1.2056670    -0.0833670
 Cl        0.4568920     1.6199720    -0.0833670
  C        0.0461861     0.0117299     0.4673861
  H       -0.0000010     0.0000010     1.5383770
units angstrom
no_reorient  #important for SAPT in psi4, default
symmetry c1  #important for SAPT in psi4, default
}

set PROPERTIES_ORIGIN ["COM"]
properties('MP2/aug-cc-pvtz', properties = ['dipole'])
--------------------------------------------------------------------------

    Molecular point group: c1
  Charge       = 0
  Multiplicity = 1
  Basis Set: AUG-CC-PVTZ
    Blend: AUG-CC-PVTZ
  Basis Set: (AUG-CC-PVTZ AUX)
    Blend: AUG-CC-PVTZ-JKFIT

    Orbital Energies [Eh]
    ---------------------

    Doubly Occupied:

       1A   -104.870519     2A   -104.870519     3A   -104.860943
       4A    -11.435750     5A    -10.595118     6A    -10.595109
       7A    -10.584804     8A     -8.061961     9A     -8.061960
      10A     -8.059780    11A     -8.059780    12A     -8.059732
      13A     -8.059731    14A     -8.051514    15A     -8.049501
      16A     -8.049465    17A     -1.243186    18A     -1.121852
      19A     -1.107075    20A     -0.878456    21A     -0.684237
      22A     -0.629941    23A     -0.622033    24A     -0.507072
      25A     -0.502260    26A     -0.472078    27A     -0.466913
      28A     -0.464463    29A     -0.451169

  @DF-RHF Final Energy: -1417.00121731430568

   => Energetics <=

    Nuclear Repulsion Energy =            263.3262613720371519
    One-Electron Energy =               -2481.7011178115267285
    Two-Electron Energy =                 801.3736391251838995
    Total Energy =                      -1417.0012173143056771
  Basis Set: (AUG-CC-PVTZ AUX)
    Blend: AUG-CC-PVTZ-RI
    Molecular point group: c1

    Geometry (in Angstrom), charge = 0, multiplicity = 1:

       Center              X                  Y                   Z               Mass
    ------------   -----------------  -----------------  -----------------  -----------------
         CL          -1.636086403679    -0.415499449309    -0.069910651982    34.968852682000
         CL           1.169792596321    -1.206860449309    -0.069910651982    34.968852682000
         CL           0.452192596321     1.618778550691    -0.069910651982    34.968852682000
         C            0.041486696321     0.010536450691     0.480842448018    12.000000000000
         H           -0.004700403679    -0.001192449309     1.551833348018     1.007825032230

  Basis Set: AUG-CC-PVTZ
    Blend: AUG-CC-PVTZ
  Basis Set: (AUG-CC-PVTZ AUX)
    Blend: AUG-CC-PVTZ-JKFIT
	 Reference Energy          =   -1417.0012173143056771 [Eh]
	 Singles Energy            =      -0.0000000000000000 [Eh]
	 Same-Spin Energy          =      -0.2274150409774203 [Eh]
	 Opposite-Spin Energy      =      -0.6561378376990193 [Eh]
	 Correlation Energy        =      -0.8835528786764396 [Eh]
	 Total Energy              =   -1417.8847701929821596 [Eh]

	 ================> DF-SCS-MP2 Energies <==================
	-----------------------------------------------------------
	 SCS Same-Spin Scale       =       0.3333333333333333 [-]
	 SCS Opposite-Spin Scale   =       1.2000000000000000 [-]
	 SCS Same-Spin Energy      =      -0.0758050136591401 [Eh]
	 SCS Opposite-Spin Energy  =      -0.7873654052388231 [Eh]
	 SCS Correlation Energy    =      -0.8631704188979632 [Eh]
	 SCS Total Energy          =   -1417.8643877332035572 [Eh]
	-----------------------------------------------------------

  Dipole Moment: [D]
     X:     0.2801      Y:     0.0711      Z:     1.0657     Total:     1.1042

*** Psi4 exiting successfully. Buy a developer a beer!
