                               Psi4 1.3.2 release

  ==> Input File <==

--------------------------------------------------------------------------
#psi4
#
memory 32 gb

molecule  {
0 1
 Cl       -1.6714420    -0.1952820    -0.0833930
 Cl        1.0048330    -1.3498640    -0.0833960
 Cl        0.6665980     1.5451390    -0.0834000
  C        0.0000270     0.0000110     0.4524940
  H        0.0000216     0.0000528     1.4382550
units angstrom
no_reorient  #important for SAPT in psi4, default
symmetry c1  #important for SAPT in psi4, default
}

set PROPERTIES_ORIGIN ["COM"]
properties('MP2/aug-cc-pvtz', properties = ['dipole'])
--------------------------------------------------------------------------

    Molecular point group: c1
  Charge       = 0
  Multiplicity = 1
  Basis Set: AUG-CC-PVTZ
    Blend: AUG-CC-PVTZ
  Basis Set: (AUG-CC-PVTZ AUX)
    Blend: AUG-CC-PVTZ-JKFIT

    Orbital Energies [Eh]
    ---------------------

    Doubly Occupied:

       1A   -104.867369     2A   -104.867368     3A   -104.867363
       4A    -11.425697     5A    -10.591816     6A    -10.591813
       7A    -10.591801     8A     -8.058625     9A     -8.058624
      10A     -8.058618    11A     -8.056496    12A     -8.056496
      13A     -8.056491    14A     -8.056451    15A     -8.056450
      16A     -8.056444    17A     -1.247507    18A     -1.116024
      19A     -1.116015    20A     -0.897888    21A     -0.693256
      22A     -0.627659    23A     -0.627655    24A     -0.505167
      25A     -0.505163    26A     -0.471095    27A     -0.469268
      28A     -0.469264    29A     -0.452174

  @DF-RHF Final Energy: -1416.99671818938396

   => Energetics <=

    Nuclear Repulsion Energy =            264.2126425078250804
    One-Electron Energy =               -2483.3866097438776706
    Two-Electron Energy =                 802.1772490466687486
    Total Energy =                      -1416.9967181893839552
  Basis Set: (AUG-CC-PVTZ AUX)
    Blend: AUG-CC-PVTZ-RI
    Molecular point group: c1

    Geometry (in Angstrom), charge = 0, multiplicity = 1:

       Center              X                  Y                   Z               Mass
    ------------   -----------------  -----------------  -----------------  -----------------
         CL          -1.671441670198    -0.195281494813    -0.067539252195    34.968852682000
         CL           1.004833329802    -1.349863494813    -0.067542252195    34.968852682000
         CL           0.666598329802     1.545139505187    -0.067546252195    34.968852682000
         C            0.000027329802     0.000011505187     0.468347747805    12.000000000000
         H            0.000021929802     0.000053305187     1.454108747805     1.007825032230

  Basis Set: AUG-CC-PVTZ
    Blend: AUG-CC-PVTZ
  Basis Set: (AUG-CC-PVTZ AUX)
    Blend: AUG-CC-PVTZ-JKFIT
	 Reference Energy          =   -1416.9967181893839552 [Eh]
	 Singles Energy            =      -0.0000000000000000 [Eh]
	 Same-Spin Energy          =      -0.2271762246744705 [Eh]
	 Opposite-Spin Energy      =      -0.6556802338552851 [Eh]
	 Correlation Energy        =      -0.8828564585297556 [Eh]
	 Total Energy              =   -1417.8795746479136142 [Eh]

	 ================> DF-SCS-MP2 Energies <==================
	-----------------------------------------------------------
	 SCS Same-Spin Scale       =       0.3333333333333333 [-]
	 SCS Opposite-Spin Scale   =       1.2000000000000000 [-]
	 SCS Same-Spin Energy      =      -0.0757254082248235 [Eh]
	 SCS Opposite-Spin Energy  =      -0.7868162806263420 [Eh]
	 SCS Correlation Energy    =      -0.8625416888511656 [Eh]
	 SCS Total Energy          =   -1417.8592598782352070 [Eh]
	-----------------------------------------------------------

  Dipole Moment: [D]
     X:     0.0002      Y:     0.0001      Z:     1.0196     Total:     1.0196

*** Psi4 exiting successfully. Buy a developer a beer!
