                               Psi4 1.4a3.dev225

  ==> Input File <==

--------------------------------------------------------------------------
#psi4
#
memory 32 gb

molecule  {
0 1
 Cl       -1.6313870    -0.4143060    -0.0833670
 Cl        1.1744920    -1.2056670    -0.0833670
 Cl        0.4568920     1.6199720    -0.0833670
  C       -0.0184660    -0.0046891     0.4461606
  H       -0.0000010     0.0000010     1.5383770
units angstrom
no_reorient  #important for SAPT in psi4, default
symmetry c1  #important for SAPT in psi4, default
}

set PROPERTIES_ORIGIN ["COM"]
properties('MP2/aug-cc-pvtz', properties = ['dipole'])
--------------------------------------------------------------------------

    Molecular point group: c1
  Charge       = 0
  Multiplicity = 1
  Basis Set: AUG-CC-PVTZ
    Blend: AUG-CC-PVTZ
  Basis Set: (AUG-CC-PVTZ AUX)
    Blend: AUG-CC-PVTZ-JKFIT

    Orbital Energies [Eh]
    ---------------------

    Doubly Occupied:

       1A   -104.869847     2A   -104.866174     3A   -104.866174
       4A    -11.435399     5A    -10.594522     6A    -10.590502
       7A    -10.590493     8A     -8.061376     9A     -8.059190
      10A     -8.059139    11A     -8.057292    12A     -8.057291
      13A     -8.055179    14A     -8.055179    15A     -8.055133
      16A     -8.055132    17A     -1.243827    18A     -1.118859
      19A     -1.113312    20A     -0.873096    21A     -0.681399
      22A     -0.629045    23A     -0.626254    24A     -0.505758
      25A     -0.503727    26A     -0.470868    27A     -0.468203
      28A     -0.463810    29A     -0.452039

  @DF-RHF Final Energy: -1417.00194684214011

   => Energetics <=

    Nuclear Repulsion Energy =            263.5984255904493239
    One-Electron Energy =               -2482.2443113141148388
    Two-Electron Energy =                 801.6439388815256279
    Total Energy =                      -1417.0019468421401143
  Basis Set: (AUG-CC-PVTZ AUX)
    Blend: AUG-CC-PVTZ-RI
    Molecular point group: c1

    Geometry (in Angstrom), charge = 0, multiplicity = 1:

       Center              X                  Y                   Z               Mass
    ------------   -----------------  -----------------  -----------------  -----------------
         CL          -1.629506839933    -0.413828508115    -0.067750559266    34.968852682000
         CL           1.176372160067    -1.205189508115    -0.067750559266    34.968852682000
         CL           0.458772160067     1.620449491885    -0.067750559266    34.968852682000
         C           -0.016585839933    -0.004211608115     0.461777040734    12.000000000000
         H            0.001879160067     0.000478491885     1.553993440734     1.007825032230

  Basis Set: AUG-CC-PVTZ
    Blend: AUG-CC-PVTZ
  Basis Set: (AUG-CC-PVTZ AUX)
    Blend: AUG-CC-PVTZ-JKFIT
	 Reference Energy          =   -1417.0019468421401143 [Eh]
	 Singles Energy            =      -0.0000000000000000 [Eh]
	 Same-Spin Energy          =      -0.2275454330124712 [Eh]
	 Opposite-Spin Energy      =      -0.6561041355582427 [Eh]
	 Correlation Energy        =      -0.8836495685707138 [Eh]
	 Total Energy              =   -1417.8855964107108321 [Eh]

	 ================> DF-SCS-MP2 Energies <==================
	-----------------------------------------------------------
	 SCS Same-Spin Scale       =       0.3333333333333333 [-]
	 SCS Opposite-Spin Scale   =       1.2000000000000000 [-]
	 SCS Same-Spin Energy      =      -0.0758484776708237 [Eh]
	 SCS Opposite-Spin Energy  =      -0.7873249626698912 [Eh]
	 SCS Correlation Energy    =      -0.8631734403407149 [Eh]
	 SCS Total Energy          =   -1417.8651202824808024 [Eh]
	-----------------------------------------------------------

  Dipole Moment: [D]
     X:    -0.1132      Y:    -0.0287      Z:     1.0514     Total:     1.0579

*** Psi4 exiting successfully. Buy a developer a beer!
