                               Psi4 1.3.2 release

  ==> Input File <==

--------------------------------------------------------------------------
#psi4
#
memory 32 gb

molecule  {
0 1
 Cl       -1.6714420    -0.1952820    -0.0833930
 Cl        1.0048330    -1.3498640    -0.0833960
 Cl        0.6665980     1.5451390    -0.0834000
  C        0.0000270     0.0000110     0.4524940
  H        0.0000210     0.0000570     1.5382550
units angstrom
no_reorient  #important for SAPT in psi4, default
symmetry c1  #important for SAPT in psi4, default
}

set PROPERTIES_ORIGIN ["COM"]
properties('MP2/aug-cc-pvtz', properties = ['dipole'])
--------------------------------------------------------------------------

    Molecular point group: c1
  Charge       = 0
  Multiplicity = 1
  Basis Set: AUG-CC-PVTZ
    Blend: AUG-CC-PVTZ
  Basis Set: (AUG-CC-PVTZ AUX)
    Blend: AUG-CC-PVTZ-JKFIT

    Orbital Energies [Eh]
    ---------------------

    Doubly Occupied:

       1A   -104.867374     2A   -104.867373     3A   -104.867369
       4A    -11.435278     5A    -10.591788     6A    -10.591785
       7A    -10.591773     8A     -8.058595     9A     -8.058593
      10A     -8.058588    11A     -8.056462    12A     -8.056461
      13A     -8.056456    14A     -8.056416    15A     -8.056415
      16A     -8.056409    17A     -1.243273    18A     -1.115768
      19A     -1.115759    20A     -0.874700    21A     -0.681952
      22A     -0.627141    23A     -0.627136    24A     -0.504749
      25A     -0.504745    26A     -0.469190    27A     -0.469186
      28A     -0.465025    29A     -0.452008

  @DF-RHF Final Energy: -1417.00233303225946

   => Energetics <=

    Nuclear Repulsion Energy =            263.5686072112919760
    One-Electron Energy =               -2482.1863459625483301
    Two-Electron Energy =                 801.6154057189967261
    Total Energy =                      -1417.0023330322594575
  Basis Set: (AUG-CC-PVTZ AUX)
    Blend: AUG-CC-PVTZ-RI
    Molecular point group: c1

    Geometry (in Angstrom), charge = 0, multiplicity = 1:

       Center              X                  Y                   Z               Mass
    ------------   -----------------  -----------------  -----------------  -----------------
         CL          -1.671441665070    -0.195281530711    -0.068393961354    34.968852682000
         CL           1.004833334930    -1.349863530711    -0.068396961354    34.968852682000
         CL           0.666598334930     1.545139469289    -0.068400961354    34.968852682000
         C            0.000027334930     0.000011469289     0.467493038646    12.000000000000
         H            0.000021334930     0.000057469289     1.553254038646     1.007825032230

  Basis Set: AUG-CC-PVTZ
    Blend: AUG-CC-PVTZ
  Basis Set: (AUG-CC-PVTZ AUX)
    Blend: AUG-CC-PVTZ-JKFIT
	 Reference Energy          =   -1417.0023330322594575 [Eh]
	 Singles Energy            =      -0.0000000000000000 [Eh]
	 Same-Spin Energy          =      -0.2274809541582301 [Eh]
	 Opposite-Spin Energy      =      -0.6560624473664056 [Eh]
	 Correlation Energy        =      -0.8835434015246357 [Eh]
	 Total Energy              =   -1417.8858764337840057 [Eh]

	 ================> DF-SCS-MP2 Energies <==================
	-----------------------------------------------------------
	 SCS Same-Spin Scale       =       0.3333333333333333 [-]
	 SCS Opposite-Spin Scale   =       1.2000000000000000 [-]
	 SCS Same-Spin Energy      =      -0.0758269847194100 [Eh]
	 SCS Opposite-Spin Energy  =      -0.7872749368396867 [Eh]
	 SCS Correlation Energy    =      -0.8631019215590967 [Eh]
	 SCS Total Energy          =   -1417.8654349538185215 [Eh]
	-----------------------------------------------------------

  Dipole Moment: [D]
     X:     0.0002      Y:     0.0001      Z:     1.0557     Total:     1.0557

*** Psi4 exiting successfully. Buy a developer a beer!
