                               Psi4 1.4a3.dev225

  ==> Input File <==

--------------------------------------------------------------------------
#psi4
#
memory 32 gb

molecule  {
0 1
 Cl       -1.6313870    -0.4143060    -0.0833670
 Cl        1.1744920    -1.2056670    -0.0833670
 Cl        0.4568920     1.6199720    -0.0833670
  C        0.0000060     0.0000020     0.4522250
  H       -0.0000009     0.0000010     1.5183770
units angstrom
no_reorient  #important for SAPT in psi4, default
symmetry c1  #important for SAPT in psi4, default
}

set PROPERTIES_ORIGIN ["COM"]
properties('MP2/aug-cc-pvtz', properties = ['dipole'])
--------------------------------------------------------------------------

    Molecular point group: c1
  Charge       = 0
  Multiplicity = 1
  Basis Set: AUG-CC-PVTZ
    Blend: AUG-CC-PVTZ
  Basis Set: (AUG-CC-PVTZ AUX)
    Blend: AUG-CC-PVTZ-JKFIT

    Orbital Energies [Eh]
    ---------------------

    Doubly Occupied:

       1A   -104.867379     2A   -104.867379     3A   -104.867378
       4A    -11.433513     5A    -10.591794     6A    -10.591793
       7A    -10.591780     8A     -8.058600     9A     -8.058599
      10A     -8.058598    11A     -8.056469    12A     -8.056469
      13A     -8.056467    14A     -8.056423    15A     -8.056422
      16A     -8.056420    17A     -1.243862    18A     -1.115781
      19A     -1.115778    20A     -0.878827    21A     -0.684223
      22A     -0.627163    23A     -0.627162    24A     -0.504804
      25A     -0.504804    26A     -0.469223    27A     -0.469222
      28A     -0.466243    29A     -0.452069

  @DF-RHF Final Energy: -1417.00250786035281

   => Energetics <=

    Nuclear Repulsion Energy =            263.6416135753702292
    One-Electron Energy =               -2482.3189534188245489
    Two-Electron Energy =                 801.6748319831017398
    Total Energy =                      -1417.0025078603525799
  Basis Set: (AUG-CC-PVTZ AUX)
    Blend: AUG-CC-PVTZ-RI
    Molecular point group: c1

    Geometry (in Angstrom), charge = 0, multiplicity = 1:

       Center              X                  Y                   Z               Mass
    ------------   -----------------  -----------------  -----------------  -----------------
         CL          -1.631386713236    -0.414305915523    -0.068196783874    34.968852682000
         CL           1.174492286764    -1.205666915523    -0.068196783874    34.968852682000
         CL           0.456892286764     1.619972084477    -0.068196783874    34.968852682000
         C            0.000006286764     0.000002084477     0.467395216126    12.000000000000
         H           -0.000000613236     0.000001084477     1.533547216126     1.007825032230

  Basis Set: AUG-CC-PVTZ
    Blend: AUG-CC-PVTZ
  Basis Set: (AUG-CC-PVTZ AUX)
    Blend: AUG-CC-PVTZ-JKFIT
	 Reference Energy          =   -1417.0025078603528073 [Eh]
	 Singles Energy            =      -0.0000000000000000 [Eh]
	 Same-Spin Energy          =      -0.2274060441903815 [Eh]
	 Opposite-Spin Energy      =      -0.6559572893406913 [Eh]
	 Correlation Energy        =      -0.8833633335310729 [Eh]
	 Total Energy              =   -1417.8858711938839861 [Eh]

	 ================> DF-SCS-MP2 Energies <==================
	-----------------------------------------------------------
	 SCS Same-Spin Scale       =       0.3333333333333333 [-]
	 SCS Opposite-Spin Scale   =       1.2000000000000000 [-]
	 SCS Same-Spin Energy      =      -0.0758020147301272 [Eh]
	 SCS Opposite-Spin Energy  =      -0.7871487472088295 [Eh]
	 SCS Correlation Energy    =      -0.8629507619389567 [Eh]
	 SCS Total Energy          =   -1417.8654586222917260 [Eh]
	-----------------------------------------------------------

  Dipole Moment: [D]
     X:     0.0000      Y:     0.0000      Z:     1.0500     Total:     1.0500

*** Psi4 exiting successfully. Buy a developer a beer!
