                               Psi4 1.3.2 release

  ==> Input File <==

--------------------------------------------------------------------------
#psi4
#
memory 32 gb

molecule  {
0 1
 Cl       -1.6714420    -0.1952820    -0.0833930
 Cl        1.0048330    -1.3498640    -0.0833960
 Cl        0.6665980     1.5451390    -0.0834000
  C        0.0946686     0.0110688     0.4828369
  H        0.0000210     0.0000570     1.5382550
units angstrom
no_reorient  #important for SAPT in psi4, default
symmetry c1  #important for SAPT in psi4, default
}

set PROPERTIES_ORIGIN ["COM"]
properties('MP2/aug-cc-pvtz', properties = ['dipole'])
--------------------------------------------------------------------------

    Molecular point group: c1
  Charge       = 0
  Multiplicity = 1
  Basis Set: AUG-CC-PVTZ
    Blend: AUG-CC-PVTZ
  Basis Set: (AUG-CC-PVTZ AUX)
    Blend: AUG-CC-PVTZ-JKFIT

    Orbital Energies [Eh]
    ---------------------

    Doubly Occupied:

       1A   -104.873746     2A   -104.873745     3A   -104.853899
       4A    -11.436704     5A    -10.598536     6A    -10.598527
       7A    -10.577412     8A     -8.065414     9A     -8.065413
      10A     -8.063184    11A     -8.063183    12A     -8.063131
      13A     -8.063130    14A     -8.044036    15A     -8.042124
      16A     -8.042095    17A     -1.245317    18A     -1.128060
      19A     -1.097634    20A     -0.882266    21A     -0.688183
      22A     -0.633816    23A     -0.617365    24A     -0.509314
      25A     -0.500572    26A     -0.475314    27A     -0.466845
      28A     -0.458897    29A     -0.449064

  @DF-RHF Final Energy: -1416.99763240317748

   => Energetics <=

    Nuclear Repulsion Energy =            263.1910479083960013
    One-Electron Energy =               -2481.4235054880123243
    Two-Electron Energy =                 801.2348251764391307
    Total Energy =                      -1416.9976324031772492
  Basis Set: (AUG-CC-PVTZ AUX)
    Blend: AUG-CC-PVTZ-RI
    Molecular point group: c1

    Geometry (in Angstrom), charge = 0, multiplicity = 1:

       Center              X                  Y                   Z               Mass
    ------------   -----------------  -----------------  -----------------  -----------------
         CL          -1.681073222903    -0.196406869253    -0.071481920520    34.968852682000
         CL           0.995201777097    -1.350988869253    -0.071484920520    34.968852682000
         CL           0.656966777097     1.544014130747    -0.071488920520    34.968852682000
         C            0.085037377097     0.009943930747     0.494747979480    12.000000000000
         H           -0.009610222903    -0.001067869253     1.550166079480     1.007825032230

  Basis Set: AUG-CC-PVTZ
    Blend: AUG-CC-PVTZ
  Basis Set: (AUG-CC-PVTZ AUX)
    Blend: AUG-CC-PVTZ-JKFIT
	 Reference Energy          =   -1416.9976324031774766 [Eh]
	 Singles Energy            =      -0.0000000000000000 [Eh]
	 Same-Spin Energy          =      -0.2275103089184238 [Eh]
	 Opposite-Spin Energy      =      -0.6564067021248630 [Eh]
	 Correlation Energy        =      -0.8839170110432868 [Eh]
	 Total Energy              =   -1417.8815494142206717 [Eh]

	 ================> DF-SCS-MP2 Energies <==================
	-----------------------------------------------------------
	 SCS Same-Spin Scale       =       0.3333333333333333 [-]
	 SCS Opposite-Spin Scale   =       1.2000000000000000 [-]
	 SCS Same-Spin Energy      =      -0.0758367696394746 [Eh]
	 SCS Opposite-Spin Energy  =      -0.7876880425498355 [Eh]
	 SCS Correlation Energy    =      -0.8635248121893101 [Eh]
	 SCS Total Energy          =   -1417.8611572153668021 [Eh]
	-----------------------------------------------------------

  Dipole Moment: [D]
     X:     0.5723      Y:     0.0669      Z:     1.0750     Total:     1.2197

*** Psi4 exiting successfully. Buy a developer a beer!
