                               Psi4 1.3.2 release

  ==> Input File <==

--------------------------------------------------------------------------
#psi4
#
memory 32 gb

molecule  {
0 1
 Cl       -1.6786753    -0.1686573    -0.0696482
 Cl        1.0048330    -1.3498640    -0.0833960
 Cl        0.6665980     1.5451390    -0.0834000
  C        0.0000270     0.0000110     0.4524940
  H        0.0000210     0.0000570     1.5382550
units angstrom
no_reorient  #important for SAPT in psi4, default
symmetry c1  #important for SAPT in psi4, default
}

set PROPERTIES_ORIGIN ["COM"]
properties('MP2/aug-cc-pvtz', properties = ['dipole'])
--------------------------------------------------------------------------

    Molecular point group: c1
  Charge       = 0
  Multiplicity = 1
  Basis Set: AUG-CC-PVTZ
    Blend: AUG-CC-PVTZ
  Basis Set: (AUG-CC-PVTZ AUX)
    Blend: AUG-CC-PVTZ-JKFIT

    Orbital Energies [Eh]
    ---------------------

    Doubly Occupied:

       1A   -104.868107     2A   -104.867401     3A   -104.866917
       4A    -11.435193     5A    -10.592458     6A    -10.591806
       7A    -10.591359     8A     -8.059270     9A     -8.058617
      10A     -8.058168    11A     -8.057137    12A     -8.057090
      13A     -8.056485    14A     -8.056437    15A     -8.056035
      16A     -8.055989    17A     -1.243165    18A     -1.116784
      19A     -1.115009    20A     -0.874597    21A     -0.681724
      22A     -0.627960    23A     -0.626466    24A     -0.505503
      25A     -0.503917    26A     -0.470270    27A     -0.468733
      28A     -0.464582    29A     -0.452153

  @DF-RHF Final Energy: -1417.00225664562163

   => Energetics <=

    Nuclear Repulsion Energy =            263.4493075664511252
    One-Electron Energy =               -2481.9444614786684724
    Two-Electron Energy =                 801.4928972665959463
    Total Energy =                      -1417.0022566456216282
  Basis Set: (AUG-CC-PVTZ AUX)
    Blend: AUG-CC-PVTZ-RI
    Molecular point group: c1

    Geometry (in Angstrom), charge = 0, multiplicity = 1:

       Center              X                  Y                   Z               Mass
    ------------   -----------------  -----------------  -----------------  -----------------
         CL          -1.676529847609    -0.176552688601    -0.058725338270    34.968852682000
         CL           1.006978452391    -1.357759388601    -0.072473138270    34.968852682000
         CL           0.668743452391     1.537243611399    -0.072477138270    34.968852682000
         C            0.002172452391    -0.007884388601     0.463416861730    12.000000000000
         H            0.002166452391    -0.007838388601     1.549177861730     1.007825032230

  Basis Set: AUG-CC-PVTZ
    Blend: AUG-CC-PVTZ
  Basis Set: (AUG-CC-PVTZ AUX)
    Blend: AUG-CC-PVTZ-JKFIT
	 Reference Energy          =   -1417.0022566456216282 [Eh]
	 Singles Energy            =      -0.0000000000000000 [Eh]
	 Same-Spin Energy          =      -0.2274730507609296 [Eh]
	 Opposite-Spin Energy      =      -0.6560640538664071 [Eh]
	 Correlation Energy        =      -0.8835371046273367 [Eh]
	 Total Energy              =   -1417.8857937502489222 [Eh]

	 ================> DF-SCS-MP2 Energies <==================
	-----------------------------------------------------------
	 SCS Same-Spin Scale       =       0.3333333333333333 [-]
	 SCS Opposite-Spin Scale   =       1.2000000000000000 [-]
	 SCS Same-Spin Energy      =      -0.0758243502536432 [Eh]
	 SCS Opposite-Spin Energy  =      -0.7872768646396885 [Eh]
	 SCS Correlation Energy    =      -0.8631012148933317 [Eh]
	 SCS Total Energy          =   -1417.8653578605149050 [Eh]
	-----------------------------------------------------------

  Dipole Moment: [D]
     X:     0.0070      Y:    -0.0168      Z:     1.0521     Total:     1.0523

*** Psi4 exiting successfully. Buy a developer a beer!
