                               Psi4 1.3.2 release

  ==> Input File <==

--------------------------------------------------------------------------
#psi4
#
memory 32 gb

molecule  {
0 1
 Cl       -1.6714420    -0.1952820    -0.0833930
 Cl        1.0048330    -1.3498640    -0.0833960
 Cl        0.6665980     1.5451390    -0.0834000
  C       -0.0946146    -0.0110468     0.4221511
  H        0.0000210     0.0000570     1.5382550
units angstrom
no_reorient  #important for SAPT in psi4, default
symmetry c1  #important for SAPT in psi4, default
}

set PROPERTIES_ORIGIN ["COM"]
properties('MP2/aug-cc-pvtz', properties = ['dipole'])
--------------------------------------------------------------------------

    Molecular point group: c1
  Charge       = 0
  Multiplicity = 1
  Basis Set: AUG-CC-PVTZ
    Blend: AUG-CC-PVTZ
  Basis Set: (AUG-CC-PVTZ AUX)
    Blend: AUG-CC-PVTZ-JKFIT

    Orbital Energies [Eh]
    ---------------------

    Doubly Occupied:

       1A   -104.879063     2A   -104.861217     3A   -104.861216
       4A    -11.436229     5A    -10.605211     6A    -10.585245
       7A    -10.585237     8A     -8.072275     9A     -8.069819
      10A     -8.069745    11A     -8.051972    12A     -8.051971
      13A     -8.049931    14A     -8.049931    15A     -8.049889
      16A     -8.049887    17A     -1.252215    18A     -1.128364
      19A     -1.103668    20A     -0.867019    21A     -0.683741
      22A     -0.635806    23A     -0.625278    24A     -0.509326
      25A     -0.499152    26A     -0.476143    27A     -0.464774
      28A     -0.457420    29A     -0.449913

  @DF-RHF Final Energy: -1416.99489953465581

   => Energetics <=

    Nuclear Repulsion Energy =            264.0058002605301226
    One-Electron Energy =               -2483.0380896210781430
    Two-Electron Energy =                 802.0373898258922054
    Total Energy =                      -1416.9948995346558149
  Basis Set: (AUG-CC-PVTZ AUX)
    Blend: AUG-CC-PVTZ-RI
    Molecular point group: c1

    Geometry (in Angstrom), charge = 0, multiplicity = 1:

       Center              X                  Y                   Z               Mass
    ------------   -----------------  -----------------  -----------------  -----------------
         CL          -1.661810107237    -0.194156192168    -0.065306002188    34.968852682000
         CL           1.014464892763    -1.348738192168    -0.065309002188    34.968852682000
         CL           0.676229892763     1.546264807832    -0.065313002188    34.968852682000
         C           -0.084982707237    -0.009920992168     0.440238097812    12.000000000000
         H            0.009652892763     0.001182807832     1.556341997812     1.007825032230

  Basis Set: AUG-CC-PVTZ
    Blend: AUG-CC-PVTZ
  Basis Set: (AUG-CC-PVTZ AUX)
    Blend: AUG-CC-PVTZ-JKFIT
	 Reference Energy          =   -1416.9948995346558149 [Eh]
	 Singles Energy            =      -0.0000000000000000 [Eh]
	 Same-Spin Energy          =      -0.2281399572868242 [Eh]
	 Opposite-Spin Energy      =      -0.6566939007652188 [Eh]
	 Correlation Energy        =      -0.8848338580520431 [Eh]
	 Total Energy              =   -1417.8797333927077489 [Eh]

	 ================> DF-SCS-MP2 Energies <==================
	-----------------------------------------------------------
	 SCS Same-Spin Scale       =       0.3333333333333333 [-]
	 SCS Opposite-Spin Scale   =       1.2000000000000000 [-]
	 SCS Same-Spin Energy      =      -0.0760466524289414 [Eh]
	 SCS Opposite-Spin Energy  =      -0.7880326809182626 [Eh]
	 SCS Correlation Energy    =      -0.8640793333472040 [Eh]
	 SCS Total Energy          =   -1417.8589788680030779 [Eh]
	-----------------------------------------------------------

  Dipole Moment: [D]
     X:    -0.5944      Y:    -0.0694      Z:     1.0319     Total:     1.1928

*** Psi4 exiting successfully. Buy a developer a beer!
