                               Psi4 1.3.2 release

  ==> Input File <==

--------------------------------------------------------------------------
#psi4
#
memory 32 gb

molecule  {
0 1
 Cl       -1.6066476    -0.1877198    -0.2563620
 Cl        1.0048330    -1.3498640    -0.0833960
 Cl        0.6665980     1.5451390    -0.0834000
  C        0.0000270     0.0000110     0.4524940
  H        0.0000210     0.0000570     1.5382550
units angstrom
no_reorient  #important for SAPT in psi4, default
symmetry c1  #important for SAPT in psi4, default
}

set PROPERTIES_ORIGIN ["COM"]
properties('MP2/aug-cc-pvtz', properties = ['dipole'])
--------------------------------------------------------------------------

    Molecular point group: c1
  Charge       = 0
  Multiplicity = 1
  Basis Set: AUG-CC-PVTZ
    Blend: AUG-CC-PVTZ
  Basis Set: (AUG-CC-PVTZ AUX)
    Blend: AUG-CC-PVTZ-JKFIT

    Orbital Energies [Eh]
    ---------------------

    Doubly Occupied:

       1A   -104.866831     2A   -104.865495     3A   -104.865494
       4A    -11.436241     5A    -10.591328     6A    -10.590104
       7A    -10.590095     8A     -8.058127     9A     -8.056899
      10A     -8.056898    11A     -8.055975    12A     -8.055946
      13A     -8.054771    14A     -8.054771    15A     -8.054727
      16A     -8.054726    17A     -1.245092    18A     -1.115282
      19A     -1.112575    20A     -0.876077    21A     -0.685225
      22A     -0.627479    23A     -0.624354    24A     -0.507533
      25A     -0.503376    26A     -0.470374    27A     -0.466564
      28A     -0.463764    29A     -0.448896

  @DF-RHF Final Energy: -1417.00060803674205

   => Energetics <=

    Nuclear Repulsion Energy =            265.3145497296833923
    One-Electron Energy =               -2485.7202854470392595
    Two-Electron Energy =                 803.4051276806141004
    Total Energy =                      -1417.0006080367420509
  Basis Set: (AUG-CC-PVTZ AUX)
    Blend: AUG-CC-PVTZ-RI
    Molecular point group: c1

    Geometry (in Angstrom), charge = 0, multiplicity = 1:

       Center              X                  Y                   Z               Mass
    ------------   -----------------  -----------------  -----------------  -----------------
         CL          -1.625862782033    -0.189961987212    -0.190067035262    34.968852682000
         CL           0.985617817967    -1.352106187212    -0.017101035262    34.968852682000
         CL           0.647382817967     1.542896812788    -0.017105035262    34.968852682000
         C           -0.019188182033    -0.002231187212     0.518788964738    12.000000000000
         H           -0.019194182033    -0.002185187212     1.604549964738     1.007825032230

  Basis Set: AUG-CC-PVTZ
    Blend: AUG-CC-PVTZ
  Basis Set: (AUG-CC-PVTZ AUX)
    Blend: AUG-CC-PVTZ-JKFIT
	 Reference Energy          =   -1417.0006080367420509 [Eh]
	 Singles Energy            =      -0.0000000000000000 [Eh]
	 Same-Spin Energy          =      -0.2276951402612131 [Eh]
	 Opposite-Spin Energy      =      -0.6562370248132317 [Eh]
	 Correlation Energy        =      -0.8839321650744447 [Eh]
	 Total Energy              =   -1417.8845402018164350 [Eh]

	 ================> DF-SCS-MP2 Energies <==================
	-----------------------------------------------------------
	 SCS Same-Spin Scale       =       0.3333333333333333 [-]
	 SCS Opposite-Spin Scale   =       1.2000000000000000 [-]
	 SCS Same-Spin Energy      =      -0.0758983800870710 [Eh]
	 SCS Opposite-Spin Energy  =      -0.7874844297758780 [Eh]
	 SCS Correlation Energy    =      -0.8633828098629490 [Eh]
	 SCS Total Energy          =   -1417.8639908466050201 [Eh]
	-----------------------------------------------------------

  Dipole Moment: [D]
     X:    -0.0624      Y:    -0.0072      Z:     1.0984     Total:     1.1002

*** Psi4 exiting successfully. Buy a developer a beer!
