                               Psi4 1.3.2 release

  ==> Input File <==

--------------------------------------------------------------------------
#psi4
#
memory 32 gb

molecule  {
0 1
 Cl       -1.6714420    -0.1952820    -0.0833930
 Cl        1.0048330    -1.3498640    -0.0833960
 Cl        0.6665980     1.5451390    -0.0834000
  C       -0.1892562    -0.0221047     0.3918082
  H        0.0000210     0.0000570     1.5382550
units angstrom
no_reorient  #important for SAPT in psi4, default
symmetry c1  #important for SAPT in psi4, default
}

set PROPERTIES_ORIGIN ["COM"]
properties('MP2/aug-cc-pvtz', properties = ['dipole'])
--------------------------------------------------------------------------

    Molecular point group: c1
  Charge       = 0
  Multiplicity = 1
  Basis Set: AUG-CC-PVTZ
    Blend: AUG-CC-PVTZ
  Basis Set: (AUG-CC-PVTZ AUX)
    Blend: AUG-CC-PVTZ-JKFIT

    Orbital Energies [Eh]
    ---------------------

    Doubly Occupied:

       1A   -104.890270     2A   -104.854490     3A   -104.854490
       4A    -11.438696     5A    -10.619215     6A    -10.578191
       7A    -10.578182     8A     -8.086621     9A     -8.083658
      10A     -8.083539    11A     -8.044834    12A     -8.044834
      13A     -8.042877    14A     -8.042877    15A     -8.042838
      16A     -8.042837    17A     -1.277738    18A     -1.131406
      19A     -1.091467    20A     -0.859952    21A     -0.694893
      22A     -0.642006    23A     -0.630343    24A     -0.511099
      25A     -0.491463    26A     -0.479721    27A     -0.460823
      28A     -0.446428    29A     -0.443546

  @DF-RHF Final Energy: -1416.97025782156265

   => Energetics <=

    Nuclear Repulsion Energy =            264.5731960843108936
    One-Electron Energy =               -2484.1082384700398507
    Two-Electron Energy =                 802.5647845641663025
    Total Energy =                      -1416.9702578215626545
  Basis Set: (AUG-CC-PVTZ AUX)
    Blend: AUG-CC-PVTZ-RI
    Molecular point group: c1

    Geometry (in Angstrom), charge = 0, multiplicity = 1:

       Center              X                  Y                   Z               Mass
    ------------   -----------------  -----------------  -----------------  -----------------
         CL          -1.652178549403    -0.193030843449    -0.062218043023    34.968852682000
         CL           1.024096450597    -1.347612843449    -0.062221043023    34.968852682000
         CL           0.685861450597     1.547390156551    -0.062225043023    34.968852682000
         C           -0.169992749403    -0.019853543449     0.412983156977    12.000000000000
         H            0.019284450597     0.002308156551     1.559429956977     1.007825032230

  Basis Set: AUG-CC-PVTZ
    Blend: AUG-CC-PVTZ
  Basis Set: (AUG-CC-PVTZ AUX)
    Blend: AUG-CC-PVTZ-JKFIT
	 Reference Energy          =   -1416.9702578215626545 [Eh]
	 Singles Energy            =      -0.0000000000000000 [Eh]
	 Same-Spin Energy          =      -0.2296475016808546 [Eh]
	 Opposite-Spin Energy      =      -0.6585983858594953 [Eh]
	 Correlation Energy        =      -0.8882458875403498 [Eh]
	 Total Energy              =   -1417.8585037091029335 [Eh]

	 ================> DF-SCS-MP2 Energies <==================
	-----------------------------------------------------------
	 SCS Same-Spin Scale       =       0.3333333333333333 [-]
	 SCS Opposite-Spin Scale   =       1.2000000000000000 [-]
	 SCS Same-Spin Energy      =      -0.0765491672269515 [Eh]
	 SCS Opposite-Spin Energy  =      -0.7903180630313943 [Eh]
	 SCS Correlation Energy    =      -0.8668672302583458 [Eh]
	 SCS Total Energy          =   -1417.8371250518209763 [Eh]
	-----------------------------------------------------------

  Dipole Moment: [D]
     X:    -1.2510      Y:    -0.1461      Z:     0.9991     Total:     1.6077

*** Psi4 exiting successfully. Buy a developer a beer!
