                               Psi4 1.3.2 release

  ==> Input File <==

--------------------------------------------------------------------------
#psi4
#
memory 32 gb

molecule  {
0 1
 Cl       -1.6853973    -0.1419813    -0.0557443
 Cl        1.0048330    -1.3498640    -0.0833960
 Cl        0.6665980     1.5451390    -0.0834000
  C        0.0000270     0.0000110     0.4524940
  H        0.0000210     0.0000570     1.5382550
units angstrom
no_reorient  #important for SAPT in psi4, default
symmetry c1  #important for SAPT in psi4, default
}

set PROPERTIES_ORIGIN ["COM"]
properties('MP2/aug-cc-pvtz', properties = ['dipole'])
--------------------------------------------------------------------------

    Molecular point group: c1
  Charge       = 0
  Multiplicity = 1
  Basis Set: AUG-CC-PVTZ
    Blend: AUG-CC-PVTZ
  Basis Set: (AUG-CC-PVTZ AUX)
    Blend: AUG-CC-PVTZ-JKFIT

    Orbital Energies [Eh]
    ---------------------

    Doubly Occupied:

       1A   -104.868833     2A   -104.867421     3A   -104.866458
       4A    -11.435103     5A    -10.593125     6A    -10.591825
       7A    -10.590932     8A     -8.059940     9A     -8.058635
      10A     -8.057806    11A     -8.057758    12A     -8.057740
      13A     -8.056504    14A     -8.056455    15A     -8.055607
      16A     -8.055561    17A     -1.243082    18A     -1.117787
      19A     -1.114251    20A     -0.874498    21A     -0.681503
      22A     -0.628772    23A     -0.625785    24A     -0.506264
      25A     -0.503109    26A     -0.471371    27A     -0.468309
      28A     -0.464141    29A     -0.452167

  @DF-RHF Final Energy: -1417.00205315485118

   => Energetics <=

    Nuclear Repulsion Energy =            263.3417463404684327
    One-Electron Energy =               -2481.7261155515652717
    Two-Electron Energy =                 801.3823160562455996
    Total Energy =                      -1417.0020531548511826
  Basis Set: (AUG-CC-PVTZ AUX)
    Blend: AUG-CC-PVTZ-RI
    Molecular point group: c1

    Geometry (in Angstrom), charge = 0, multiplicity = 1:

       Center              X                  Y                   Z               Mass
    ------------   -----------------  -----------------  -----------------  -----------------
         CL          -1.681258361983    -0.157787760090    -0.048944798102    34.968852682000
         CL           1.008971938017    -1.365670460090    -0.076596498102    34.968852682000
         CL           0.670736938017     1.529332539910    -0.076600498102    34.968852682000
         C            0.004165938017    -0.015795460090     0.459293501898    12.000000000000
         H            0.004159938017    -0.015749460090     1.545054501898     1.007825032230

  Basis Set: AUG-CC-PVTZ
    Blend: AUG-CC-PVTZ
  Basis Set: (AUG-CC-PVTZ AUX)
    Blend: AUG-CC-PVTZ-JKFIT
	 Reference Energy          =   -1417.0020531548511826 [Eh]
	 Singles Energy            =      -0.0000000000000000 [Eh]
	 Same-Spin Energy          =      -0.2274707637036174 [Eh]
	 Opposite-Spin Energy      =      -0.6560751141699988 [Eh]
	 Correlation Energy        =      -0.8835458778736162 [Eh]
	 Total Energy              =   -1417.8855990327247127 [Eh]

	 ================> DF-SCS-MP2 Energies <==================
	-----------------------------------------------------------
	 SCS Same-Spin Scale       =       0.3333333333333333 [-]
	 SCS Opposite-Spin Scale   =       1.2000000000000000 [-]
	 SCS Same-Spin Energy      =      -0.0758235879012058 [Eh]
	 SCS Opposite-Spin Energy  =      -0.7872901370039985 [Eh]
	 SCS Correlation Energy    =      -0.8631137249052043 [Eh]
	 SCS Total Energy          =   -1417.8651668797563161 [Eh]
	-----------------------------------------------------------

  Dipole Moment: [D]
     X:     0.0137      Y:    -0.0337      Z:     1.0484     Total:     1.0490

*** Psi4 exiting successfully. Buy a developer a beer!
