                               Psi4 1.3.2 release

  ==> Input File <==

--------------------------------------------------------------------------
#psi4
#
memory 32 gb

molecule  {
0 1
 Cl       -1.6714420    -0.1952820    -0.0833930
 Cl        1.0048330    -1.3498640    -0.0833960
 Cl        0.6665980     1.5451390    -0.0834000
  C        0.0000270     0.0000110     0.4524940
  H        0.0000199     0.0000655     1.7382550
units angstrom
no_reorient  #important for SAPT in psi4, default
symmetry c1  #important for SAPT in psi4, default
}

set PROPERTIES_ORIGIN ["COM"]
properties('MP2/aug-cc-pvtz', properties = ['dipole'])
--------------------------------------------------------------------------

    Molecular point group: c1
  Charge       = 0
  Multiplicity = 1
  Basis Set: AUG-CC-PVTZ
    Blend: AUG-CC-PVTZ
  Basis Set: (AUG-CC-PVTZ AUX)
    Blend: AUG-CC-PVTZ-JKFIT

    Orbital Energies [Eh]
    ---------------------

    Doubly Occupied:

       1A   -104.868163     2A   -104.868162     3A   -104.868157
       4A    -11.451897     5A    -10.592451     6A    -10.592448
       7A    -10.592435     8A     -8.059250     9A     -8.059250
      10A     -8.059244    11A     -8.057106    12A     -8.057106
      13A     -8.057100    14A     -8.057063    15A     -8.057062
      16A     -8.057057    17A     -1.238439    18A     -1.115752
      19A     -1.115743    20A     -0.844048    21A     -0.655946
      22A     -0.626834    23A     -0.626830    24A     -0.504249
      25A     -0.504245    26A     -0.469436    27A     -0.469431
      28A     -0.452174    29A     -0.450996

  @DF-RHF Final Energy: -1416.97990347561358

   => Energetics <=

    Nuclear Repulsion Energy =            262.4480079125960970
    One-Electron Energy =               -2479.9996732032532236
    Two-Electron Energy =                 800.5717618150436010
    Total Energy =                      -1416.9799034756135825
  Basis Set: (AUG-CC-PVTZ AUX)
    Blend: AUG-CC-PVTZ-RI
    Molecular point group: c1

    Geometry (in Angstrom), charge = 0, multiplicity = 1:

       Center              X                  Y                   Z               Mass
    ------------   -----------------  -----------------  -----------------  -----------------
         CL          -1.671441655668    -0.195281603361    -0.070103379673    34.968852682000
         CL           1.004833344332    -1.349863603361    -0.070106379673    34.968852682000
         CL           0.666598344332     1.545139396639    -0.070110379673    34.968852682000
         C            0.000027344332     0.000011396639     0.465783620327    12.000000000000
         H            0.000020244332     0.000065896639     1.751544620327     1.007825032230

  Basis Set: AUG-CC-PVTZ
    Blend: AUG-CC-PVTZ
  Basis Set: (AUG-CC-PVTZ AUX)
    Blend: AUG-CC-PVTZ-JKFIT
	 Reference Energy          =   -1416.9799034756135825 [Eh]
	 Singles Energy            =      -0.0000000000000000 [Eh]
	 Same-Spin Energy          =      -0.2283077785857094 [Eh]
	 Opposite-Spin Energy      =      -0.6579393219205786 [Eh]
	 Correlation Energy        =      -0.8862471005062880 [Eh]
	 Total Energy              =   -1417.8661505761199351 [Eh]

	 ================> DF-SCS-MP2 Energies <==================
	-----------------------------------------------------------
	 SCS Same-Spin Scale       =       0.3333333333333333 [-]
	 SCS Opposite-Spin Scale   =       1.2000000000000000 [-]
	 SCS Same-Spin Energy      =      -0.0761025928619031 [Eh]
	 SCS Opposite-Spin Energy  =      -0.7895271863046943 [Eh]
	 SCS Correlation Energy    =      -0.8656297791665974 [Eh]
	 SCS Total Energy          =   -1417.8455332547800936 [Eh]
	-----------------------------------------------------------

  Dipole Moment: [D]
     X:     0.0002      Y:     0.0001      Z:     1.0652     Total:     1.0652

*** Psi4 exiting successfully. Buy a developer a beer!
