                               Psi4 1.4a3.dev225

  ==> Input File <==

--------------------------------------------------------------------------
#psi4
#
memory 32 gb

molecule  {
0 1
 Cl       -1.6313870    -0.4143060    -0.0833670
 Cl        1.1744920    -1.2056670    -0.0833670
 Cl        0.4568920     1.6199720    -0.0833670
  C        0.0000060     0.0000020     0.4522250
  H       -0.0000013     0.0000010     1.5883770
units angstrom
no_reorient  #important for SAPT in psi4, default
symmetry c1  #important for SAPT in psi4, default
}

set PROPERTIES_ORIGIN ["COM"]
properties('MP2/aug-cc-pvtz', properties = ['dipole'])
--------------------------------------------------------------------------

    Molecular point group: c1
  Charge       = 0
  Multiplicity = 1
  Basis Set: AUG-CC-PVTZ
    Blend: AUG-CC-PVTZ
  Basis Set: (AUG-CC-PVTZ AUX)
    Blend: AUG-CC-PVTZ-JKFIT

    Orbital Energies [Eh]
    ---------------------

    Doubly Occupied:

       1A   -104.867498     2A   -104.867498     3A   -104.867496
       4A    -11.439882     5A    -10.591879     6A    -10.591878
       7A    -10.591865     8A     -8.058684     9A     -8.058683
      10A     -8.058681    11A     -8.056549    12A     -8.056549
      13A     -8.056547    14A     -8.056503    15A     -8.056502
      16A     -8.056500    17A     -1.241529    18A     -1.115668
      19A     -1.115666    20A     -0.865116    21A     -0.675596
      22A     -0.626907    23A     -0.626906    24A     -0.504553
      25A     -0.504553    26A     -0.469225    27A     -0.469224
      28A     -0.461726    29A     -0.452022

  @DF-RHF Final Energy: -1416.99972069467162

   => Energetics <=

    Nuclear Repulsion Energy =            263.2192073132424639
    One-Electron Energy =               -2481.5140847631819270
    Two-Electron Energy =                 801.2951567552680672
    Total Energy =                      -1416.9997206946713959
  Basis Set: (AUG-CC-PVTZ AUX)
    Blend: AUG-CC-PVTZ-RI
    Molecular point group: c1

    Geometry (in Angstrom), charge = 0, multiplicity = 1:

       Center              X                  Y                   Z               Mass
    ------------   -----------------  -----------------  -----------------  -----------------
         CL          -1.631386709817    -0.414305915523    -0.068795080285    34.968852682000
         CL           1.174492290183    -1.205666915523    -0.068795080285    34.968852682000
         CL           0.456892290183     1.619972084477    -0.068795080285    34.968852682000
         C            0.000006290183     0.000002084477     0.466796919715    12.000000000000
         H           -0.000001009817     0.000001084477     1.602948919715     1.007825032230

  Basis Set: AUG-CC-PVTZ
    Blend: AUG-CC-PVTZ
  Basis Set: (AUG-CC-PVTZ AUX)
    Blend: AUG-CC-PVTZ-JKFIT
	 Reference Energy          =   -1416.9997206946716233 [Eh]
	 Singles Energy            =      -0.0000000000000000 [Eh]
	 Same-Spin Energy          =      -0.2276598819219603 [Eh]
	 Opposite-Spin Energy      =      -0.6564063438465936 [Eh]
	 Correlation Energy        =      -0.8840662257685539 [Eh]
	 Total Energy              =   -1417.8837869204401159 [Eh]

	 ================> DF-SCS-MP2 Energies <==================
	-----------------------------------------------------------
	 SCS Same-Spin Scale       =       0.3333333333333333 [-]
	 SCS Opposite-Spin Scale   =       1.2000000000000000 [-]
	 SCS Same-Spin Energy      =      -0.0758866273073201 [Eh]
	 SCS Opposite-Spin Energy  =      -0.7876876126159122 [Eh]
	 SCS Correlation Energy    =      -0.8635742399232323 [Eh]
	 SCS Total Energy          =   -1417.8632949345949328 [Eh]
	-----------------------------------------------------------

  Dipole Moment: [D]
     X:     0.0000      Y:     0.0000      Z:     1.0665     Total:     1.0665

*** Psi4 exiting successfully. Buy a developer a beer!
