                               Psi4 1.3.2 release

  ==> Input File <==

--------------------------------------------------------------------------
#psi4
#
memory 32 gb

molecule  {
0 1
 Cl       -1.7045000    -0.1991389     0.0353013
 Cl        1.0048330    -1.3498640    -0.0833960
 Cl        0.6665980     1.5451390    -0.0834000
  C        0.0000270     0.0000110     0.4524940
  H        0.0000210     0.0000570     1.5382550
units angstrom
no_reorient  #important for SAPT in psi4, default
symmetry c1  #important for SAPT in psi4, default
}

set PROPERTIES_ORIGIN ["COM"]
properties('MP2/aug-cc-pvtz', properties = ['dipole'])
--------------------------------------------------------------------------

    Molecular point group: c1
  Charge       = 0
  Multiplicity = 1
  Basis Set: AUG-CC-PVTZ
    Blend: AUG-CC-PVTZ
  Basis Set: (AUG-CC-PVTZ AUX)
    Blend: AUG-CC-PVTZ-JKFIT

    Orbital Energies [Eh]
    ---------------------

    Doubly Occupied:

       1A   -104.868556     2A   -104.868555     3A   -104.867689
       4A    -11.434515     5A    -10.592848     6A    -10.592839
       7A    -10.592066     8A     -8.059661     9A     -8.059660
      10A     -8.058880    11A     -8.057524    12A     -8.057523
      13A     -8.057476    14A     -8.057475    15A     -8.056752
      16A     -8.056694    17A     -1.242367    18A     -1.117755
      19A     -1.116095    20A     -0.873801    21A     -0.680130
      22A     -0.628466    23A     -0.626940    24A     -0.505690
      25A     -0.503147    26A     -0.472466    27A     -0.470952
      28A     -0.461015    29A     -0.453720

  @DF-RHF Final Energy: -1417.00139906936124

   => Energetics <=

    Nuclear Repulsion Energy =            262.5491762390541339
    One-Electron Energy =               -2480.1186359741350316
    Two-Electron Energy =                 800.5680606657194858
    Total Energy =                      -1417.0013990693612413
  Basis Set: (AUG-CC-PVTZ AUX)
    Blend: AUG-CC-PVTZ-RI
    Molecular point group: c1

    Geometry (in Angstrom), charge = 0, multiplicity = 1:

       Center              X                  Y                   Z               Mass
    ------------   -----------------  -----------------  -----------------  -----------------
         CL          -1.694695938826    -0.197994623107     0.015100192722    34.968852682000
         CL           1.014637061174    -1.348719723107    -0.103597107278    34.968852682000
         CL           0.676402061174     1.546283276893    -0.103601107278    34.968852682000
         C            0.009831061174     0.001155276893     0.432292892722    12.000000000000
         H            0.009825061174     0.001201276893     1.518053892722     1.007825032230

  Basis Set: AUG-CC-PVTZ
    Blend: AUG-CC-PVTZ
  Basis Set: (AUG-CC-PVTZ AUX)
    Blend: AUG-CC-PVTZ-JKFIT
	 Reference Energy          =   -1417.0013990693612413 [Eh]
	 Singles Energy            =      -0.0000000000000000 [Eh]
	 Same-Spin Energy          =      -0.2274217266545653 [Eh]
	 Opposite-Spin Energy      =      -0.6560954549299459 [Eh]
	 Correlation Energy        =      -0.8835171815845112 [Eh]
	 Total Energy              =   -1417.8849162509457074 [Eh]

	 ================> DF-SCS-MP2 Energies <==================
	-----------------------------------------------------------
	 SCS Same-Spin Scale       =       0.3333333333333333 [-]
	 SCS Opposite-Spin Scale   =       1.2000000000000000 [-]
	 SCS Same-Spin Energy      =      -0.0758072422181884 [Eh]
	 SCS Opposite-Spin Energy  =      -0.7873145459159351 [Eh]
	 SCS Correlation Energy    =      -0.8631217881341235 [Eh]
	 SCS Total Energy          =   -1417.8645208574953358 [Eh]
	-----------------------------------------------------------

  Dipole Moment: [D]
     X:     0.0404      Y:     0.0048      Z:     1.0239     Total:     1.0247

*** Psi4 exiting successfully. Buy a developer a beer!
