                               Psi4 1.4a3.dev225

  ==> Input File <==

--------------------------------------------------------------------------
#psi4
#
memory 32 gb

molecule  {
0 1
 Cl       -1.6313870    -0.4143060    -0.0833670
 Cl        1.1744920    -1.2056670    -0.0833670
 Cl        0.4568920     1.6199720    -0.0833670
  C        0.0184780     0.0046931     0.4582894
  H       -0.0000010     0.0000010     1.5383770
units angstrom
no_reorient  #important for SAPT in psi4, default
symmetry c1  #important for SAPT in psi4, default
}

set PROPERTIES_ORIGIN ["COM"]
properties('MP2/aug-cc-pvtz', properties = ['dipole'])
--------------------------------------------------------------------------

    Molecular point group: c1
  Charge       = 0
  Multiplicity = 1
  Basis Set: AUG-CC-PVTZ
    Blend: AUG-CC-PVTZ
  Basis Set: (AUG-CC-PVTZ AUX)
    Blend: AUG-CC-PVTZ-JKFIT

    Orbital Energies [Eh]
    ---------------------

    Doubly Occupied:

       1A   -104.868636     2A   -104.868636     3A   -104.864878
       4A    -11.435448     5A    -10.593120     6A    -10.593111
       7A    -10.589040     8A     -8.059941     9A     -8.059940
      10A     -8.057790    11A     -8.057789    12A     -8.057743
      13A     -8.057742    14A     -8.055807    15A     -8.053726
      16A     -8.053683    17A     -1.242874    18A     -1.118178
      19A     -1.112401    20A     -0.876171    21A     -0.682582
      22A     -0.628093    23A     -0.625060    24A     -0.505688
      25A     -0.503699    26A     -0.470307    27A     -0.467451
      28A     -0.465916    29A     -0.451847

  @DF-RHF Final Energy: -1417.00220926937504

   => Energetics <=

    Nuclear Repulsion Energy =            263.4400153732584045
    One-Electron Energy =               -2481.9298538196185291
    Two-Electron Energy =                 801.4876291769847967
    Total Energy =                      -1417.0022092693752711
  Basis Set: (AUG-CC-PVTZ AUX)
    Blend: AUG-CC-PVTZ-RI
    Molecular point group: c1

    Geometry (in Angstrom), charge = 0, multiplicity = 1:

       Center              X                  Y                   Z               Mass
    ------------   -----------------  -----------------  -----------------  -----------------
         CL          -1.633266584830    -0.414783322931    -0.068984892146    34.968852682000
         CL           1.172612415170    -1.206144322931    -0.068984892146    34.968852682000
         CL           0.455012415170     1.619494677069    -0.068984892146    34.968852682000
         C            0.016598415170     0.004215777069     0.472671507854    12.000000000000
         H           -0.001880584830    -0.000476322931     1.552759107854     1.007825032230

  Basis Set: AUG-CC-PVTZ
    Blend: AUG-CC-PVTZ
  Basis Set: (AUG-CC-PVTZ AUX)
    Blend: AUG-CC-PVTZ-JKFIT
	 Reference Energy          =   -1417.0022092693750437 [Eh]
	 Singles Energy            =      -0.0000000000000000 [Eh]
	 Same-Spin Energy          =      -0.2274313805721854 [Eh]
	 Opposite-Spin Energy      =      -0.6560680375345675 [Eh]
	 Correlation Energy        =      -0.8834994181067529 [Eh]
	 Total Energy              =   -1417.8857086874818378 [Eh]

	 ================> DF-SCS-MP2 Energies <==================
	-----------------------------------------------------------
	 SCS Same-Spin Scale       =       0.3333333333333333 [-]
	 SCS Opposite-Spin Scale   =       1.2000000000000000 [-]
	 SCS Same-Spin Energy      =      -0.0758104601907285 [Eh]
	 SCS Opposite-Spin Energy  =      -0.7872816450414810 [Eh]
	 SCS Correlation Energy    =      -0.8630921052322095 [Eh]
	 SCS Total Energy          =   -1417.8653013746072702 [Eh]
	-----------------------------------------------------------

  Dipole Moment: [D]
     X:     0.1125      Y:     0.0286      Z:     1.0598     Total:     1.0662

*** Psi4 exiting successfully. Buy a developer a beer!
