                               Psi4 1.3.2 release

  ==> Input File <==

--------------------------------------------------------------------------
#psi4
#
memory 32 gb

molecule  {
0 1
 Cl       -1.6518476    -0.1929954    -0.1417968
 Cl        1.0048330    -1.3498640    -0.0833960
 Cl        0.6665980     1.5451390    -0.0834000
  C        0.0000270     0.0000110     0.4524940
  H        0.0000210     0.0000570     1.5382550
units angstrom
no_reorient  #important for SAPT in psi4, default
symmetry c1  #important for SAPT in psi4, default
}

set PROPERTIES_ORIGIN ["COM"]
properties('MP2/aug-cc-pvtz', properties = ['dipole'])
--------------------------------------------------------------------------

    Molecular point group: c1
  Charge       = 0
  Multiplicity = 1
  Basis Set: AUG-CC-PVTZ
    Blend: AUG-CC-PVTZ
  Basis Set: (AUG-CC-PVTZ AUX)
    Blend: AUG-CC-PVTZ-JKFIT

    Orbital Energies [Eh]
    ---------------------

    Doubly Occupied:

       1A   -104.867201     2A   -104.866761     3A   -104.866761
       4A    -11.435621     5A    -10.591634     6A    -10.591238
       7A    -10.591230     8A     -8.058441     9A     -8.058041
      10A     -8.058040    11A     -8.056304    12A     -8.056263
      13A     -8.055910    14A     -8.055910    15A     -8.055865
      16A     -8.055864    17A     -1.243816    18A     -1.115604
      19A     -1.114728    20A     -0.875155    21A     -0.682984
      22A     -0.627248    23A     -0.626305    24A     -0.505622
      25A     -0.504278    26A     -0.468309    27A     -0.467480
      28A     -0.466863    29A     -0.451050

  @DF-RHF Final Energy: -1417.00217687873419

   => Energetics <=

    Nuclear Repulsion Energy =            264.1213551026032178
    One-Electron Energy =               -2483.3060123023624328
    Two-Electron Energy =                 802.1824803210251957
    Total Energy =                      -1417.0021768787341898
  Basis Set: (AUG-CC-PVTZ AUX)
    Blend: AUG-CC-PVTZ-RI
    Molecular point group: c1

    Geometry (in Angstrom), charge = 0, multiplicity = 1:

       Center              X                  Y                   Z               Mass
    ------------   -----------------  -----------------  -----------------  -----------------
         CL          -1.657658207460    -0.193673047972    -0.109477449574    34.968852682000
         CL           0.999022392540    -1.350541647972    -0.051076649574    34.968852682000
         CL           0.660787392540     1.544461352028    -0.051080649574    34.968852682000
         C           -0.005783607460    -0.000666647972     0.484813350426    12.000000000000
         H           -0.005789607460    -0.000620647972     1.570574350426     1.007825032230

  Basis Set: AUG-CC-PVTZ
    Blend: AUG-CC-PVTZ
  Basis Set: (AUG-CC-PVTZ AUX)
    Blend: AUG-CC-PVTZ-JKFIT
	 Reference Energy          =   -1417.0021768787341898 [Eh]
	 Singles Energy            =      -0.0000000000000000 [Eh]
	 Same-Spin Energy          =      -0.2275354460035513 [Eh]
	 Opposite-Spin Energy      =      -0.6560908213477790 [Eh]
	 Correlation Energy        =      -0.8836262673513302 [Eh]
	 Total Energy              =   -1417.8858031460854363 [Eh]

	 ================> DF-SCS-MP2 Energies <==================
	-----------------------------------------------------------
	 SCS Same-Spin Scale       =       0.3333333333333333 [-]
	 SCS Opposite-Spin Scale   =       1.2000000000000000 [-]
	 SCS Same-Spin Energy      =      -0.0758451486678504 [Eh]
	 SCS Opposite-Spin Energy  =      -0.7873089856173348 [Eh]
	 SCS Correlation Energy    =      -0.8631541342851852 [Eh]
	 SCS Total Energy          =   -1417.8653310130193859 [Eh]
	-----------------------------------------------------------

  Dipole Moment: [D]
     X:    -0.0205      Y:    -0.0023      Z:     1.0706     Total:     1.0708

*** Psi4 exiting successfully. Buy a developer a beer!
