                               Psi4 1.3.2 release

  ==> Input File <==

--------------------------------------------------------------------------
#psi4
#
memory 32 gb

molecule  {
0 1
  I        2.3447600     0.0000010    -0.2524410
  C       -0.5542210    -0.0000040     0.7369510
  C       -2.5036070    -1.2253050    -0.0650320
  C       -2.5036000     1.2253100    -0.0650260
  C       -1.2095060     1.2097510     0.4687330
  C       -1.2095100    -1.2097530     0.4687280
  C       -3.1346270     0.0000030    -0.3245500
  C        0.7453126    -0.0000073     1.4939918
  C       -3.2172620    -2.5291670    -0.3215690
  C       -3.2172620     2.5291680    -0.3215670
  H       -0.6945570     2.1508370     0.6613300
  H       -0.6945650    -2.1508430     0.6613200
  H       -4.1398900     0.0000070    -0.7462250
  H        1.0275050    -0.8925940     1.8992530
  H        1.0275050     0.8925750     1.8992610
  H       -3.9060370    -2.4424280    -1.1656010
  H       -3.8011950    -2.8333800     0.5532780
  H       -2.5084500    -3.3308180    -0.5430300
  H       -3.8015320     2.8331670     0.5531290
  H       -2.5084330     3.3309140    -0.5426230
  H       -3.9057300     2.4425370    -1.1658600
units angstrom
no_reorient  #important for SAPT in psi4, default
symmetry c1  #important for SAPT in psi4, default
}

set PROPERTIES_ORIGIN ["COM"]
properties('MP2/aug-cc-pvtz', properties = ['dipole'])
--------------------------------------------------------------------------

    Molecular point group: c1
  Charge       = 0
  Multiplicity = 1
  Basis Set: AUG-CC-PVTZ
    Blend: AUG-CC-PVTZ
  Basis Set: (AUG-CC-PVTZ AUX)
    Blend: AUG-CC-PVTZ-JKFIT + DEF2-QZVPP-JKFIT

    Orbital Energies [Eh]
    ---------------------

    Doubly Occupied:

       1A    -11.301896     2A    -11.262324     3A    -11.253082
       4A    -11.253053     5A    -11.238778     6A    -11.238738
       7A    -11.235883     8A    -11.230940     9A    -11.230940
      10A     -7.691686    11A     -5.522449    12A     -5.514126
      13A     -5.514033    14A     -2.250960    15A     -2.247487
      16A     -2.247385    17A     -2.238195    18A     -2.238193
      19A     -1.169904    20A     -1.077978    21A     -1.064864
      22A     -0.973782    23A     -0.941656    24A     -0.937081
      25A     -0.838987    26A     -0.796780    27A     -0.796189
      28A     -0.687672    29A     -0.686975    30A     -0.625403
      31A     -0.625292    32A     -0.588496    33A     -0.577355
      34A     -0.576246    35A     -0.568782    36A     -0.558715
      37A     -0.531757    38A     -0.503814    39A     -0.497948
      40A     -0.489980    41A     -0.419376    42A     -0.351643
      43A     -0.349870    44A     -0.328285    45A     -0.311662

  @DF-RHF Final Energy:  -641.99135456313502

   => Energetics <=

    Nuclear Repulsion Energy =            611.9657237103290299
    One-Electron Energy =               -2198.7408735100766535
    Two-Electron Energy =                 944.7837952366126046
    Total Energy =                       -641.9913545631350189
  Basis Set: (AUG-CC-PVTZ AUX)
    Blend: AUG-CC-PVTZ-RI + DEF2-QZVPP-RI
    Molecular point group: c1

    Geometry (in Angstrom), charge = 0, multiplicity = 1:

       Center              X                  Y                   Z               Mass
    ------------   -----------------  -----------------  -----------------  -----------------
         I            2.052810971175     0.000000800395    -0.231677643172   126.904471900000
         C           -0.846170028825    -0.000004199605     0.757714356828    12.000000000000
         C           -2.795556028825    -1.225305199605    -0.044268643172    12.000000000000
         C           -2.795549028825     1.225309800395    -0.044262643172    12.000000000000
         C           -1.501455028825     1.209750800395     0.489496356828    12.000000000000
         C           -1.501459028825    -1.209753199605     0.489491356828    12.000000000000
         C           -3.426576028825     0.000002800395    -0.303786643172    12.000000000000
         C            0.453363571175    -0.000007499605     1.514755156828    12.000000000000
         C           -3.509211028825    -2.529167199605    -0.300805643172    12.000000000000
         C           -3.509211028825     2.529167800395    -0.300803643172    12.000000000000
         H           -0.986506028825     2.150836800395     0.682093356828     1.007825032230
         H           -0.986514028825    -2.150843199605     0.682083356828     1.007825032230
         H           -4.431839028825     0.000006800395    -0.725461643172     1.007825032230
         H            0.735555971175    -0.892594199605     1.920016356828     1.007825032230
         H            0.735555971175     0.892574800395     1.920024356828     1.007825032230
         H           -4.197986028825    -2.442428199605    -1.144837643172     1.007825032230
         H           -4.093144028825    -2.833380199605     0.574041356828     1.007825032230
         H           -2.800399028825    -3.330818199605    -0.522266643172     1.007825032230
         H           -4.093481028825     2.833166800395     0.573892356828     1.007825032230
         H           -2.800382028825     3.330913800395    -0.521859643172     1.007825032230
         H           -4.197679028825     2.442536800395    -1.145096643172     1.007825032230

  Basis Set: AUG-CC-PVTZ
    Blend: AUG-CC-PVTZ
  Basis Set: (AUG-CC-PVTZ AUX)
    Blend: AUG-CC-PVTZ-JKFIT + DEF2-QZVPP-JKFIT
	 Reference Energy          =    -641.9913545631350189 [Eh]
	 Singles Energy            =      -0.0000000000000000 [Eh]
	 Same-Spin Energy          =      -0.4666503108472331 [Eh]
	 Opposite-Spin Energy      =      -1.4510402853475091 [Eh]
	 Correlation Energy        =      -1.9176905961947421 [Eh]
	 Total Energy              =    -643.9090451593297075 [Eh]

	 ================> DF-SCS-MP2 Energies <==================
	-----------------------------------------------------------
	 SCS Same-Spin Scale       =       0.3333333333333333 [-]
	 SCS Opposite-Spin Scale   =       1.2000000000000000 [-]
	 SCS Same-Spin Energy      =      -0.1555501036157444 [Eh]
	 SCS Opposite-Spin Energy  =      -1.7412483424170109 [Eh]
	 SCS Correlation Energy    =      -1.8967984460327552 [Eh]
	 SCS Total Energy          =    -643.8881530091678087 [Eh]
	-----------------------------------------------------------

  Dipole Moment: [D]
     X:    -2.6542      Y:    -0.0000      Z:     1.1497     Total:     2.8925

*** Psi4 exiting successfully. Buy a developer a beer!
