                               Psi4 1.3.2 release

  ==> Input File <==

--------------------------------------------------------------------------
#psi4
#
memory 32 gb

molecule  {
0 1
  I        2.3447600     0.0000010    -0.2524410
  C       -0.5542210    -0.0000040     0.7369510
  C       -2.5036070    -1.2253050    -0.0650320
  C       -2.5036000     1.2253100    -0.0650260
  C       -1.2095060     1.2097510     0.4687330
  C       -1.2095100    -1.2097530     0.4687280
  C       -3.1346270     0.0000030    -0.3245500
  C        0.7644287    -0.0000072     1.4477904
  C       -3.2172620    -2.5291670    -0.3215690
  C       -3.2172620     2.5291680    -0.3215670
  H       -0.6945570     2.1508370     0.6613300
  H       -0.6945650    -2.1508430     0.6613200
  H       -4.1398900     0.0000070    -0.7462250
  H        1.0275050    -0.8925940     1.8992530
  H        1.0275050     0.8925750     1.8992610
  H       -3.9060370    -2.4424280    -1.1656010
  H       -3.8011950    -2.8333800     0.5532780
  H       -2.5084500    -3.3308180    -0.5430300
  H       -3.8015320     2.8331670     0.5531290
  H       -2.5084330     3.3309140    -0.5426230
  H       -3.9057300     2.4425370    -1.1658600
units angstrom
no_reorient  #important for SAPT in psi4, default
symmetry c1  #important for SAPT in psi4, default
}

set PROPERTIES_ORIGIN ["COM"]
properties('MP2/aug-cc-pvtz', properties = ['dipole'])
--------------------------------------------------------------------------

    Molecular point group: c1
  Charge       = 0
  Multiplicity = 1
  Basis Set: AUG-CC-PVTZ
    Blend: AUG-CC-PVTZ
  Basis Set: (AUG-CC-PVTZ AUX)
    Blend: AUG-CC-PVTZ-JKFIT + DEF2-QZVPP-JKFIT

    Orbital Energies [Eh]
    ---------------------

    Doubly Occupied:

       1A    -11.297940     2A    -11.259847     3A    -11.252025
       4A    -11.251997     5A    -11.237262     6A    -11.237222
       7A    -11.234577     8A    -11.230210     9A    -11.230209
      10A     -7.695515    11A     -5.526448    12A     -5.517877
      13A     -5.517804    14A     -2.255093    15A     -2.251419
      16A     -2.251337    17A     -2.241864    18A     -2.241862
      19A     -1.168661    20A     -1.076736    21A     -1.063841
      22A     -0.972195    23A     -0.940607    24A     -0.935972
      25A     -0.841898    26A     -0.794758    27A     -0.793730
      28A     -0.686289    29A     -0.680735    30A     -0.624007
      31A     -0.617638    32A     -0.587779    33A     -0.576339
      34A     -0.575479    35A     -0.567604    36A     -0.557888
      37A     -0.530452    38A     -0.504842    39A     -0.496087
      40A     -0.488787    41A     -0.425270    42A     -0.354014
      43A     -0.352060    44A     -0.327418    45A     -0.313783

  @DF-RHF Final Energy:  -641.99865946310649

   => Energetics <=

    Nuclear Repulsion Energy =            612.6429158175018301
    One-Electron Energy =               -2200.1123966337936508
    Two-Electron Energy =                 945.4708213531852152
    Total Energy =                       -641.9986594631064918
  Basis Set: (AUG-CC-PVTZ AUX)
    Blend: AUG-CC-PVTZ-RI + DEF2-QZVPP-RI
    Molecular point group: c1

    Geometry (in Angstrom), charge = 0, multiplicity = 1:

       Center              X                  Y                   Z               Mass
    ------------   -----------------  -----------------  -----------------  -----------------
         I            2.051878442659     0.000000795516    -0.229423829738   126.904471900000
         C           -0.847102557341    -0.000004204484     0.759968170262    12.000000000000
         C           -2.796488557341    -1.225305204484    -0.042014829738    12.000000000000
         C           -2.796481557341     1.225309795516    -0.042008829738    12.000000000000
         C           -1.502387557341     1.209750795516     0.491750170262    12.000000000000
         C           -1.502391557341    -1.209753204484     0.491745170262    12.000000000000
         C           -3.427508557341     0.000002795516    -0.301532829738    12.000000000000
         C            0.471547142659    -0.000007404484     1.470807570262    12.000000000000
         C           -3.510143557341    -2.529167204484    -0.298551829738    12.000000000000
         C           -3.510143557341     2.529167795516    -0.298549829738    12.000000000000
         H           -0.987438557341     2.150836795516     0.684347170262     1.007825032230
         H           -0.987446557341    -2.150843204484     0.684337170262     1.007825032230
         H           -4.432771557341     0.000006795516    -0.723207829738     1.007825032230
         H            0.734623442659    -0.892594204484     1.922270170262     1.007825032230
         H            0.734623442659     0.892574795516     1.922278170262     1.007825032230
         H           -4.198918557341    -2.442428204484    -1.142583829738     1.007825032230
         H           -4.094076557341    -2.833380204484     0.576295170262     1.007825032230
         H           -2.801331557341    -3.330818204484    -0.520012829738     1.007825032230
         H           -4.094413557341     2.833166795516     0.576146170262     1.007825032230
         H           -2.801314557341     3.330913795516    -0.519605829738     1.007825032230
         H           -4.198611557341     2.442536795516    -1.142842829738     1.007825032230

  Basis Set: AUG-CC-PVTZ
    Blend: AUG-CC-PVTZ
  Basis Set: (AUG-CC-PVTZ AUX)
    Blend: AUG-CC-PVTZ-JKFIT + DEF2-QZVPP-JKFIT
	 Reference Energy          =    -641.9986594631064918 [Eh]
	 Singles Energy            =      -0.0000000000000000 [Eh]
	 Same-Spin Energy          =      -0.4668013748526542 [Eh]
	 Opposite-Spin Energy      =      -1.4512451864588507 [Eh]
	 Correlation Energy        =      -1.9180465613115047 [Eh]
	 Total Energy              =    -643.9167060244179766 [Eh]

	 ================> DF-SCS-MP2 Energies <==================
	-----------------------------------------------------------
	 SCS Same-Spin Scale       =       0.3333333333333333 [-]
	 SCS Opposite-Spin Scale   =       1.2000000000000000 [-]
	 SCS Same-Spin Energy      =      -0.1556004582842180 [Eh]
	 SCS Opposite-Spin Energy  =      -1.7414942237506208 [Eh]
	 SCS Correlation Energy    =      -1.8970946820348389 [Eh]
	 SCS Total Energy          =    -643.8957541451413817 [Eh]
	-----------------------------------------------------------

  Dipole Moment: [D]
     X:    -2.5197      Y:    -0.0000      Z:     1.0903     Total:     2.7455

*** Psi4 exiting successfully. Buy a developer a beer!
