                               Psi4 1.3.2 release

  ==> Input File <==

--------------------------------------------------------------------------
#psi4
#
memory 32 gb

molecule  {
0 1
  I        2.3447600     0.0000010    -0.2524410
  C       -0.5542210    -0.0000040     0.7369510
  C       -2.5036070    -1.2253050    -0.0650320
  C       -2.5036000     1.2253100    -0.0650260
  C       -1.2095060     1.2097510     0.4687330
  C       -1.2095100    -1.2097530     0.4687280
  C       -3.1346270     0.0000030    -0.3245500
  C        0.8217770    -0.0000070     1.3091860
  C       -3.2172620    -2.5291670    -0.3215690
  C       -3.2172620     2.5291680    -0.3215670
  H       -0.6945570     2.1508370     0.6613300
  H       -0.6945650    -2.1508430     0.6613200
  H       -4.1398900     0.0000070    -0.7462250
  H        1.0275050    -0.8925940     1.8992530
  H        1.0275050     0.8925750     1.8992610
  H       -3.9060370    -2.4424280    -1.1656010
  H       -3.8011950    -2.8333800     0.5532780
  H       -2.5084500    -3.3308180    -0.5430300
  H       -3.8015320     2.8331670     0.5531290
  H       -2.5084330     3.3309140    -0.5426230
  H       -3.9057300     2.4425370    -1.1658600
units angstrom
no_reorient  #important for SAPT in psi4, default
symmetry c1  #important for SAPT in psi4, default
}

set PROPERTIES_ORIGIN ["COM"]
properties('MP2/aug-cc-pvtz', properties = ['dipole'])
--------------------------------------------------------------------------

    Molecular point group: c1
  Charge       = 0
  Multiplicity = 1
  Basis Set: AUG-CC-PVTZ
    Blend: AUG-CC-PVTZ
  Basis Set: (AUG-CC-PVTZ AUX)
    Blend: AUG-CC-PVTZ-JKFIT + DEF2-QZVPP-JKFIT

    Orbital Energies [Eh]
    ---------------------

    Doubly Occupied:

       1A    -11.290354     2A    -11.254132     3A    -11.249261
       4A    -11.249235     5A    -11.233260     6A    -11.233217
       7A    -11.231262     8A    -11.228302     9A    -11.228302
      10A     -7.706190    11A     -5.537636    12A     -5.528356
      13A     -5.528346    14A     -2.266849    15A     -2.262435
      16A     -2.262411    17A     -2.252152    18A     -2.252152
      19A     -1.165251    20A     -1.073130    21A     -1.061168
      22A     -0.970008    23A     -0.938598    24A     -0.933013
      25A     -0.849139    26A     -0.790980    27A     -0.783101
      28A     -0.682312    29A     -0.667046    30A     -0.617719
      31A     -0.588742    32A     -0.585979    33A     -0.573495
      34A     -0.573078    35A     -0.564200    36A     -0.555713
      37A     -0.525949    38A     -0.511387    39A     -0.489244
      40A     -0.485453    41A     -0.444589    42A     -0.359444
      43A     -0.357209    44A     -0.324906    45A     -0.318940

  @DF-RHF Final Energy:  -642.00792296748875

   => Energetics <=

    Nuclear Repulsion Energy =            614.6357844423105234
    One-Electron Energy =               -2204.1201229200469243
    Two-Electron Energy =                 947.4764155102476479
    Total Energy =                       -642.0079229674887529
  Basis Set: (AUG-CC-PVTZ AUX)
    Blend: AUG-CC-PVTZ-RI + DEF2-QZVPP-RI
    Molecular point group: c1

    Geometry (in Angstrom), charge = 0, multiplicity = 1:

       Center              X                  Y                   Z               Mass
    ------------   -----------------  -----------------  -----------------  -----------------
         I            2.049080857111     0.000000785760    -0.222662379680   126.904471900000
         C           -0.849900142889    -0.000004214240     0.766729620320    12.000000000000
         C           -2.799286142889    -1.225305214240    -0.035253379680    12.000000000000
         C           -2.799279142889     1.225309785760    -0.035247379680    12.000000000000
         C           -1.505185142889     1.209750785760     0.498511620320    12.000000000000
         C           -1.505189142889    -1.209753214240     0.498506620320    12.000000000000
         C           -3.430306142889     0.000002785760    -0.294771379680    12.000000000000
         C            0.526097857111    -0.000007214240     1.338964620320    12.000000000000
         C           -3.512941142889    -2.529167214240    -0.291790379680    12.000000000000
         C           -3.512941142889     2.529167785760    -0.291788379680    12.000000000000
         H           -0.990236142889     2.150836785760     0.691108620320     1.007825032230
         H           -0.990244142889    -2.150843214240     0.691098620320     1.007825032230
         H           -4.435569142889     0.000006785760    -0.716446379680     1.007825032230
         H            0.731825857111    -0.892594214240     1.929031620320     1.007825032230
         H            0.731825857111     0.892574785760     1.929039620320     1.007825032230
         H           -4.201716142889    -2.442428214240    -1.135822379680     1.007825032230
         H           -4.096874142889    -2.833380214240     0.583056620320     1.007825032230
         H           -2.804129142889    -3.330818214240    -0.513251379680     1.007825032230
         H           -4.097211142889     2.833166785760     0.582907620320     1.007825032230
         H           -2.804112142889     3.330913785760    -0.512844379680     1.007825032230
         H           -4.201409142889     2.442536785760    -1.136081379680     1.007825032230

  Basis Set: AUG-CC-PVTZ
    Blend: AUG-CC-PVTZ
  Basis Set: (AUG-CC-PVTZ AUX)
    Blend: AUG-CC-PVTZ-JKFIT + DEF2-QZVPP-JKFIT
	 Reference Energy          =    -642.0079229674887529 [Eh]
	 Singles Energy            =      -0.0000000000000000 [Eh]
	 Same-Spin Energy          =      -0.4675654511541221 [Eh]
	 Opposite-Spin Energy      =      -1.4525635189141566 [Eh]
	 Correlation Energy        =      -1.9201289700682787 [Eh]
	 Total Energy              =    -643.9280519375570293 [Eh]

	 ================> DF-SCS-MP2 Energies <==================
	-----------------------------------------------------------
	 SCS Same-Spin Scale       =       0.3333333333333333 [-]
	 SCS Opposite-Spin Scale   =       1.2000000000000000 [-]
	 SCS Same-Spin Energy      =      -0.1558551503847073 [Eh]
	 SCS Opposite-Spin Energy  =      -1.7430762226969878 [Eh]
	 SCS Correlation Energy    =      -1.8989313730816952 [Eh]
	 SCS Total Energy          =    -643.9068543405704759 [Eh]
	-----------------------------------------------------------

  Dipole Moment: [D]
     X:    -2.0998      Y:    -0.0000      Z:     0.8855     Total:     2.2789

*** Psi4 exiting successfully. Buy a developer a beer!
