                               Psi4 1.3.2 release

  ==> Input File <==

--------------------------------------------------------------------------
#psi4
#
memory 32 gb

molecule  {
0 1
  I        2.3447600     0.0000010    -0.2524410
  C       -0.5542210    -0.0000040     0.7369510
  C       -2.5036070    -1.2253050    -0.0650320
  C       -2.5036000     1.2253100    -0.0650260
  C       -1.2095060     1.2097510     0.4687330
  C       -1.2095100    -1.2097530     0.4687280
  C       -3.1346270     0.0000030    -0.3245500
  C        0.7835448    -0.0000071     1.4015889
  C       -3.2172620    -2.5291670    -0.3215690
  C       -3.2172620     2.5291680    -0.3215670
  H       -0.6945570     2.1508370     0.6613300
  H       -0.6945650    -2.1508430     0.6613200
  H       -4.1398900     0.0000070    -0.7462250
  H        1.0275050    -0.8925940     1.8992530
  H        1.0275050     0.8925750     1.8992610
  H       -3.9060370    -2.4424280    -1.1656010
  H       -3.8011950    -2.8333800     0.5532780
  H       -2.5084500    -3.3308180    -0.5430300
  H       -3.8015320     2.8331670     0.5531290
  H       -2.5084330     3.3309140    -0.5426230
  H       -3.9057300     2.4425370    -1.1658600
units angstrom
no_reorient  #important for SAPT in psi4, default
symmetry c1  #important for SAPT in psi4, default
}

set PROPERTIES_ORIGIN ["COM"]
properties('MP2/aug-cc-pvtz', properties = ['dipole'])
--------------------------------------------------------------------------

    Molecular point group: c1
  Charge       = 0
  Multiplicity = 1
  Basis Set: AUG-CC-PVTZ
    Blend: AUG-CC-PVTZ
  Basis Set: (AUG-CC-PVTZ AUX)
    Blend: AUG-CC-PVTZ-JKFIT + DEF2-QZVPP-JKFIT

    Orbital Energies [Eh]
    ---------------------

    Doubly Occupied:

       1A    -11.294642     2A    -11.257620     3A    -11.251020
       4A    -11.250993     5A    -11.235814     6A    -11.235772
       7A    -11.233353     8A    -11.229515     9A    -11.229515
      10A     -7.699258    11A     -5.530362    12A     -5.521546
      13A     -5.521494    14A     -2.259166    15A     -2.255270
      16A     -2.255208    17A     -2.245459    18A     -2.245457
      19A     -1.167449    20A     -1.075475    21A     -1.062868
      22A     -0.970952    23A     -0.939707    24A     -0.934907
      25A     -0.844623    26A     -0.793392    27A     -0.790388
      28A     -0.684910    29A     -0.675286    30A     -0.622216
      31A     -0.608730    32A     -0.587109    33A     -0.575271
      34A     -0.574755    35A     -0.566449    36A     -0.557100
      37A     -0.529066    38A     -0.506524    39A     -0.493820
      40A     -0.487621    41A     -0.431588    42A     -0.356129
      43A     -0.354092    44A     -0.326537    45A     -0.315713

  @DF-RHF Final Energy:  -642.00407834369628

   => Energetics <=

    Nuclear Repulsion Energy =            613.3119052983079200
    One-Electron Energy =               -2201.4636868528623381
    Two-Electron Energy =                 946.1477032108581398
    Total Energy =                       -642.0040783436962784
  Basis Set: (AUG-CC-PVTZ AUX)
    Blend: AUG-CC-PVTZ-RI + DEF2-QZVPP-RI
    Molecular point group: c1

    Geometry (in Angstrom), charge = 0, multiplicity = 1:

       Center              X                  Y                   Z               Mass
    ------------   -----------------  -----------------  -----------------  -----------------
         I            2.050945914143     0.000000790638    -0.227170011426   126.904471900000
         C           -0.848035085857    -0.000004209362     0.762221988574    12.000000000000
         C           -2.797421085857    -1.225305209362    -0.039761011426    12.000000000000
         C           -2.797414085857     1.225309790638    -0.039755011426    12.000000000000
         C           -1.503320085857     1.209750790638     0.494003988574    12.000000000000
         C           -1.503324085857    -1.209753209362     0.493998988574    12.000000000000
         C           -3.428441085857     0.000002790638    -0.299279011426    12.000000000000
         C            0.489730714143    -0.000007309362     1.426859888574    12.000000000000
         C           -3.511076085857    -2.529167209362    -0.296298011426    12.000000000000
         C           -3.511076085857     2.529167790638    -0.296296011426    12.000000000000
         H           -0.988371085857     2.150836790638     0.686600988574     1.007825032230
         H           -0.988379085857    -2.150843209362     0.686590988574     1.007825032230
         H           -4.433704085857     0.000006790638    -0.720954011426     1.007825032230
         H            0.733690914143    -0.892594209362     1.924523988574     1.007825032230
         H            0.733690914143     0.892574790638     1.924531988574     1.007825032230
         H           -4.199851085857    -2.442428209362    -1.140330011426     1.007825032230
         H           -4.095009085857    -2.833380209362     0.578548988574     1.007825032230
         H           -2.802264085857    -3.330818209362    -0.517759011426     1.007825032230
         H           -4.095346085857     2.833166790638     0.578399988574     1.007825032230
         H           -2.802247085857     3.330913790638    -0.517352011426     1.007825032230
         H           -4.199544085857     2.442536790638    -1.140589011426     1.007825032230

  Basis Set: AUG-CC-PVTZ
    Blend: AUG-CC-PVTZ
  Basis Set: (AUG-CC-PVTZ AUX)
    Blend: AUG-CC-PVTZ-JKFIT + DEF2-QZVPP-JKFIT
	 Reference Energy          =    -642.0040783436962784 [Eh]
	 Singles Energy            =      -0.0000000000000000 [Eh]
	 Same-Spin Energy          =      -0.4669998210449934 [Eh]
	 Opposite-Spin Energy      =      -1.4515692931244235 [Eh]
	 Correlation Energy        =      -1.9185691141694168 [Eh]
	 Total Energy              =    -643.9226474578656507 [Eh]

	 ================> DF-SCS-MP2 Energies <==================
	-----------------------------------------------------------
	 SCS Same-Spin Scale       =       0.3333333333333333 [-]
	 SCS Opposite-Spin Scale   =       1.2000000000000000 [-]
	 SCS Same-Spin Energy      =      -0.1556666070149978 [Eh]
	 SCS Opposite-Spin Energy  =      -1.7418831517493081 [Eh]
	 SCS Correlation Energy    =      -1.8975497587643058 [Eh]
	 SCS Total Energy          =    -643.9016281024605632 [Eh]
	-----------------------------------------------------------

  Dipole Moment: [D]
     X:    -2.3790      Y:    -0.0000      Z:     1.0245     Total:     2.5902

*** Psi4 exiting successfully. Buy a developer a beer!
