                               Psi4 1.3.2 release

  ==> Input File <==

--------------------------------------------------------------------------
#psi4
#
memory 32 gb

molecule  {
0 1
  I        2.3447600     0.0000010    -0.2524410
  C       -0.5542210    -0.0000040     0.7369510
  C       -2.5036070    -1.2253050    -0.0650320
  C       -2.5036000     1.2253100    -0.0650260
  C       -1.2095060     1.2097510     0.4687330
  C       -1.2095100    -1.2097530     0.4687280
  C       -3.1346270     0.0000030    -0.3245500
  C        0.7261965    -0.0000073     1.5401933
  C       -3.2172620    -2.5291670    -0.3215690
  C       -3.2172620     2.5291680    -0.3215670
  H       -0.6945570     2.1508370     0.6613300
  H       -0.6945650    -2.1508430     0.6613200
  H       -4.1398900     0.0000070    -0.7462250
  H        1.0275050    -0.8925940     1.8992530
  H        1.0275050     0.8925750     1.8992610
  H       -3.9060370    -2.4424280    -1.1656010
  H       -3.8011950    -2.8333800     0.5532780
  H       -2.5084500    -3.3308180    -0.5430300
  H       -3.8015320     2.8331670     0.5531290
  H       -2.5084330     3.3309140    -0.5426230
  H       -3.9057300     2.4425370    -1.1658600
units angstrom
no_reorient  #important for SAPT in psi4, default
symmetry c1  #important for SAPT in psi4, default
}

set PROPERTIES_ORIGIN ["COM"]
properties('MP2/aug-cc-pvtz', properties = ['dipole'])
--------------------------------------------------------------------------

    Molecular point group: c1
  Charge       = 0
  Multiplicity = 1
  Basis Set: AUG-CC-PVTZ
    Blend: AUG-CC-PVTZ
  Basis Set: (AUG-CC-PVTZ AUX)
    Blend: AUG-CC-PVTZ-JKFIT + DEF2-QZVPP-JKFIT

    Orbital Energies [Eh]
    ---------------------

    Doubly Occupied:

       1A    -11.306386     2A    -11.264984     3A    -11.254158
       4A    -11.254130     5A    -11.240313     6A    -11.240275
       7A    -11.237233     8A    -11.231686     9A    -11.231685
      10A     -7.687871    11A     -5.518468    12A     -5.510391
      13A     -5.510278    14A     -2.246866    15A     -2.243575
      16A     -2.243453    17A     -2.234543    18A     -2.234541
      19A     -1.171136    20A     -1.079133    21A     -1.065908
      22A     -0.975578    23A     -0.942784    24A     -0.938200
      25A     -0.835994    26A     -0.799477    27A     -0.797638
      28A     -0.693672    29A     -0.689018    30A     -0.631574
      31A     -0.626338    32A     -0.589236    33A     -0.578281
      34A     -0.577031    35A     -0.569957    36A     -0.559556
      37A     -0.532987    38A     -0.504020    39A     -0.498661
      40A     -0.491172    41A     -0.414052    42A     -0.349070
      43A     -0.347657    44A     -0.329076    45A     -0.309390

  @DF-RHF Final Energy:  -641.98250278934995

   => Energetics <=

    Nuclear Repulsion Energy =            611.2780424996890360
    One-Electron Energy =               -2197.3462275765687082
    Two-Electron Energy =                 944.0856822875297212
    Total Energy =                       -641.9825027893499509
  Basis Set: (AUG-CC-PVTZ AUX)
    Blend: AUG-CC-PVTZ-RI + DEF2-QZVPP-RI
    Molecular point group: c1

    Geometry (in Angstrom), charge = 0, multiplicity = 1:

       Center              X                  Y                   Z               Mass
    ------------   -----------------  -----------------  -----------------  -----------------
         I            2.053743499691     0.000000800395    -0.233931461484   126.904471900000
         C           -0.845237500309    -0.000004199605     0.755460538516    12.000000000000
         C           -2.794623500309    -1.225305199605    -0.046522461484    12.000000000000
         C           -2.794616500309     1.225309800395    -0.046516461484    12.000000000000
         C           -1.500522500309     1.209750800395     0.487242538516    12.000000000000
         C           -1.500526500309    -1.209753199605     0.487237538516    12.000000000000
         C           -3.425643500309     0.000002800395    -0.306040461484    12.000000000000
         C            0.435179999691    -0.000007499605     1.558702838516    12.000000000000
         C           -3.508278500309    -2.529167199605    -0.303059461484    12.000000000000
         C           -3.508278500309     2.529167800395    -0.303057461484    12.000000000000
         H           -0.985573500309     2.150836800395     0.679839538516     1.007825032230
         H           -0.985581500309    -2.150843199605     0.679829538516     1.007825032230
         H           -4.430906500309     0.000006800395    -0.727715461484     1.007825032230
         H            0.736488499691    -0.892594199605     1.917762538516     1.007825032230
         H            0.736488499691     0.892574800395     1.917770538516     1.007825032230
         H           -4.197053500309    -2.442428199605    -1.147091461484     1.007825032230
         H           -4.092211500309    -2.833380199605     0.571787538516     1.007825032230
         H           -2.799466500309    -3.330818199605    -0.524520461484     1.007825032230
         H           -4.092548500309     2.833166800395     0.571638538516     1.007825032230
         H           -2.799449500309     3.330913800395    -0.524113461484     1.007825032230
         H           -4.196746500309     2.442536800395    -1.147350461484     1.007825032230

  Basis Set: AUG-CC-PVTZ
    Blend: AUG-CC-PVTZ
  Basis Set: (AUG-CC-PVTZ AUX)
    Blend: AUG-CC-PVTZ-JKFIT + DEF2-QZVPP-JKFIT
	 Reference Energy          =    -641.9825027893499509 [Eh]
	 Singles Energy            =      -0.0000000000000000 [Eh]
	 Same-Spin Energy          =      -0.4665464706312523 [Eh]
	 Opposite-Spin Energy      =      -1.4509702631228885 [Eh]
	 Correlation Energy        =      -1.9175167337541408 [Eh]
	 Total Energy              =    -643.9000195231041062 [Eh]

	 ================> DF-SCS-MP2 Energies <==================
	-----------------------------------------------------------
	 SCS Same-Spin Scale       =       0.3333333333333333 [-]
	 SCS Opposite-Spin Scale   =       1.2000000000000000 [-]
	 SCS Same-Spin Energy      =      -0.1555154902104174 [Eh]
	 SCS Opposite-Spin Energy  =      -1.7411643157474661 [Eh]
	 SCS Correlation Energy    =      -1.8966798059578835 [Eh]
	 SCS Total Energy          =    -643.8791825953078387 [Eh]
	-----------------------------------------------------------

  Dipole Moment: [D]
     X:    -2.7763      Y:    -0.0000      Z:     1.1993     Total:     3.0242

*** Psi4 exiting successfully. Buy a developer a beer!
