                               Psi4 1.3.2 release

  ==> Input File <==

--------------------------------------------------------------------------
#psi4
#
memory 32 gb

molecule  {
0 1
  I        2.3447600     0.0000010    -0.2524410
  C       -0.5542210    -0.0000040     0.7369510
  C       -2.5036070    -1.2253050    -0.0650320
  C       -2.5036000     1.2253100    -0.0650260
  C       -1.2095060     1.2097510     0.4687330
  C       -1.2095100    -1.2097530     0.4687280
  C       -3.1346270     0.0000030    -0.3245500
  C        0.8026609    -0.0000071     1.3553875
  C       -3.2172620    -2.5291670    -0.3215690
  C       -3.2172620     2.5291680    -0.3215670
  H       -0.6945570     2.1508370     0.6613300
  H       -0.6945650    -2.1508430     0.6613200
  H       -4.1398900     0.0000070    -0.7462250
  H        1.0275050    -0.8925940     1.8992530
  H        1.0275050     0.8925750     1.8992610
  H       -3.9060370    -2.4424280    -1.1656010
  H       -3.8011950    -2.8333800     0.5532780
  H       -2.5084500    -3.3308180    -0.5430300
  H       -3.8015320     2.8331670     0.5531290
  H       -2.5084330     3.3309140    -0.5426230
  H       -3.9057300     2.4425370    -1.1658600
units angstrom
no_reorient  #important for SAPT in psi4, default
symmetry c1  #important for SAPT in psi4, default
}

set PROPERTIES_ORIGIN ["COM"]
properties('MP2/aug-cc-pvtz', properties = ['dipole'])
--------------------------------------------------------------------------

    Molecular point group: c1
  Charge       = 0
  Multiplicity = 1
  Basis Set: AUG-CC-PVTZ
    Blend: AUG-CC-PVTZ
  Basis Set: (AUG-CC-PVTZ AUX)
    Blend: AUG-CC-PVTZ-JKFIT + DEF2-QZVPP-JKFIT

    Orbital Energies [Eh]
    ---------------------

    Doubly Occupied:

       1A    -11.292093     2A    -11.255699     3A    -11.250092
       4A    -11.250065     5A    -11.234470     6A    -11.234428
       7A    -11.232241     8A    -11.228875     9A    -11.228874
      10A     -7.702836    11A     -5.534112    12A     -5.525059
      13A     -5.525027    14A     -2.263103    15A     -2.258961
      16A     -2.258919    17A     -2.248906    18A     -2.248905
      19A     -1.166303    20A     -1.074256    21A     -1.061971
      22A     -0.970180    23A     -0.939023    24A     -0.933913
      25A     -0.847064    26A     -0.792125    27A     -0.786823
      28A     -0.683574    29A     -0.670740    30A     -0.620097
      31A     -0.598917    32A     -0.586504    33A     -0.574178
      34A     -0.574089    35A     -0.565323    36A     -0.556370
      37A     -0.527580    38A     -0.508697    39A     -0.491484
      40A     -0.486504    41A     -0.438118    42A     -0.357949
      43A     -0.355844    44A     -0.325688    45A     -0.317434

  @DF-RHF Final Energy:  -642.00727423029480

   => Energetics <=

    Nuclear Repulsion Energy =            613.9752576774446879
    One-Electron Energy =               -2202.7982340984076473
    Two-Electron Energy =                 946.8157021906681621
    Total Energy =                       -642.0072742302947972
  Basis Set: (AUG-CC-PVTZ AUX)
    Blend: AUG-CC-PVTZ-RI + DEF2-QZVPP-RI
    Molecular point group: c1

    Geometry (in Angstrom), charge = 0, multiplicity = 1:

       Center              X                  Y                   Z               Mass
    ------------   -----------------  -----------------  -----------------  -----------------
         I            2.050013385627     0.000000790638    -0.224916197992   126.904471900000
         C           -0.848967614373    -0.000004209362     0.764475802008    12.000000000000
         C           -2.798353614373    -1.225305209362    -0.037507197992    12.000000000000
         C           -2.798346614373     1.225309790638    -0.037501197992    12.000000000000
         C           -1.504252614373     1.209750790638     0.496257802008    12.000000000000
         C           -1.504256614373    -1.209753209362     0.496252802008    12.000000000000
         C           -3.429373614373     0.000002790638    -0.297025197992    12.000000000000
         C            0.507914285627    -0.000007309362     1.382912302008    12.000000000000
         C           -3.512008614373    -2.529167209362    -0.294044197992    12.000000000000
         C           -3.512008614373     2.529167790638    -0.294042197992    12.000000000000
         H           -0.989303614373     2.150836790638     0.688854802008     1.007825032230
         H           -0.989311614373    -2.150843209362     0.688844802008     1.007825032230
         H           -4.434636614373     0.000006790638    -0.718700197992     1.007825032230
         H            0.732758385627    -0.892594209362     1.926777802008     1.007825032230
         H            0.732758385627     0.892574790638     1.926785802008     1.007825032230
         H           -4.200783614373    -2.442428209362    -1.138076197992     1.007825032230
         H           -4.095941614373    -2.833380209362     0.580802802008     1.007825032230
         H           -2.803196614373    -3.330818209362    -0.515505197992     1.007825032230
         H           -4.096278614373     2.833166790638     0.580653802008     1.007825032230
         H           -2.803179614373     3.330913790638    -0.515098197992     1.007825032230
         H           -4.200476614373     2.442536790638    -1.138335197992     1.007825032230

  Basis Set: AUG-CC-PVTZ
    Blend: AUG-CC-PVTZ
  Basis Set: (AUG-CC-PVTZ AUX)
    Blend: AUG-CC-PVTZ-JKFIT + DEF2-QZVPP-JKFIT
	 Reference Energy          =    -642.0072742302947972 [Eh]
	 Singles Energy            =      -0.0000000000000000 [Eh]
	 Same-Spin Energy          =      -0.4672511390494895 [Eh]
	 Opposite-Spin Energy      =      -1.4520071310612885 [Eh]
	 Correlation Energy        =      -1.9192582701107781 [Eh]
	 Total Energy              =    -643.9265325004055285 [Eh]

	 ================> DF-SCS-MP2 Energies <==================
	-----------------------------------------------------------
	 SCS Same-Spin Scale       =       0.3333333333333333 [-]
	 SCS Opposite-Spin Scale   =       1.2000000000000000 [-]
	 SCS Same-Spin Energy      =      -0.1557503796831632 [Eh]
	 SCS Opposite-Spin Energy  =      -1.7424085572735462 [Eh]
	 SCS Correlation Energy    =      -1.8981589369567093 [Eh]
	 SCS Total Energy          =    -643.9054331672515445 [Eh]
	-----------------------------------------------------------

  Dipole Moment: [D]
     X:    -2.2374      Y:    -0.0000      Z:     0.9555     Total:     2.4329

*** Psi4 exiting successfully. Buy a developer a beer!
