                               Psi4 1.3.2 release

  ==> Input File <==

--------------------------------------------------------------------------
#psi4
#
memory 32 gb

molecule  {
0 1
  N        0.0000000    -0.2847960    -0.0775200
  C       -1.2011120     0.5410781     0.0254008
  C        1.2154590     0.5201510     0.0228370
  C       -2.4484620    -0.3686040    -0.0316540
  C        2.4484620    -0.3686030    -0.0316740
  H       -1.2391330     1.1425390     0.9363030
  H       -1.2207300     1.2134510    -0.8263620
  H        1.2207230     1.2135020    -0.8262740
  H        1.2391330     1.1424770     0.9363870
  H       -0.0000150    -0.9587820     0.6907340
  H       -2.4419500    -0.9624070    -0.9482340
  H       -2.4715700    -1.0556010     0.8206420
  H       -3.3641460     0.2289170    -0.0033300
  H        2.4715620    -1.0556700     0.8205670
  H        2.4419500    -0.9623320    -0.9483010
  H        3.3641500     0.2289090    -0.0032960
units angstrom
no_reorient  #important for SAPT in psi4, default
symmetry c1  #important for SAPT in psi4, default
}

set PROPERTIES_ORIGIN ["COM"]
properties('MP2/aug-cc-pvtz', properties = ['dipole'])
--------------------------------------------------------------------------

    Molecular point group: c1
  Charge       = 0
  Multiplicity = 1
  Basis Set: AUG-CC-PVTZ
    Blend: AUG-CC-PVTZ
  Basis Set: (AUG-CC-PVTZ AUX)
    Blend: AUG-CC-PVTZ-JKFIT

    Orbital Energies [Eh]
    ---------------------

    Doubly Occupied:

       1A    -15.538804     2A    -11.243773     3A    -11.243162
       4A    -11.211221     5A    -11.210671     6A     -1.203257
       7A     -1.023857     8A     -0.958307     9A     -0.828133
      10A     -0.819780    11A     -0.661849    12A     -0.625344
      13A     -0.597208    14A     -0.584105    15A     -0.550203
      16A     -0.519924    17A     -0.506420    18A     -0.489104
      19A     -0.482652    20A     -0.466667    21A     -0.371476

  @DF-RHF Final Energy:  -212.39472383744527

   => Energetics <=

    Nuclear Repulsion Energy =            188.4616153494610842
    One-Electron Energy =                -659.4408444121194179
    Two-Electron Energy =                 258.5845052252130358
    Total Energy =                       -212.3947238374452695
  Basis Set: (AUG-CC-PVTZ AUX)
    Blend: AUG-CC-PVTZ-RI
    Molecular point group: c1

    Geometry (in Angstrom), charge = 0, multiplicity = 1:

       Center              X                  Y                   Z               Mass
    ------------   -----------------  -----------------  -----------------  -----------------
         N           -0.002355175810    -0.285844283372    -0.069137257287    14.003074004430
         C           -1.203467175810     0.540029816628     0.033783542713    12.000000000000
         C            1.213103824190     0.519102716628     0.031219742713    12.000000000000
         C           -2.450817175810    -0.369652283372    -0.023271257287    12.000000000000
         C            2.446106824190    -0.369651283372    -0.023291257287    12.000000000000
         H           -1.241488175810     1.141490716628     0.944685742713     1.007825032230
         H           -1.223085175810     1.212402716628    -0.817979257287     1.007825032230
         H            1.218367824190     1.212453716628    -0.817891257287     1.007825032230
         H            1.236777824190     1.141428716628     0.944769742713     1.007825032230
         H           -0.002370175810    -0.959830283372     0.699116742713     1.007825032230
         H           -2.444305175810    -0.963455283372    -0.939851257287     1.007825032230
         H           -2.473925175810    -1.056649283372     0.829024742713     1.007825032230
         H           -3.366501175810     0.227868716628     0.005052742713     1.007825032230
         H            2.469206824190    -1.056718283372     0.828949742713     1.007825032230
         H            2.439594824190    -0.963380283372    -0.939918257287     1.007825032230
         H            3.361794824190     0.227860716628     0.005086742713     1.007825032230

  Basis Set: AUG-CC-PVTZ
    Blend: AUG-CC-PVTZ
  Basis Set: (AUG-CC-PVTZ AUX)
    Blend: AUG-CC-PVTZ-JKFIT
	 Reference Energy          =    -212.3947238374452695 [Eh]
	 Singles Energy            =      -0.0000000000000000 [Eh]
	 Same-Spin Energy          =      -0.2218996598871736 [Eh]
	 Opposite-Spin Energy      =      -0.8124808835080488 [Eh]
	 Correlation Energy        =      -1.0343805433952225 [Eh]
	 Total Energy              =    -213.4291043808404993 [Eh]

	 ================> DF-SCS-MP2 Energies <==================
	-----------------------------------------------------------
	 SCS Same-Spin Scale       =       0.3333333333333333 [-]
	 SCS Opposite-Spin Scale   =       1.2000000000000000 [-]
	 SCS Same-Spin Energy      =      -0.0739665532957245 [Eh]
	 SCS Opposite-Spin Energy  =      -0.9749770602096586 [Eh]
	 SCS Correlation Energy    =      -1.0489436135053831 [Eh]
	 SCS Total Energy          =    -213.4436674509506418 [Eh]
	-----------------------------------------------------------

  Dipole Moment: [D]
     X:     0.0156      Y:     0.4690      Z:     0.9047     Total:     1.0192

*** Psi4 exiting successfully. Buy a developer a beer!
