                               Psi4 1.3.2 release

  ==> Input File <==

--------------------------------------------------------------------------
#psi4
#
memory 32 gb

molecule  {
0 1
  N        0.0290284    -0.3266137    -0.0807186
  C       -1.2154540     0.5201510     0.0227920
  C        1.2154590     0.5201510     0.0228370
  C       -2.4484620    -0.3686040    -0.0316540
  C        2.4484620    -0.3686030    -0.0316740
  H       -1.2391330     1.1425390     0.9363030
  H       -1.2207300     1.2134510    -0.8263620
  H        1.2207230     1.2135020    -0.8262740
  H        1.2391330     1.1424770     0.9363870
  H       -0.0000150    -0.9587820     0.6907340
  H       -2.4419500    -0.9624070    -0.9482340
  H       -2.4715700    -1.0556010     0.8206420
  H       -3.3641460     0.2289170    -0.0033300
  H        2.4715620    -1.0556700     0.8205670
  H        2.4419500    -0.9623320    -0.9483010
  H        3.3641500     0.2289090    -0.0032960
units angstrom
no_reorient  #important for SAPT in psi4, default
symmetry c1  #important for SAPT in psi4, default
}

set PROPERTIES_ORIGIN ["COM"]
properties('MP2/aug-cc-pvtz', properties = ['dipole'])
--------------------------------------------------------------------------

    Molecular point group: c1
  Charge       = 0
  Multiplicity = 1
  Basis Set: AUG-CC-PVTZ
    Blend: AUG-CC-PVTZ
  Basis Set: (AUG-CC-PVTZ AUX)
    Blend: AUG-CC-PVTZ-JKFIT

    Orbital Energies [Eh]
    ---------------------

    Doubly Occupied:

       1A    -15.539415     2A    -11.247462     3A    -11.243492
       4A    -11.211489     5A    -11.208790     6A     -1.197422
       7A     -1.024538     8A     -0.961288     9A     -0.823547
      10A     -0.822229    11A     -0.659402    12A     -0.622709
      13A     -0.596925    14A     -0.581763    15A     -0.552636
      16A     -0.519247    17A     -0.505716    18A     -0.491440
      19A     -0.479721    20A     -0.463386    21A     -0.375840

  @DF-RHF Final Energy:  -212.39262082625112

   => Energetics <=

    Nuclear Repulsion Energy =            188.1012823298632952
    One-Electron Energy =                -658.7308923757790353
    Two-Electron Energy =                 258.2369892196646219
    Total Energy =                       -212.3926208262511182
  Basis Set: (AUG-CC-PVTZ AUX)
    Blend: AUG-CC-PVTZ-RI
    Molecular point group: c1

    Geometry (in Angstrom), charge = 0, multiplicity = 1:

       Center              X                  Y                   Z               Mass
    ------------   -----------------  -----------------  -----------------  -----------------
         N            0.023466416675    -0.316214298522    -0.071294720084    14.003074004430
         C           -1.221015983325     0.530550401478     0.032215879916    12.000000000000
         C            1.209897016675     0.530550401478     0.032260879916    12.000000000000
         C           -2.454023983325    -0.358204598522    -0.022230120084    12.000000000000
         C            2.442900016675    -0.358203598522    -0.022250120084    12.000000000000
         H           -1.244694983325     1.152938401478     0.945726879916     1.007825032230
         H           -1.226291983325     1.223850401478    -0.816938120084     1.007825032230
         H            1.215161016675     1.223901401478    -0.816850120084     1.007825032230
         H            1.233571016675     1.152876401478     0.945810879916     1.007825032230
         H           -0.005576983325    -0.948382598522     0.700157879916     1.007825032230
         H           -2.447511983325    -0.952007598522    -0.938810120084     1.007825032230
         H           -2.477131983325    -1.045201598522     0.830065879916     1.007825032230
         H           -3.369707983325     0.239316401478     0.006093879916     1.007825032230
         H            2.466000016675    -1.045270598522     0.829990879916     1.007825032230
         H            2.436388016675    -0.951932598522    -0.938877120084     1.007825032230
         H            3.358588016675     0.239308401478     0.006127879916     1.007825032230

  Basis Set: AUG-CC-PVTZ
    Blend: AUG-CC-PVTZ
  Basis Set: (AUG-CC-PVTZ AUX)
    Blend: AUG-CC-PVTZ-JKFIT
	 Reference Energy          =    -212.3926208262511182 [Eh]
	 Singles Energy            =      -0.0000000000000000 [Eh]
	 Same-Spin Energy          =      -0.2218666060594346 [Eh]
	 Opposite-Spin Energy      =      -0.8128916768681107 [Eh]
	 Correlation Energy        =      -1.0347582829275452 [Eh]
	 Total Energy              =    -213.4273791091786734 [Eh]

	 ================> DF-SCS-MP2 Energies <==================
	-----------------------------------------------------------
	 SCS Same-Spin Scale       =       0.3333333333333333 [-]
	 SCS Opposite-Spin Scale   =       1.2000000000000000 [-]
	 SCS Same-Spin Energy      =      -0.0739555353531449 [Eh]
	 SCS Opposite-Spin Energy  =      -0.9754700122417328 [Eh]
	 SCS Correlation Energy    =      -1.0494255475948777 [Eh]
	 SCS Total Energy          =    -213.4420463738459830 [Eh]
	-----------------------------------------------------------

  Dipole Moment: [D]
     X:    -0.1091      Y:     0.5519      Z:     0.9346     Total:     1.0909

*** Psi4 exiting successfully. Buy a developer a beer!
