                               Psi4 1.3.2 release

  ==> Input File <==

--------------------------------------------------------------------------
#psi4
#
memory 32 gb

molecule  {
0 1
  N       -0.0139610    -0.2635162    -0.0758746
  C       -1.2154540     0.5201510     0.0227920
  C        1.2154590     0.5201510     0.0228370
  C       -2.4484620    -0.3686040    -0.0316540
  C        2.4484620    -0.3686030    -0.0316740
  H       -1.2391330     1.1425390     0.9363030
  H       -1.2207300     1.2134510    -0.8263620
  H        1.2207230     1.2135020    -0.8262740
  H        1.2391330     1.1424770     0.9363870
  H       -0.0000150    -0.9587820     0.6907340
  H       -2.4419500    -0.9624070    -0.9482340
  H       -2.4715700    -1.0556010     0.8206420
  H       -3.3641460     0.2289170    -0.0033300
  H        2.4715620    -1.0556700     0.8205670
  H        2.4419500    -0.9623320    -0.9483010
  H        3.3641500     0.2289090    -0.0032960
units angstrom
no_reorient  #important for SAPT in psi4, default
symmetry c1  #important for SAPT in psi4, default
}

set PROPERTIES_ORIGIN ["COM"]
properties('MP2/aug-cc-pvtz', properties = ['dipole'])
--------------------------------------------------------------------------

    Molecular point group: c1
  Charge       = 0
  Multiplicity = 1
  Basis Set: AUG-CC-PVTZ
    Blend: AUG-CC-PVTZ
  Basis Set: (AUG-CC-PVTZ AUX)
    Blend: AUG-CC-PVTZ-JKFIT

    Orbital Energies [Eh]
    ---------------------

    Doubly Occupied:

       1A    -15.538283     2A    -11.244670     3A    -11.242511
       4A    -11.211995     5A    -11.210615     6A     -1.206539
       7A     -1.027601     8A     -0.960667     9A     -0.829355
      10A     -0.815709    11A     -0.661299    12A     -0.628164
      13A     -0.597261    14A     -0.586645    15A     -0.551616
      16A     -0.520239    17A     -0.506763    18A     -0.486234
      19A     -0.481307    20A     -0.474305    21A     -0.366820

  @DF-RHF Final Energy:  -212.39477493163568

   => Energetics <=

    Nuclear Repulsion Energy =            188.7977759926233716
    One-Electron Energy =                -660.0879071685973258
    Two-Electron Energy =                 258.8953562443382452
    Total Energy =                       -212.3947749316357090
  Basis Set: (AUG-CC-PVTZ AUX)
    Blend: AUG-CC-PVTZ-RI
    Molecular point group: c1

    Geometry (in Angstrom), charge = 0, multiplicity = 1:

       Center              X                  Y                   Z               Mass
    ------------   -----------------  -----------------  -----------------  -----------------
         N           -0.011286688952    -0.265205582832    -0.067378776999    14.003074004430
         C           -1.212779688952     0.518461617168     0.031287823001    12.000000000000
         C            1.218133311048     0.518461617168     0.031332823001    12.000000000000
         C           -2.445787688952    -0.370293382832    -0.023158176999    12.000000000000
         C            2.451136311048    -0.370292382832    -0.023178176999    12.000000000000
         H           -1.236458688952     1.140849617168     0.944798823001     1.007825032230
         H           -1.218055688952     1.211761617168    -0.817866176999     1.007825032230
         H            1.223397311048     1.211812617168    -0.817778176999     1.007825032230
         H            1.241807311048     1.140787617168     0.944882823001     1.007825032230
         H            0.002659311048    -0.960471382832     0.699229823001     1.007825032230
         H           -2.439275688952    -0.964096382832    -0.939738176999     1.007825032230
         H           -2.468895688952    -1.057290382832     0.829137823001     1.007825032230
         H           -3.361471688952     0.227227617168     0.005165823001     1.007825032230
         H            2.474236311048    -1.057359382832     0.829062823001     1.007825032230
         H            2.444624311048    -0.964021382832    -0.939805176999     1.007825032230
         H            3.366824311048     0.227219617168     0.005199823001     1.007825032230

  Basis Set: AUG-CC-PVTZ
    Blend: AUG-CC-PVTZ
  Basis Set: (AUG-CC-PVTZ AUX)
    Blend: AUG-CC-PVTZ-JKFIT
	 Reference Energy          =    -212.3947749316356806 [Eh]
	 Singles Energy            =      -0.0000000000000000 [Eh]
	 Same-Spin Energy          =      -0.2221246332715726 [Eh]
	 Opposite-Spin Energy      =      -0.8124325191922834 [Eh]
	 Correlation Energy        =      -1.0345571524638562 [Eh]
	 Total Energy              =    -213.4293320840995420 [Eh]

	 ================> DF-SCS-MP2 Energies <==================
	-----------------------------------------------------------
	 SCS Same-Spin Scale       =       0.3333333333333333 [-]
	 SCS Opposite-Spin Scale   =       1.2000000000000000 [-]
	 SCS Same-Spin Energy      =      -0.0740415444238575 [Eh]
	 SCS Opposite-Spin Energy  =      -0.9749190230307401 [Eh]
	 SCS Correlation Energy    =      -1.0489605674545976 [Eh]
	 SCS Total Energy          =    -213.4437354990902804 [Eh]
	-----------------------------------------------------------

  Dipole Moment: [D]
     X:     0.0569      Y:     0.3921      Z:     0.8729     Total:     0.9587

*** Psi4 exiting successfully. Buy a developer a beer!
