                               Psi4 1.3.2 release

  ==> Input File <==

--------------------------------------------------------------------------
#psi4
#
memory 32 gb

molecule  {
0 1
  N        0.0000000    -0.2847960    -0.0775200
  C       -1.2154540     0.5201510     0.0227920
  C        1.2154590     0.5201510     0.0228370
  C       -2.4484620    -0.3686040    -0.0316540
  C        2.4484620    -0.3686030    -0.0316740
  H       -1.2391330     1.1425390     0.9363030
  H       -1.2207300     1.2134510    -0.8263620
  H        1.2207230     1.2135020    -0.8262740
  H        1.2391330     1.1424770     0.9363870
  H       -0.0000121    -0.8268857     0.5403898
  H       -2.4419500    -0.9624070    -0.9482340
  H       -2.4715700    -1.0556010     0.8206420
  H       -3.3641460     0.2289170    -0.0033300
  H        2.4715620    -1.0556700     0.8205670
  H        2.4419500    -0.9623320    -0.9483010
  H        3.3641500     0.2289090    -0.0032960
units angstrom
no_reorient  #important for SAPT in psi4, default
symmetry c1  #important for SAPT in psi4, default
}

set PROPERTIES_ORIGIN ["COM"]
properties('MP2/aug-cc-pvtz', properties = ['dipole'])
--------------------------------------------------------------------------

    Molecular point group: c1
  Charge       = 0
  Multiplicity = 1
  Basis Set: AUG-CC-PVTZ
    Blend: AUG-CC-PVTZ
  Basis Set: (AUG-CC-PVTZ AUX)
    Blend: AUG-CC-PVTZ-JKFIT

    Orbital Energies [Eh]
    ---------------------

    Doubly Occupied:

       1A    -15.513482     2A    -11.243843     3A    -11.243828
       4A    -11.211319     5A    -11.211318     6A     -1.234512
       7A     -1.026887     8A     -0.973054     9A     -0.844315
      10A     -0.827328    11A     -0.671631    12A     -0.627213
      13A     -0.597355    14A     -0.597295    15A     -0.556707
      16A     -0.521753    17A     -0.506883    18A     -0.493251
      19A     -0.480757    20A     -0.472058    21A     -0.372993

  @DF-RHF Final Energy:  -212.35370260079188

   => Energetics <=

    Nuclear Repulsion Energy =            189.7887751937555265
    One-Electron Energy =                -661.8293877765465822
    Two-Electron Energy =                 259.6869099819991789
    Total Energy =                       -212.3537026007918485
  Basis Set: (AUG-CC-PVTZ AUX)
    Blend: AUG-CC-PVTZ-RI
    Molecular point group: c1

    Geometry (in Angstrom), charge = 0, multiplicity = 1:

       Center              X                  Y                   Z               Mass
    ------------   -----------------  -----------------  -----------------  -----------------
         N           -0.000000502390    -0.284227123941    -0.066635842921    14.003074004430
         C           -1.215454502390     0.520719876059     0.033676157079    12.000000000000
         C            1.215458497610     0.520719876059     0.033721157079    12.000000000000
         C           -2.448462502390    -0.368035123941    -0.020769842921    12.000000000000
         C            2.448461497610    -0.368034123941    -0.020789842921    12.000000000000
         H           -1.239133502390     1.143107876059     0.947187157079     1.007825032230
         H           -1.220730502390     1.214019876059    -0.815477842921     1.007825032230
         H            1.220722497610     1.214070876059    -0.815389842921     1.007825032230
         H            1.239132497610     1.143045876059     0.947271157079     1.007825032230
         H           -0.000012602390    -0.826316823941     0.551273957079     1.007825032230
         H           -2.441950502390    -0.961838123941    -0.937349842921     1.007825032230
         H           -2.471570502390    -1.055032123941     0.831526157079     1.007825032230
         H           -3.364146502390     0.229485876059     0.007554157079     1.007825032230
         H            2.471561497610    -1.055101123941     0.831451157079     1.007825032230
         H            2.441949497610    -0.961763123941    -0.937416842921     1.007825032230
         H            3.364149497610     0.229477876059     0.007588157079     1.007825032230

  Basis Set: AUG-CC-PVTZ
    Blend: AUG-CC-PVTZ
  Basis Set: (AUG-CC-PVTZ AUX)
    Blend: AUG-CC-PVTZ-JKFIT
	 Reference Energy          =    -212.3537026007918769 [Eh]
	 Singles Energy            =      -0.0000000000000000 [Eh]
	 Same-Spin Energy          =      -0.2208781386019553 [Eh]
	 Opposite-Spin Energy      =      -0.8097434450464714 [Eh]
	 Correlation Energy        =      -1.0306215836484267 [Eh]
	 Total Energy              =    -213.3843241844403167 [Eh]

	 ================> DF-SCS-MP2 Energies <==================
	-----------------------------------------------------------
	 SCS Same-Spin Scale       =       0.3333333333333333 [-]
	 SCS Opposite-Spin Scale   =       1.2000000000000000 [-]
	 SCS Same-Spin Energy      =      -0.0736260462006518 [Eh]
	 SCS Opposite-Spin Energy  =      -0.9716921340557657 [Eh]
	 SCS Correlation Energy    =      -1.0453181802564175 [Eh]
	 SCS Total Energy          =    -213.3990207810483071 [Eh]
	-----------------------------------------------------------

  Dipole Moment: [D]
     X:    -0.0000      Y:     0.4707      Z:     0.8736     Total:     0.9923

*** Psi4 exiting successfully. Buy a developer a beer!
