                               Psi4 1.3.2 release

  ==> Input File <==

--------------------------------------------------------------------------
#psi4
#
memory 32 gb

molecule  {
0 1
  N        0.0000000    -0.2847960    -0.0775200
  C       -1.2690778     0.4340556     0.0120594
  C        1.2154590     0.5201510     0.0228370
  C       -2.4484620    -0.3686040    -0.0316540
  C        2.4484620    -0.3686030    -0.0316740
  H       -1.2391330     1.1425390     0.9363030
  H       -1.2207300     1.2134510    -0.8263620
  H        1.2207230     1.2135020    -0.8262740
  H        1.2391330     1.1424770     0.9363870
  H       -0.0000150    -0.9587820     0.6907340
  H       -2.4419500    -0.9624070    -0.9482340
  H       -2.4715700    -1.0556010     0.8206420
  H       -3.3641460     0.2289170    -0.0033300
  H        2.4715620    -1.0556700     0.8205670
  H        2.4419500    -0.9623320    -0.9483010
  H        3.3641500     0.2289090    -0.0032960
units angstrom
no_reorient  #important for SAPT in psi4, default
symmetry c1  #important for SAPT in psi4, default
}

set PROPERTIES_ORIGIN ["COM"]
properties('MP2/aug-cc-pvtz', properties = ['dipole'])
--------------------------------------------------------------------------

    Molecular point group: c1
  Charge       = 0
  Multiplicity = 1
  Basis Set: AUG-CC-PVTZ
    Blend: AUG-CC-PVTZ
  Basis Set: (AUG-CC-PVTZ AUX)
    Blend: AUG-CC-PVTZ-JKFIT

    Orbital Energies [Eh]
    ---------------------

    Doubly Occupied:

       1A    -15.538681     2A    -11.250224     3A    -11.246293
       4A    -11.211951     5A    -11.209317     6A     -1.203604
       7A     -1.040620     8A     -0.970815     9A     -0.827418
      10A     -0.806971    11A     -0.657308    12A     -0.630710
      13A     -0.598702    14A     -0.593194    15A     -0.559360
      16A     -0.520030    17A     -0.505839    18A     -0.494673
      19A     -0.480672    20A     -0.461362    21A     -0.362421

  @DF-RHF Final Energy:  -212.38277090871415

   => Energetics <=

    Nuclear Repulsion Energy =            189.0122172488465253
    One-Electron Energy =                -660.4496478200593401
    Two-Electron Energy =                 259.0546596624986933
    Total Energy =                       -212.3827709087141216
  Basis Set: (AUG-CC-PVTZ AUX)
    Blend: AUG-CC-PVTZ-RI
    Molecular point group: c1

    Geometry (in Angstrom), charge = 0, multiplicity = 1:

       Center              X                  Y                   Z               Mass
    ------------   -----------------  -----------------  -----------------  -----------------
         N            0.008803657028    -0.268273002118    -0.066946825446    14.003074004430
         C           -1.260274142972     0.450578597882     0.022632574554    12.000000000000
         C            1.224262657028     0.536673997882     0.033410174554    12.000000000000
         C           -2.439658342972    -0.352081002118    -0.021080825446    12.000000000000
         C            2.457265657028    -0.352080002118    -0.021100825446    12.000000000000
         H           -1.230329342972     1.159061997882     0.946876174554     1.007825032230
         H           -1.211926342972     1.229973997882    -0.815788825446     1.007825032230
         H            1.229526657028     1.230024997882    -0.815700825446     1.007825032230
         H            1.247936657028     1.158999997882     0.946960174554     1.007825032230
         H            0.008788657028    -0.942259002118     0.701307174554     1.007825032230
         H           -2.433146342972    -0.945884002118    -0.937660825446     1.007825032230
         H           -2.462766342972    -1.039078002118     0.831215174554     1.007825032230
         H           -3.355342342972     0.245439997882     0.007243174554     1.007825032230
         H            2.480365657028    -1.039147002118     0.831140174554     1.007825032230
         H            2.450753657028    -0.945809002118    -0.937727825446     1.007825032230
         H            3.372953657028     0.245431997882     0.007277174554     1.007825032230

  Basis Set: AUG-CC-PVTZ
    Blend: AUG-CC-PVTZ
  Basis Set: (AUG-CC-PVTZ AUX)
    Blend: AUG-CC-PVTZ-JKFIT
	 Reference Energy          =    -212.3827709087141500 [Eh]
	 Singles Energy            =      -0.0000000000000000 [Eh]
	 Same-Spin Energy          =      -0.2228708780921772 [Eh]
	 Opposite-Spin Energy      =      -0.8134970098805165 [Eh]
	 Correlation Energy        =      -1.0363678879726936 [Eh]
	 Total Energy              =    -213.4191387966868376 [Eh]

	 ================> DF-SCS-MP2 Energies <==================
	-----------------------------------------------------------
	 SCS Same-Spin Scale       =       0.3333333333333333 [-]
	 SCS Opposite-Spin Scale   =       1.2000000000000000 [-]
	 SCS Same-Spin Energy      =      -0.0742902926973924 [Eh]
	 SCS Opposite-Spin Energy  =      -0.9761964118566198 [Eh]
	 SCS Correlation Energy    =      -1.0504867045540121 [Eh]
	 SCS Total Energy          =    -213.4332576132681538 [Eh]
	-----------------------------------------------------------

  Dipole Moment: [D]
     X:    -0.0544      Y:     0.3357      Z:     0.8496     Total:     0.9152

*** Psi4 exiting successfully. Buy a developer a beer!
