                               Psi4 1.4a3.dev225

  ==> Input File <==

--------------------------------------------------------------------------
#psi4
#
memory 32 gb

molecule  {
0 1
  N        0.0000000    -0.2847950    -0.0775760
  C       -1.2154030     0.5201030     0.0228060
  C        1.2154030     0.5201010     0.0228200
  C       -2.4484650    -0.3685770    -0.0316320
  C        2.4484650    -0.3685770    -0.0316380
  H       -1.2391130     1.1424540     0.9363620
  H       -1.2207100     1.2134400    -0.8263160
  H        1.2207070     1.2134550    -0.8262890
  H        1.2391140     1.1424360     0.9363880
  H       -0.0000052    -0.9919210     0.7281121
  H       -2.4420630    -0.9624210    -0.9481910
  H       -2.4717160    -1.0555150     0.8206980
  H       -3.3640250     0.2291450    -0.0033800
  H        2.4717150    -1.0555360     0.8206740
  H        2.4420660    -0.9623970    -0.9482130
  H        3.3640260     0.2291450    -0.0033680
units angstrom
no_reorient  #important for SAPT in psi4, default
symmetry c1  #important for SAPT in psi4, default
}

set PROPERTIES_ORIGIN ["COM"]
properties('MP2/aug-cc-pvtz', properties = ['dipole'])
--------------------------------------------------------------------------

    Molecular point group: c1
  Charge       = 0
  Multiplicity = 1
  Basis Set: AUG-CC-PVTZ
    Blend: AUG-CC-PVTZ
  Basis Set: (AUG-CC-PVTZ AUX)
    Blend: AUG-CC-PVTZ-JKFIT

    Orbital Energies [Eh]
    ---------------------

    Doubly Occupied:

       1A    -15.544275     2A    -11.244441     3A    -11.244425
       4A    -11.210793     5A    -11.210792     6A     -1.198398
       7A     -1.026468     8A     -0.958929     9A     -0.827291
      10A     -0.812676    11A     -0.657964    12A     -0.626185
      13A     -0.597063    14A     -0.582055    15A     -0.550321
      16A     -0.519206    17A     -0.506259    18A     -0.485273
      19A     -0.480969    20A     -0.471700    21A     -0.369427

  @DF-RHF Final Energy:  -212.39174918202272

   => Energetics <=

    Nuclear Repulsion Energy =            188.3079835058724711
    One-Electron Energy =                -659.1496477398289926
    Two-Electron Energy =                 258.4499150519338286
    Total Energy =                       -212.3917491820226928
  Basis Set: (AUG-CC-PVTZ AUX)
    Blend: AUG-CC-PVTZ-RI
    Molecular point group: c1

    Geometry (in Angstrom), charge = 0, multiplicity = 1:

       Center              X                  Y                   Z               Mass
    ------------   -----------------  -----------------  -----------------  -----------------
         N            0.000000057914    -0.281949063521    -0.069282270098    14.003074004430
         C           -1.215402942086     0.522948936479     0.031099729902    12.000000000000
         C            1.215403057914     0.522946936479     0.031113729902    12.000000000000
         C           -2.448464942086    -0.365731063521    -0.023338270098    12.000000000000
         C            2.448465057914    -0.365731063521    -0.023344270098    12.000000000000
         H           -1.239112942086     1.145299936479     0.944655729902     1.007825032230
         H           -1.220709942086     1.216285936479    -0.818022270098     1.007825032230
         H            1.220707057914     1.216300936479    -0.817995270098     1.007825032230
         H            1.239114057914     1.145281936479     0.944681729902     1.007825032230
         H           -0.000005142086    -0.989075063521     0.736405829902     1.007825032230
         H           -2.442062942086    -0.959575063521    -0.939897270098     1.007825032230
         H           -2.471715942086    -1.052669063521     0.828991729902     1.007825032230
         H           -3.364024942086     0.231990936479     0.004913729902     1.007825032230
         H            2.471715057914    -1.052690063521     0.828967729902     1.007825032230
         H            2.442066057914    -0.959551063521    -0.939919270098     1.007825032230
         H            3.364026057914     0.231990936479     0.004925729902     1.007825032230

  Basis Set: AUG-CC-PVTZ
    Blend: AUG-CC-PVTZ
  Basis Set: (AUG-CC-PVTZ AUX)
    Blend: AUG-CC-PVTZ-JKFIT
	 Reference Energy          =    -212.3917491820227212 [Eh]
	 Singles Energy            =      -0.0000000000000000 [Eh]
	 Same-Spin Energy          =      -0.2222981597126328 [Eh]
	 Opposite-Spin Energy      =      -0.8134165263638995 [Eh]
	 Correlation Energy        =      -1.0357146860765323 [Eh]
	 Total Energy              =    -213.4274638680992666 [Eh]

	 ================> DF-SCS-MP2 Energies <==================
	-----------------------------------------------------------
	 SCS Same-Spin Scale       =       0.3333333333333333 [-]
	 SCS Opposite-Spin Scale   =       1.2000000000000000 [-]
	 SCS Same-Spin Energy      =      -0.0740993865708776 [Eh]
	 SCS Opposite-Spin Energy  =      -0.9760998316366793 [Eh]
	 SCS Correlation Energy    =      -1.0501992182075570 [Eh]
	 SCS Total Energy          =    -213.4419484002302738 [Eh]
	-----------------------------------------------------------

  Dipole Moment: [D]
     X:    -0.0000      Y:     0.4504      Z:     0.8947     Total:     1.0017

*** Psi4 exiting successfully. Buy a developer a beer!
