                               Psi4 1.3.2 release

  ==> Input File <==

--------------------------------------------------------------------------
#psi4
#
memory 32 gb

molecule  {
0 1
  N        0.0000000    -0.2847960    -0.0775200
  C       -1.2504699     0.4373264     0.1465220
  C        1.2154590     0.5201510     0.0228370
  C       -2.4484620    -0.3686040    -0.0316540
  C        2.4484620    -0.3686030    -0.0316740
  H       -1.2391330     1.1425390     0.9363030
  H       -1.2207300     1.2134510    -0.8263620
  H        1.2207230     1.2135020    -0.8262740
  H        1.2391330     1.1424770     0.9363870
  H       -0.0000150    -0.9587820     0.6907340
  H       -2.4419500    -0.9624070    -0.9482340
  H       -2.4715700    -1.0556010     0.8206420
  H       -3.3641460     0.2289170    -0.0033300
  H        2.4715620    -1.0556700     0.8205670
  H        2.4419500    -0.9623320    -0.9483010
  H        3.3641500     0.2289090    -0.0032960
units angstrom
no_reorient  #important for SAPT in psi4, default
symmetry c1  #important for SAPT in psi4, default
}

set PROPERTIES_ORIGIN ["COM"]
properties('MP2/aug-cc-pvtz', properties = ['dipole'])
--------------------------------------------------------------------------

    Molecular point group: c1
  Charge       = 0
  Multiplicity = 1
  Basis Set: AUG-CC-PVTZ
    Blend: AUG-CC-PVTZ
  Basis Set: (AUG-CC-PVTZ AUX)
    Blend: AUG-CC-PVTZ-JKFIT

    Orbital Energies [Eh]
    ---------------------

    Doubly Occupied:

       1A    -15.541744     2A    -11.250495     3A    -11.246553
       4A    -11.212469     5A    -11.210820     6A     -1.206805
       7A     -1.036620     8A     -0.969248     9A     -0.828903
      10A     -0.810077    11A     -0.662395    12A     -0.634588
      13A     -0.598696    14A     -0.584372    15A     -0.558534
      16A     -0.529631    17A     -0.509358    18A     -0.488743
      19A     -0.483066    20A     -0.437494    21A     -0.373185

  @DF-RHF Final Energy:  -212.37102344148983

   => Energetics <=

    Nuclear Repulsion Energy =            188.8935453179211095
    One-Electron Energy =                -660.1815458857846579
    Two-Electron Energy =                 258.9169771263737516
    Total Energy =                       -212.3710234414897968
  Basis Set: (AUG-CC-PVTZ AUX)
    Blend: AUG-CC-PVTZ-RI
    Molecular point group: c1

    Geometry (in Angstrom), charge = 0, multiplicity = 1:

       Center              X                  Y                   Z               Mass
    ------------   -----------------  -----------------  -----------------  -----------------
         N            0.005748555116    -0.268810012062    -0.089023306211    14.003074004430
         C           -1.244721344884     0.453312387938     0.135018693789    12.000000000000
         C            1.221207555116     0.536136987938     0.011333693789    12.000000000000
         C           -2.442713444884    -0.352618012062    -0.043157306211    12.000000000000
         C            2.454210555116    -0.352617012062    -0.043177306211    12.000000000000
         H           -1.233384444884     1.158524987938     0.924799693789     1.007825032230
         H           -1.214981444884     1.229436987938    -0.837865306211     1.007825032230
         H            1.226471555116     1.229487987938    -0.837777306211     1.007825032230
         H            1.244881555116     1.158462987938     0.924883693789     1.007825032230
         H            0.005733555116    -0.942796012062     0.679230693789     1.007825032230
         H           -2.436201444884    -0.946421012062    -0.959737306211     1.007825032230
         H           -2.465821444884    -1.039615012062     0.809138693789     1.007825032230
         H           -3.358397444884     0.244902987938    -0.014833306211     1.007825032230
         H            2.477310555116    -1.039684012062     0.809063693789     1.007825032230
         H            2.447698555116    -0.946346012062    -0.959804306211     1.007825032230
         H            3.369898555116     0.244894987938    -0.014799306211     1.007825032230

  Basis Set: AUG-CC-PVTZ
    Blend: AUG-CC-PVTZ
  Basis Set: (AUG-CC-PVTZ AUX)
    Blend: AUG-CC-PVTZ-JKFIT
	 Reference Energy          =    -212.3710234414898252 [Eh]
	 Singles Energy            =      -0.0000000000000000 [Eh]
	 Same-Spin Energy          =      -0.2230300940469345 [Eh]
	 Opposite-Spin Energy      =      -0.8144757038912753 [Eh]
	 Correlation Energy        =      -1.0375057979382099 [Eh]
	 Total Energy              =    -213.4085292394280486 [Eh]

	 ================> DF-SCS-MP2 Energies <==================
	-----------------------------------------------------------
	 SCS Same-Spin Scale       =       0.3333333333333333 [-]
	 SCS Opposite-Spin Scale   =       1.2000000000000000 [-]
	 SCS Same-Spin Energy      =      -0.0743433646823115 [Eh]
	 SCS Opposite-Spin Energy  =      -0.9773708446695304 [Eh]
	 SCS Correlation Energy    =      -1.0517142093518419 [Eh]
	 SCS Total Energy          =    -213.4227376508416683 [Eh]
	-----------------------------------------------------------

  Dipole Moment: [D]
     X:     0.0242      Y:     0.3464      Z:     1.0574     Total:     1.1130

*** Psi4 exiting successfully. Buy a developer a beer!
