                               Psi4 1.3.2 release

  ==> Input File <==

--------------------------------------------------------------------------
#psi4
#
memory 32 gb

molecule  {
0 1
  N        0.0000000    -0.2847960    -0.0775200
  C       -1.1864040     0.5617536     0.0279782
  C        1.2154590     0.5201510     0.0228370
  C       -2.4484620    -0.3686040    -0.0316540
  C        2.4484620    -0.3686030    -0.0316740
  H       -1.2391330     1.1425390     0.9363030
  H       -1.2207300     1.2134510    -0.8263620
  H        1.2207230     1.2135020    -0.8262740
  H        1.2391330     1.1424770     0.9363870
  H       -0.0000150    -0.9587820     0.6907340
  H       -2.4419500    -0.9624070    -0.9482340
  H       -2.4715700    -1.0556010     0.8206420
  H       -3.3641460     0.2289170    -0.0033300
  H        2.4715620    -1.0556700     0.8205670
  H        2.4419500    -0.9623320    -0.9483010
  H        3.3641500     0.2289090    -0.0032960
units angstrom
no_reorient  #important for SAPT in psi4, default
symmetry c1  #important for SAPT in psi4, default
}

set PROPERTIES_ORIGIN ["COM"]
properties('MP2/aug-cc-pvtz', properties = ['dipole'])
--------------------------------------------------------------------------

    Molecular point group: c1
  Charge       = 0
  Multiplicity = 1
  Basis Set: AUG-CC-PVTZ
    Blend: AUG-CC-PVTZ
  Basis Set: (AUG-CC-PVTZ AUX)
    Blend: AUG-CC-PVTZ-JKFIT

    Orbital Energies [Eh]
    ---------------------

    Doubly Occupied:

       1A    -15.539073     2A    -11.243409     3A    -11.242349
       4A    -11.211511     5A    -11.210469     6A     -1.203482
       7A     -1.021518     8A     -0.955825     9A     -0.829673
      10A     -0.820864    11A     -0.663390    12A     -0.624503
      13A     -0.597533    14A     -0.583673    15A     -0.548517
      16A     -0.520074    17A     -0.506459    18A     -0.491290
      19A     -0.484240    20A     -0.460516    21A     -0.372897

  @DF-RHF Final Energy:  -212.39289194918774

   => Energetics <=

    Nuclear Repulsion Energy =            188.3676134584691226
    One-Electron Energy =                -659.2584808032877390
    Two-Electron Energy =                 258.4979753956308741
    Total Energy =                       -212.3928919491877423
  Basis Set: (AUG-CC-PVTZ AUX)
    Blend: AUG-CC-PVTZ-RI
    Molecular point group: c1

    Geometry (in Angstrom), charge = 0, multiplicity = 1:

       Center              X                  Y                   Z               Mass
    ------------   -----------------  -----------------  -----------------  -----------------
         N           -0.004769980217    -0.289238850174    -0.069560422699    14.003074004430
         C           -1.191173980217     0.557310749826     0.035937777301    12.000000000000
         C            1.210689019783     0.515708149826     0.030796577301    12.000000000000
         C           -2.453231980217    -0.373046850174    -0.023694422699    12.000000000000
         C            2.443692019783    -0.373045850174    -0.023714422699    12.000000000000
         H           -1.243902980217     1.138096149826     0.944262577301     1.007825032230
         H           -1.225499980217     1.209008149826    -0.818402422699     1.007825032230
         H            1.215953019783     1.209059149826    -0.818314422699     1.007825032230
         H            1.234363019783     1.138034149826     0.944346577301     1.007825032230
         H           -0.004784980217    -0.963224850174     0.698693577301     1.007825032230
         H           -2.446719980217    -0.966849850174    -0.940274422699     1.007825032230
         H           -2.476339980217    -1.060043850174     0.828601577301     1.007825032230
         H           -3.368915980217     0.224474149826     0.004629577301     1.007825032230
         H            2.466792019783    -1.060112850174     0.828526577301     1.007825032230
         H            2.437180019783    -0.966774850174    -0.940341422699     1.007825032230
         H            3.359380019783     0.224466149826     0.004663577301     1.007825032230

  Basis Set: AUG-CC-PVTZ
    Blend: AUG-CC-PVTZ
  Basis Set: (AUG-CC-PVTZ AUX)
    Blend: AUG-CC-PVTZ-JKFIT
	 Reference Energy          =    -212.3928919491877423 [Eh]
	 Singles Energy            =      -0.0000000000000000 [Eh]
	 Same-Spin Energy          =      -0.2218492237394183 [Eh]
	 Opposite-Spin Energy      =      -0.8125596872817888 [Eh]
	 Correlation Energy        =      -1.0344089110212071 [Eh]
	 Total Energy              =    -213.4273008602089590 [Eh]

	 ================> DF-SCS-MP2 Energies <==================
	-----------------------------------------------------------
	 SCS Same-Spin Scale       =       0.3333333333333333 [-]
	 SCS Opposite-Spin Scale   =       1.2000000000000000 [-]
	 SCS Same-Spin Energy      =      -0.0739497412464728 [Eh]
	 SCS Opposite-Spin Energy  =      -0.9750716247381466 [Eh]
	 SCS Correlation Energy    =      -1.0490213659846193 [Eh]
	 SCS Total Energy          =    -213.4419133151723713 [Eh]
	-----------------------------------------------------------

  Dipole Moment: [D]
     X:     0.0322      Y:     0.4892      Z:     0.9137     Total:     1.0369

*** Psi4 exiting successfully. Buy a developer a beer!
