                               Psi4 1.3.2 release

  ==> Input File <==

--------------------------------------------------------------------------
#psi4
#
memory 32 gb

molecule  {
0 1
  N        0.0000000    -0.2847960    -0.0775200
  C       -1.2154540     0.5201510     0.0227920
  C        1.2154590     0.5201510     0.0228370
  C       -2.4484620    -0.3686040    -0.0316540
  C        2.4484620    -0.3686030    -0.0316740
  H       -1.2391330     1.1425390     0.9363030
  H       -1.2207300     1.2134510    -0.8263620
  H        1.2207230     1.2135020    -0.8262740
  H        1.2391330     1.1424770     0.9363870
  H       -0.0000179    -1.0906783     0.8410782
  H       -2.4419500    -0.9624070    -0.9482340
  H       -2.4715700    -1.0556010     0.8206420
  H       -3.3641460     0.2289170    -0.0033300
  H        2.4715620    -1.0556700     0.8205670
  H        2.4419500    -0.9623320    -0.9483010
  H        3.3641500     0.2289090    -0.0032960
units angstrom
no_reorient  #important for SAPT in psi4, default
symmetry c1  #important for SAPT in psi4, default
}

set PROPERTIES_ORIGIN ["COM"]
properties('MP2/aug-cc-pvtz', properties = ['dipole'])
--------------------------------------------------------------------------

    Molecular point group: c1
  Charge       = 0
  Multiplicity = 1
  Basis Set: AUG-CC-PVTZ
    Blend: AUG-CC-PVTZ
  Basis Set: (AUG-CC-PVTZ AUX)
    Blend: AUG-CC-PVTZ-JKFIT

    Orbital Energies [Eh]
    ---------------------

    Doubly Occupied:

       1A    -15.559674     2A    -11.245644     3A    -11.245628
       4A    -11.210565     5A    -11.210564     6A     -1.189137
       7A     -1.026631     8A     -0.955166     9A     -0.827793
      10A     -0.800480    11A     -0.651613    12A     -0.626390
      13A     -0.597182    14A     -0.575348    15A     -0.544820
      16A     -0.517021    17A     -0.506286    18A     -0.481543
      19A     -0.476239    20A     -0.472192    21A     -0.368378

  @DF-RHF Final Energy:  -212.36767098325058

   => Energetics <=

    Nuclear Repulsion Energy =            187.6278078213691458
    One-Electron Energy =                -657.8143710094394692
    Two-Electron Energy =                 257.8188922048197469
    Total Energy =                       -212.3676709832505480
  Basis Set: (AUG-CC-PVTZ AUX)
    Blend: AUG-CC-PVTZ-RI
    Molecular point group: c1

    Geometry (in Angstrom), charge = 0, multiplicity = 1:

       Center              X                  Y                   Z               Mass
    ------------   -----------------  -----------------  -----------------  -----------------
         N           -0.000000422414    -0.280589692285    -0.070782030133    14.003074004430
         C           -1.215454422414     0.524357307715     0.029529969867    12.000000000000
         C            1.215458577586     0.524357307715     0.029574969867    12.000000000000
         C           -2.448462422414    -0.364397692285    -0.024916030133    12.000000000000
         C            2.448461577586    -0.364396692285    -0.024936030133    12.000000000000
         H           -1.239133422414     1.146745307715     0.943040969867     1.007825032230
         H           -1.220730422414     1.217657307715    -0.819624030133     1.007825032230
         H            1.220722577586     1.217708307715    -0.819536030133     1.007825032230
         H            1.239132577586     1.146683307715     0.943124969867     1.007825032230
         H           -0.000018322414    -1.086471992285     0.847816169867     1.007825032230
         H           -2.441950422414    -0.958200692285    -0.941496030133     1.007825032230
         H           -2.471570422414    -1.051394692285     0.827379969867     1.007825032230
         H           -3.364146422414     0.233123307715     0.003407969867     1.007825032230
         H            2.471561577586    -1.051463692285     0.827304969867     1.007825032230
         H            2.441949577586    -0.958125692285    -0.941563030133     1.007825032230
         H            3.364149577586     0.233115307715     0.003441969867     1.007825032230

  Basis Set: AUG-CC-PVTZ
    Blend: AUG-CC-PVTZ
  Basis Set: (AUG-CC-PVTZ AUX)
    Blend: AUG-CC-PVTZ-JKFIT
	 Reference Energy          =    -212.3676709832505765 [Eh]
	 Singles Energy            =      -0.0000000000000000 [Eh]
	 Same-Spin Energy          =      -0.2231371986127142 [Eh]
	 Opposite-Spin Energy      =      -0.8165249627762199 [Eh]
	 Correlation Energy        =      -1.0396621613889341 [Eh]
	 Total Energy              =    -213.4073331446395230 [Eh]

	 ================> DF-SCS-MP2 Energies <==================
	-----------------------------------------------------------
	 SCS Same-Spin Scale       =       0.3333333333333333 [-]
	 SCS Opposite-Spin Scale   =       1.2000000000000000 [-]
	 SCS Same-Spin Energy      =      -0.0743790662042381 [Eh]
	 SCS Opposite-Spin Energy  =      -0.9798299553314638 [Eh]
	 SCS Correlation Energy    =      -1.0542090215357018 [Eh]
	 SCS Total Energy          =    -213.4218800047862885 [Eh]
	-----------------------------------------------------------

  Dipole Moment: [D]
     X:    -0.0000      Y:     0.4889      Z:     0.8761     Total:     1.0033

*** Psi4 exiting successfully. Buy a developer a beer!
