                               Psi4 1.3.2 release

  ==> Input File <==

--------------------------------------------------------------------------
#psi4
#
memory 32 gb

molecule  {
0 1
  N        0.0290336    -0.3327948     0.0076644
  C       -1.2154540     0.5201510     0.0227920
  C        1.2154590     0.5201510     0.0228370
  C       -2.4484620    -0.3686040    -0.0316540
  C        2.4484620    -0.3686030    -0.0316740
  H       -1.2391330     1.1425390     0.9363030
  H       -1.2207300     1.2134510    -0.8263620
  H        1.2207230     1.2135020    -0.8262740
  H        1.2391330     1.1424770     0.9363870
  H       -0.0000150    -0.9587820     0.6907340
  H       -2.4419500    -0.9624070    -0.9482340
  H       -2.4715700    -1.0556010     0.8206420
  H       -3.3641460     0.2289170    -0.0033300
  H        2.4715620    -1.0556700     0.8205670
  H        2.4419500    -0.9623320    -0.9483010
  H        3.3641500     0.2289090    -0.0032960
units angstrom
no_reorient  #important for SAPT in psi4, default
symmetry c1  #important for SAPT in psi4, default
}

set PROPERTIES_ORIGIN ["COM"]
properties('MP2/aug-cc-pvtz', properties = ['dipole'])
--------------------------------------------------------------------------

    Molecular point group: c1
  Charge       = 0
  Multiplicity = 1
  Basis Set: AUG-CC-PVTZ
    Blend: AUG-CC-PVTZ
  Basis Set: (AUG-CC-PVTZ AUX)
    Blend: AUG-CC-PVTZ-JKFIT

    Orbital Energies [Eh]
    ---------------------

    Doubly Occupied:

       1A    -15.527321     2A    -11.247737     3A    -11.244012
       4A    -11.211264     5A    -11.208600     6A     -1.201601
       7A     -1.023910     8A     -0.964877     9A     -0.832768
      10A     -0.822839    11A     -0.658617    12A     -0.622491
      13A     -0.596464    14A     -0.593897    15A     -0.554209
      16A     -0.519181    17A     -0.505620    18A     -0.499232
      19A     -0.478733    20A     -0.463231    21A     -0.364827

  @DF-RHF Final Energy:  -212.38600804302615

   => Energetics <=

    Nuclear Repulsion Energy =            188.3821900400707818
    One-Electron Energy =                -659.2535303086168597
    Two-Electron Energy =                 258.4853322255199259
    Total Energy =                       -212.3860080430261519
  Basis Set: (AUG-CC-PVTZ AUX)
    Blend: AUG-CC-PVTZ-RI
    Molecular point group: c1

    Geometry (in Angstrom), charge = 0, multiplicity = 1:

       Center              X                  Y                   Z               Mass
    ------------   -----------------  -----------------  -----------------  -----------------
         N            0.023470620412    -0.321211168011     0.000155072996    14.003074004430
         C           -1.221016979588     0.531734631989     0.015282672996    12.000000000000
         C            1.209896020412     0.531734631989     0.015327672996    12.000000000000
         C           -2.454024979588    -0.357020368011    -0.039163327004    12.000000000000
         C            2.442899020412    -0.357019368011    -0.039183327004    12.000000000000
         H           -1.244695979588     1.154122631989     0.928793672996     1.007825032230
         H           -1.226292979588     1.225034631989    -0.833871327004     1.007825032230
         H            1.215160020412     1.225085631989    -0.833783327004     1.007825032230
         H            1.233570020412     1.154060631989     0.928877672996     1.007825032230
         H           -0.005577979588    -0.947198368011     0.683224672996     1.007825032230
         H           -2.447512979588    -0.950823368011    -0.955743327004     1.007825032230
         H           -2.477132979588    -1.044017368011     0.813132672996     1.007825032230
         H           -3.369708979588     0.240500631989    -0.010839327004     1.007825032230
         H            2.465999020412    -1.044086368011     0.813057672996     1.007825032230
         H            2.436387020412    -0.950748368011    -0.955810327004     1.007825032230
         H            3.358587020412     0.240492631989    -0.010805327004     1.007825032230

  Basis Set: AUG-CC-PVTZ
    Blend: AUG-CC-PVTZ
  Basis Set: (AUG-CC-PVTZ AUX)
    Blend: AUG-CC-PVTZ-JKFIT
	 Reference Energy          =    -212.3860080430261519 [Eh]
	 Singles Energy            =      -0.0000000000000000 [Eh]
	 Same-Spin Energy          =      -0.2212857138141345 [Eh]
	 Opposite-Spin Energy      =      -0.8113671947721790 [Eh]
	 Correlation Energy        =      -1.0326529085863134 [Eh]
	 Total Energy              =    -213.4186609516124520 [Eh]

	 ================> DF-SCS-MP2 Energies <==================
	-----------------------------------------------------------
	 SCS Same-Spin Scale       =       0.3333333333333333 [-]
	 SCS Opposite-Spin Scale   =       1.2000000000000000 [-]
	 SCS Same-Spin Energy      =      -0.0737619046047115 [Eh]
	 SCS Opposite-Spin Energy  =      -0.9736406337266148 [Eh]
	 SCS Correlation Energy    =      -1.0474025383313263 [Eh]
	 SCS Total Energy          =    -213.4334105813574922 [Eh]
	-----------------------------------------------------------

  Dipole Moment: [D]
     X:    -0.1115      Y:     0.5199      Z:     0.7919     Total:     0.9539

*** Psi4 exiting successfully. Buy a developer a beer!
