                               Psi4 1.3.2 release

  ==> Input File <==

--------------------------------------------------------------------------
#psi4
#
memory 32 gb

molecule  {
0 1
  N       -0.0324111    -0.2055232    -0.2042508
  C       -1.2154540     0.5201510     0.0227920
  C        1.2154590     0.5201510     0.0228370
  C       -2.4484620    -0.3686040    -0.0316540
  C        2.4484620    -0.3686030    -0.0316740
  H       -1.2391330     1.1425390     0.9363030
  H       -1.2207300     1.2134510    -0.8263620
  H        1.2207230     1.2135020    -0.8262740
  H        1.2391330     1.1424770     0.9363870
  H       -0.0000150    -0.9587820     0.6907340
  H       -2.4419500    -0.9624070    -0.9482340
  H       -2.4715700    -1.0556010     0.8206420
  H       -3.3641460     0.2289170    -0.0033300
  H        2.4715620    -1.0556700     0.8205670
  H        2.4419500    -0.9623320    -0.9483010
  H        3.3641500     0.2289090    -0.0032960
units angstrom
no_reorient  #important for SAPT in psi4, default
symmetry c1  #important for SAPT in psi4, default
}

set PROPERTIES_ORIGIN ["COM"]
properties('MP2/aug-cc-pvtz', properties = ['dipole'])
--------------------------------------------------------------------------

    Molecular point group: c1
  Charge       = 0
  Multiplicity = 1
  Basis Set: AUG-CC-PVTZ
    Blend: AUG-CC-PVTZ
  Basis Set: (AUG-CC-PVTZ AUX)
    Blend: AUG-CC-PVTZ-JKFIT

    Orbital Energies [Eh]
    ---------------------

    Doubly Occupied:

       1A    -15.556348     2A    -11.246876     3A    -11.241385
       4A    -11.214368     5A    -11.211107     6A     -1.210977
       7A     -1.030933     8A     -0.959414     9A     -0.835310
      10A     -0.799324    11A     -0.664021    12A     -0.633914
      13A     -0.597107    14A     -0.581632    15A     -0.546069
      16A     -0.521571    17A     -0.508505    18A     -0.492615
      19A     -0.473317    20A     -0.455676    21A     -0.378618

  @DF-RHF Final Energy:  -212.36893861708703

   => Energetics <=

    Nuclear Repulsion Energy =            188.7474238332361836
    One-Electron Energy =                -659.9145488437836775
    Two-Electron Energy =                 258.7981863934604689
    Total Energy =                       -212.3689386170869966
  Basis Set: (AUG-CC-PVTZ AUX)
    Blend: AUG-CC-PVTZ-RI
    Molecular point group: c1

    Geometry (in Angstrom), charge = 0, multiplicity = 1:

       Center              X                  Y                   Z               Mass
    ------------   -----------------  -----------------  -----------------  -----------------
         N           -0.026201953508    -0.218323401303    -0.171159514543    14.003074004430
         C           -1.209244853508     0.507350798697     0.055883285457    12.000000000000
         C            1.221668146492     0.507350798697     0.055928285457    12.000000000000
         C           -2.442252853508    -0.381404201303     0.001437285457    12.000000000000
         C            2.454671146492    -0.381403201303     0.001417285457    12.000000000000
         H           -1.232923853508     1.129738798697     0.969394285457     1.007825032230
         H           -1.214520853508     1.200650798697    -0.793270714543     1.007825032230
         H            1.226932146492     1.200701798697    -0.793182714543     1.007825032230
         H            1.245342146492     1.129676798697     0.969478285457     1.007825032230
         H            0.006194146492    -0.971582201303     0.723825285457     1.007825032230
         H           -2.435740853508    -0.975207201303    -0.915142714543     1.007825032230
         H           -2.465360853508    -1.068401201303     0.853733285457     1.007825032230
         H           -3.357936853508     0.216116798697     0.029761285457     1.007825032230
         H            2.477771146492    -1.068470201303     0.853658285457     1.007825032230
         H            2.448159146492    -0.975132201303    -0.915209714543     1.007825032230
         H            3.370359146492     0.216108798697     0.029795285457     1.007825032230

  Basis Set: AUG-CC-PVTZ
    Blend: AUG-CC-PVTZ
  Basis Set: (AUG-CC-PVTZ AUX)
    Blend: AUG-CC-PVTZ-JKFIT
	 Reference Energy          =    -212.3689386170870250 [Eh]
	 Singles Energy            =      -0.0000000000000000 [Eh]
	 Same-Spin Energy          =      -0.2236235237067715 [Eh]
	 Opposite-Spin Energy      =      -0.8162954561455510 [Eh]
	 Correlation Energy        =      -1.0399189798523225 [Eh]
	 Total Energy              =    -213.4088575969393560 [Eh]

	 ================> DF-SCS-MP2 Energies <==================
	-----------------------------------------------------------
	 SCS Same-Spin Scale       =       0.3333333333333333 [-]
	 SCS Opposite-Spin Scale   =       1.2000000000000000 [-]
	 SCS Same-Spin Energy      =      -0.0745411745689238 [Eh]
	 SCS Opposite-Spin Energy  =      -0.9795545473746612 [Eh]
	 SCS Correlation Energy    =      -1.0540957219435849 [Eh]
	 SCS Total Energy          =    -213.4230343390306075 [Eh]
	-----------------------------------------------------------

  Dipole Moment: [D]
     X:     0.1272      Y:     0.4066      Z:     1.0024     Total:     1.0892

*** Psi4 exiting successfully. Buy a developer a beer!
