                               Psi4 1.3.2 release

  ==> Input File <==

--------------------------------------------------------------------------
#psi4
#
memory 32 gb

molecule  {
0 1
  N        0.0595023    -0.3673997    -0.0837910
  C       -1.2154540     0.5201510     0.0227920
  C        1.2154590     0.5201510     0.0228370
  C       -2.4484620    -0.3686040    -0.0316540
  C        2.4484620    -0.3686030    -0.0316740
  H       -1.2391330     1.1425390     0.9363030
  H       -1.2207300     1.2134510    -0.8263620
  H        1.2207230     1.2135020    -0.8262740
  H        1.2391330     1.1424770     0.9363870
  H       -0.0000150    -0.9587820     0.6907340
  H       -2.4419500    -0.9624070    -0.9482340
  H       -2.4715700    -1.0556010     0.8206420
  H       -3.3641460     0.2289170    -0.0033300
  H        2.4715620    -1.0556700     0.8205670
  H        2.4419500    -0.9623320    -0.9483010
  H        3.3641500     0.2289090    -0.0032960
units angstrom
no_reorient  #important for SAPT in psi4, default
symmetry c1  #important for SAPT in psi4, default
}

set PROPERTIES_ORIGIN ["COM"]
properties('MP2/aug-cc-pvtz', properties = ['dipole'])
--------------------------------------------------------------------------

    Molecular point group: c1
  Charge       = 0
  Multiplicity = 1
  Basis Set: AUG-CC-PVTZ
    Blend: AUG-CC-PVTZ
  Basis Set: (AUG-CC-PVTZ AUX)
    Blend: AUG-CC-PVTZ-JKFIT

    Orbital Energies [Eh]
    ---------------------

    Doubly Occupied:

       1A    -15.540421     2A    -11.250599     3A    -11.243125
       4A    -11.212136     5A    -11.206828     6A     -1.193054
       7A     -1.022914     8A     -0.961898     9A     -0.825924
      10A     -0.820513    11A     -0.658912    12A     -0.619665
      13A     -0.597021    14A     -0.578783    15A     -0.553074
      16A     -0.518964    17A     -0.505368    18A     -0.494611
      19A     -0.479349    20A     -0.453334    21A     -0.381268

  @DF-RHF Final Energy:  -212.38579732335717

   => Energetics <=

    Nuclear Repulsion Energy =            187.6611780213505938
    One-Electron Energy =                -657.8584237464393709
    Two-Electron Energy =                 257.8114484017316386
    Total Energy =                       -212.3857973233571670
  Basis Set: (AUG-CC-PVTZ AUX)
    Blend: AUG-CC-PVTZ-RI
    Molecular point group: c1

    Geometry (in Angstrom), charge = 0, multiplicity = 1:

       Center              X                  Y                   Z               Mass
    ------------   -----------------  -----------------  -----------------  -----------------
         N            0.048101853912    -0.349186151260    -0.073778482168    14.003074004430
         C           -1.226854446088     0.538364548740     0.032804517832    12.000000000000
         C            1.204058553912     0.538364548740     0.032849517832    12.000000000000
         C           -2.459862446088    -0.350390451260    -0.021641482168    12.000000000000
         C            2.437061553912    -0.350389451260    -0.021661482168    12.000000000000
         H           -1.250533446088     1.160752548740     0.946315517832     1.007825032230
         H           -1.232130446088     1.231664548740    -0.816349482168     1.007825032230
         H            1.209322553912     1.231715548740    -0.816261482168     1.007825032230
         H            1.227732553912     1.160690548740     0.946399517832     1.007825032230
         H           -0.011415446088    -0.940568451260     0.700746517832     1.007825032230
         H           -2.453350446088    -0.944193451260    -0.938221482168     1.007825032230
         H           -2.482970446088    -1.037387451260     0.830654517832     1.007825032230
         H           -3.375546446088     0.247130548740     0.006682517832     1.007825032230
         H            2.460161553912    -1.037456451260     0.830579517832     1.007825032230
         H            2.430549553912    -0.944118451260    -0.938288482168     1.007825032230
         H            3.352749553912     0.247122548740     0.006716517832     1.007825032230

  Basis Set: AUG-CC-PVTZ
    Blend: AUG-CC-PVTZ
  Basis Set: (AUG-CC-PVTZ AUX)
    Blend: AUG-CC-PVTZ-JKFIT
	 Reference Energy          =    -212.3857973233571670 [Eh]
	 Singles Energy            =      -0.0000000000000000 [Eh]
	 Same-Spin Energy          =      -0.2218989369481162 [Eh]
	 Opposite-Spin Energy      =      -0.8136395988600778 [Eh]
	 Correlation Energy        =      -1.0355385358081939 [Eh]
	 Total Energy              =    -213.4213358591653673 [Eh]

	 ================> DF-SCS-MP2 Energies <==================
	-----------------------------------------------------------
	 SCS Same-Spin Scale       =       0.3333333333333333 [-]
	 SCS Opposite-Spin Scale   =       1.2000000000000000 [-]
	 SCS Same-Spin Energy      =      -0.0739663123160387 [Eh]
	 SCS Opposite-Spin Energy  =      -0.9763675186320933 [Eh]
	 SCS Correlation Energy    =      -1.0503338309481320 [Eh]
	 SCS Total Energy          =    -213.4361311543052864 [Eh]
	-----------------------------------------------------------

  Dipole Moment: [D]
     X:    -0.2122      Y:     0.6510      Z:     0.9681     Total:     1.1858

*** Psi4 exiting successfully. Buy a developer a beer!
