                               Psi4 1.3.2 release

  ==> Input File <==

--------------------------------------------------------------------------
#psi4
#
memory 32 gb

molecule  {
0 1
  N        0.0000000    -0.2847960    -0.0775200
  C       -1.2403043     0.4658604     0.1054848
  C        1.2154590     0.5201510     0.0228370
  C       -2.4484620    -0.3686040    -0.0316540
  C        2.4484620    -0.3686030    -0.0316740
  H       -1.2391330     1.1425390     0.9363030
  H       -1.2207300     1.2134510    -0.8263620
  H        1.2207230     1.2135020    -0.8262740
  H        1.2391330     1.1424770     0.9363870
  H       -0.0000150    -0.9587820     0.6907340
  H       -2.4419500    -0.9624070    -0.9482340
  H       -2.4715700    -1.0556010     0.8206420
  H       -3.3641460     0.2289170    -0.0033300
  H        2.4715620    -1.0556700     0.8205670
  H        2.4419500    -0.9623320    -0.9483010
  H        3.3641500     0.2289090    -0.0032960
units angstrom
no_reorient  #important for SAPT in psi4, default
symmetry c1  #important for SAPT in psi4, default
}

set PROPERTIES_ORIGIN ["COM"]
properties('MP2/aug-cc-pvtz', properties = ['dipole'])
--------------------------------------------------------------------------

    Molecular point group: c1
  Charge       = 0
  Multiplicity = 1
  Basis Set: AUG-CC-PVTZ
    Blend: AUG-CC-PVTZ
  Basis Set: (AUG-CC-PVTZ AUX)
    Blend: AUG-CC-PVTZ-JKFIT

    Orbital Energies [Eh]
    ---------------------

    Doubly Occupied:

       1A    -15.540295     2A    -11.247504     3A    -11.245662
       4A    -11.211881     5A    -11.210470     6A     -1.205214
       7A     -1.032946     8A     -0.966416     9A     -0.827821
      10A     -0.812050    11A     -0.661994    12A     -0.631268
      13A     -0.597322    14A     -0.584438    15A     -0.556207
      16A     -0.525834    17A     -0.508096    18A     -0.486100
      19A     -0.481822    20A     -0.453235    21A     -0.372938

  @DF-RHF Final Energy:  -212.38364403213427

   => Energetics <=

    Nuclear Repulsion Energy =            188.7902623601524397
    One-Electron Energy =                -660.0287871354817071
    Two-Electron Energy =                 258.8548807431949967
    Total Energy =                       -212.3836440321342707
  Basis Set: (AUG-CC-PVTZ AUX)
    Blend: AUG-CC-PVTZ-RI
    Molecular point group: c1

    Geometry (in Angstrom), charge = 0, multiplicity = 1:

       Center              X                  Y                   Z               Mass
    ------------   -----------------  -----------------  -----------------  -----------------
         N            0.004079535828    -0.273494811420    -0.082285693251    14.003074004430
         C           -1.236224764172     0.477161588580     0.100719106749    12.000000000000
         C            1.219538535828     0.531452188580     0.018071306749    12.000000000000
         C           -2.444382464172    -0.357302811420    -0.036419693251    12.000000000000
         C            2.452541535828    -0.357301811420    -0.036439693251    12.000000000000
         H           -1.235053464172     1.153840188580     0.931537306749     1.007825032230
         H           -1.216650464172     1.224752188580    -0.831127693251     1.007825032230
         H            1.224802535828     1.224803188580    -0.831039693251     1.007825032230
         H            1.243212535828     1.153778188580     0.931621306749     1.007825032230
         H            0.004064535828    -0.947480811420     0.685968306749     1.007825032230
         H           -2.437870464172    -0.951105811420    -0.952999693251     1.007825032230
         H           -2.467490464172    -1.044299811420     0.815876306749     1.007825032230
         H           -3.360066464172     0.240218188580    -0.008095693251     1.007825032230
         H            2.475641535828    -1.044368811420     0.815801306749     1.007825032230
         H            2.446029535828    -0.951030811420    -0.953066693251     1.007825032230
         H            3.368229535828     0.240210188580    -0.008061693251     1.007825032230

  Basis Set: AUG-CC-PVTZ
    Blend: AUG-CC-PVTZ
  Basis Set: (AUG-CC-PVTZ AUX)
    Blend: AUG-CC-PVTZ-JKFIT
	 Reference Energy          =    -212.3836440321342707 [Eh]
	 Singles Energy            =      -0.0000000000000000 [Eh]
	 Same-Spin Energy          =      -0.2225834840140167 [Eh]
	 Opposite-Spin Energy      =      -0.8135453597612448 [Eh]
	 Correlation Energy        =      -1.0361288437752614 [Eh]
	 Total Energy              =    -213.4197728759095298 [Eh]

	 ================> DF-SCS-MP2 Energies <==================
	-----------------------------------------------------------
	 SCS Same-Spin Scale       =       0.3333333333333333 [-]
	 SCS Opposite-Spin Scale   =       1.2000000000000000 [-]
	 SCS Same-Spin Energy      =      -0.0741944946713389 [Eh]
	 SCS Opposite-Spin Energy  =      -0.9762544317134937 [Eh]
	 SCS Correlation Energy    =      -1.0504489263848327 [Eh]
	 SCS Total Energy          =    -213.4340929585191020 [Eh]
	-----------------------------------------------------------

  Dipole Moment: [D]
     X:     0.0112      Y:     0.3914      Z:     1.0006     Total:     1.0745

*** Psi4 exiting successfully. Buy a developer a beer!
