                               Psi4 1.3.2 release

  ==> Input File <==

--------------------------------------------------------------------------
#psi4
#
memory 32 gb

molecule  {
0 1
  N       -0.0231121    -0.2328756    -0.1622155
  C       -1.2154540     0.5201510     0.0227920
  C        1.2154590     0.5201510     0.0228370
  C       -2.4484620    -0.3686040    -0.0316540
  C        2.4484620    -0.3686030    -0.0316740
  H       -1.2391330     1.1425390     0.9363030
  H       -1.2207300     1.2134510    -0.8263620
  H        1.2207230     1.2135020    -0.8262740
  H        1.2391330     1.1424770     0.9363870
  H       -0.0000150    -0.9587820     0.6907340
  H       -2.4419500    -0.9624070    -0.9482340
  H       -2.4715700    -1.0556010     0.8206420
  H       -3.3641460     0.2289170    -0.0033300
  H        2.4715620    -1.0556700     0.8205670
  H        2.4419500    -0.9623320    -0.9483010
  H        3.3641500     0.2289090    -0.0032960
units angstrom
no_reorient  #important for SAPT in psi4, default
symmetry c1  #important for SAPT in psi4, default
}

set PROPERTIES_ORIGIN ["COM"]
properties('MP2/aug-cc-pvtz', properties = ['dipole'])
--------------------------------------------------------------------------

    Molecular point group: c1
  Charge       = 0
  Multiplicity = 1
  Basis Set: AUG-CC-PVTZ
    Blend: AUG-CC-PVTZ
  Basis Set: (AUG-CC-PVTZ AUX)
    Blend: AUG-CC-PVTZ-JKFIT

    Orbital Energies [Eh]
    ---------------------

    Doubly Occupied:

       1A    -15.550291     2A    -11.245686     3A    -11.241901
       4A    -11.213229     5A    -11.210920     6A     -1.207804
       7A     -1.029401     8A     -0.959410     9A     -0.832450
      10A     -0.804905    11A     -0.662863    12A     -0.631181
      13A     -0.597285    14A     -0.581574    15A     -0.547939
      16A     -0.520920    17A     -0.507567    18A     -0.488571
      19A     -0.474078    20A     -0.466942    21A     -0.375686

  @DF-RHF Final Energy:  -212.38177236060912

   => Energetics <=

    Nuclear Repulsion Energy =            188.7018712606885060
    One-Electron Energy =                -659.8660827656973424
    Two-Electron Energy =                 258.7824391443997456
    Total Energy =                       -212.3817723606090908
  Basis Set: (AUG-CC-PVTZ AUX)
    Blend: AUG-CC-PVTZ-RI
    Molecular point group: c1

    Geometry (in Angstrom), charge = 0, multiplicity = 1:

       Center              X                  Y                   Z               Mass
    ------------   -----------------  -----------------  -----------------  -----------------
         N           -0.018684539234    -0.240435383475    -0.137177713891    14.003074004430
         C           -1.211026439234     0.512591216525     0.047829786109    12.000000000000
         C            1.219886560766     0.512591216525     0.047874786109    12.000000000000
         C           -2.444034439234    -0.376163783475    -0.006616213891    12.000000000000
         C            2.452889560766    -0.376162783475    -0.006636213891    12.000000000000
         H           -1.234705439234     1.134979216525     0.961340786109     1.007825032230
         H           -1.216302439234     1.205891216525    -0.801324213891     1.007825032230
         H            1.225150560766     1.205942216525    -0.801236213891     1.007825032230
         H            1.243560560766     1.134917216525     0.961424786109     1.007825032230
         H            0.004412560766    -0.966341783475     0.715771786109     1.007825032230
         H           -2.437522439234    -0.969966783475    -0.923196213891     1.007825032230
         H           -2.467142439234    -1.063160783475     0.845679786109     1.007825032230
         H           -3.359718439234     0.221357216525     0.021707786109     1.007825032230
         H            2.475989560766    -1.063229783475     0.845604786109     1.007825032230
         H            2.446377560766    -0.969891783475    -0.923263213891     1.007825032230
         H            3.368577560766     0.221349216525     0.021741786109     1.007825032230

  Basis Set: AUG-CC-PVTZ
    Blend: AUG-CC-PVTZ
  Basis Set: (AUG-CC-PVTZ AUX)
    Blend: AUG-CC-PVTZ-JKFIT
	 Reference Energy          =    -212.3817723606091192 [Eh]
	 Singles Energy            =      -0.0000000000000000 [Eh]
	 Same-Spin Energy          =      -0.2230214864798102 [Eh]
	 Opposite-Spin Energy      =      -0.8147824140508648 [Eh]
	 Correlation Energy        =      -1.0378039005306752 [Eh]
	 Total Energy              =    -213.4195762611397811 [Eh]

	 ================> DF-SCS-MP2 Energies <==================
	-----------------------------------------------------------
	 SCS Same-Spin Scale       =       0.3333333333333333 [-]
	 SCS Opposite-Spin Scale   =       1.2000000000000000 [-]
	 SCS Same-Spin Energy      =      -0.0743404954932701 [Eh]
	 SCS Opposite-Spin Energy  =      -0.9777388968610378 [Eh]
	 SCS Correlation Energy    =      -1.0520793923543079 [Eh]
	 SCS Total Energy          =    -213.4338517529634203 [Eh]
	-----------------------------------------------------------

  Dipole Moment: [D]
     X:     0.0918      Y:     0.4093      Z:     0.9730     Total:     1.0595

*** Psi4 exiting successfully. Buy a developer a beer!
