                               Psi4 1.3.2 release

  ==> Input File <==

--------------------------------------------------------------------------
#psi4
#
memory 32 gb

molecule  {
0 1
  N        0.0000000    -0.2847960    -0.0775200
  C       -1.1671213     0.5941564    -0.1020370
  C        1.2154590     0.5201510     0.0228370
  C       -2.4484620    -0.3686040    -0.0316540
  C        2.4484620    -0.3686030    -0.0316740
  H       -1.2391330     1.1425390     0.9363030
  H       -1.2207300     1.2134510    -0.8263620
  H        1.2207230     1.2135020    -0.8262740
  H        1.2391330     1.1424770     0.9363870
  H       -0.0000150    -0.9587820     0.6907340
  H       -2.4419500    -0.9624070    -0.9482340
  H       -2.4715700    -1.0556010     0.8206420
  H       -3.3641460     0.2289170    -0.0033300
  H        2.4715620    -1.0556700     0.8205670
  H        2.4419500    -0.9623320    -0.9483010
  H        3.3641500     0.2289090    -0.0032960
units angstrom
no_reorient  #important for SAPT in psi4, default
symmetry c1  #important for SAPT in psi4, default
}

set PROPERTIES_ORIGIN ["COM"]
properties('MP2/aug-cc-pvtz', properties = ['dipole'])
--------------------------------------------------------------------------

    Molecular point group: c1
  Charge       = 0
  Multiplicity = 1
  Basis Set: AUG-CC-PVTZ
    Blend: AUG-CC-PVTZ
  Basis Set: (AUG-CC-PVTZ AUX)
    Blend: AUG-CC-PVTZ-JKFIT

    Orbital Energies [Eh]
    ---------------------

    Doubly Occupied:

       1A    -15.539246     2A    -11.245490     3A    -11.242796
       4A    -11.213893     5A    -11.209897     6A     -1.202552
       7A     -1.019730     8A     -0.953613     9A     -0.842844
      10A     -0.821622    11A     -0.656745    12A     -0.633270
      13A     -0.596150    14A     -0.585807    15A     -0.547427
      16A     -0.526046    17A     -0.515184    18A     -0.497693
      19A     -0.479968    20A     -0.447760    21A     -0.362602

  @DF-RHF Final Energy:  -212.36600641558371

   => Energetics <=

    Nuclear Repulsion Energy =            188.2211994419419625
    One-Electron Energy =                -658.8937408356549668
    Two-Electron Energy =                 258.3065349781293207
    Total Energy =                       -212.3660064155836835
  Basis Set: (AUG-CC-PVTZ AUX)
    Blend: AUG-CC-PVTZ-RI
    Molecular point group: c1

    Geometry (in Angstrom), charge = 0, multiplicity = 1:

       Center              X                  Y                   Z               Mass
    ------------   -----------------  -----------------  -----------------  -----------------
         N           -0.007935872857    -0.294558840944    -0.048214129662    14.003074004430
         C           -1.175057172857     0.584393559056    -0.072731129662    12.000000000000
         C            1.207523127143     0.510388159056     0.052142870338    12.000000000000
         C           -2.456397872857    -0.378366840944    -0.002348129662    12.000000000000
         C            2.440526127143    -0.378365840944    -0.002368129662    12.000000000000
         H           -1.247068872857     1.132776159056     0.965608870338     1.007825032230
         H           -1.228665872857     1.203688159056    -0.797056129662     1.007825032230
         H            1.212787127143     1.203739159056    -0.796968129662     1.007825032230
         H            1.231197127143     1.132714159056     0.965692870338     1.007825032230
         H           -0.007950872857    -0.968544840944     0.720039870338     1.007825032230
         H           -2.449885872857    -0.972169840944    -0.918928129662     1.007825032230
         H           -2.479505872857    -1.065363840944     0.849947870338     1.007825032230
         H           -3.372081872857     0.219154159056     0.025975870338     1.007825032230
         H            2.463626127143    -1.065432840944     0.849872870338     1.007825032230
         H            2.434014127143    -0.972094840944    -0.918995129662     1.007825032230
         H            3.356214127143     0.219146159056     0.026009870338     1.007825032230

  Basis Set: AUG-CC-PVTZ
    Blend: AUG-CC-PVTZ
  Basis Set: (AUG-CC-PVTZ AUX)
    Blend: AUG-CC-PVTZ-JKFIT
	 Reference Energy          =    -212.3660064155837119 [Eh]
	 Singles Energy            =      -0.0000000000000000 [Eh]
	 Same-Spin Energy          =      -0.2220040531794680 [Eh]
	 Opposite-Spin Energy      =      -0.8133886160471523 [Eh]
	 Correlation Energy        =      -1.0353926692266202 [Eh]
	 Total Energy              =    -213.4013990848103219 [Eh]

	 ================> DF-SCS-MP2 Energies <==================
	-----------------------------------------------------------
	 SCS Same-Spin Scale       =       0.3333333333333333 [-]
	 SCS Opposite-Spin Scale   =       1.2000000000000000 [-]
	 SCS Same-Spin Energy      =      -0.0740013510598227 [Eh]
	 SCS Opposite-Spin Energy  =      -0.9760663392565827 [Eh]
	 SCS Correlation Energy    =      -1.0500676903164055 [Eh]
	 SCS Total Energy          =    -213.4160741059001225 [Eh]
	-----------------------------------------------------------

  Dipole Moment: [D]
     X:     0.0227      Y:     0.4389      Z:     0.7580     Total:     0.8762

*** Psi4 exiting successfully. Buy a developer a beer!
