                               Psi4 1.4a3.dev225

  ==> Input File <==

--------------------------------------------------------------------------
#psi4
#
memory 32 gb

molecule  {
0 1
  N        0.0000000    -0.2847950    -0.0775760
  C       -1.2154030     0.5201030     0.0228060
  C        1.2154030     0.5201010     0.0228200
  C       -2.4484650    -0.3685770    -0.0316320
  C        2.4484650    -0.3685770    -0.0316380
  H       -1.2391130     1.1424540     0.9363620
  H       -1.2207100     1.2134400    -0.8263160
  H        1.2207070     1.2134550    -0.8262890
  H        1.2391140     1.1424360     0.9363880
  H       -0.0000048    -0.9259570     0.6529539
  H       -2.4420630    -0.9624210    -0.9481910
  H       -2.4717160    -1.0555150     0.8206980
  H       -3.3640250     0.2291450    -0.0033800
  H        2.4717150    -1.0555360     0.8206740
  H        2.4420660    -0.9623970    -0.9482130
  H        3.3640260     0.2291450    -0.0033680
units angstrom
no_reorient  #important for SAPT in psi4, default
symmetry c1  #important for SAPT in psi4, default
}

set PROPERTIES_ORIGIN ["COM"]
properties('MP2/aug-cc-pvtz', properties = ['dipole'])
--------------------------------------------------------------------------

    Molecular point group: c1
  Charge       = 0
  Multiplicity = 1
  Basis Set: AUG-CC-PVTZ
    Blend: AUG-CC-PVTZ
  Basis Set: (AUG-CC-PVTZ AUX)
    Blend: AUG-CC-PVTZ-JKFIT

    Orbital Energies [Eh]
    ---------------------

    Doubly Occupied:

       1A    -15.532659     2A    -11.244007     3A    -11.243991
       4A    -11.210997     5A    -11.210996     6A     -1.208981
       7A     -1.026565     8A     -0.963147     9A     -0.827197
      10A     -0.823979    11A     -0.663228    12A     -0.626426
      13A     -0.597114    14A     -0.588068    15A     -0.553427
      16A     -0.520399    17A     -0.506427    18A     -0.489243
      19A     -0.480791    20A     -0.471679    21A     -0.370522

  @DF-RHF Final Energy:  -212.39490445351848

   => Energetics <=

    Nuclear Repulsion Energy =            188.8354086144447876
    One-Electron Energy =                -660.1409409768715477
    Two-Electron Energy =                 258.9106279089083387
    Total Energy =                       -212.3949044535184498
  Basis Set: (AUG-CC-PVTZ AUX)
    Blend: AUG-CC-PVTZ-RI
    Molecular point group: c1

    Geometry (in Angstrom), charge = 0, multiplicity = 1:

       Center              X                  Y                   Z               Mass
    ------------   -----------------  -----------------  -----------------  -----------------
         N            0.000000052398    -0.282858639990    -0.068245914962    14.003074004430
         C           -1.215402947602     0.522039360010     0.032136085038    12.000000000000
         C            1.215403052398     0.522037360010     0.032150085038    12.000000000000
         C           -2.448464947602    -0.366640639990    -0.022301914962    12.000000000000
         C            2.448465052398    -0.366640639990    -0.022307914962    12.000000000000
         H           -1.239112947602     1.144390360010     0.945692085038     1.007825032230
         H           -1.220709947602     1.215376360010    -0.816985914962     1.007825032230
         H            1.220707052398     1.215391360010    -0.816958914962     1.007825032230
         H            1.239114052398     1.144372360010     0.945718085038     1.007825032230
         H           -0.000004747602    -0.924020639990     0.662283985038     1.007825032230
         H           -2.442062947602    -0.960484639990    -0.938860914962     1.007825032230
         H           -2.471715947602    -1.053578639990     0.830028085038     1.007825032230
         H           -3.364024947602     0.231081360010     0.005950085038     1.007825032230
         H            2.471715052398    -1.053599639990     0.830004085038     1.007825032230
         H            2.442066052398    -0.960460639990    -0.938882914962     1.007825032230
         H            3.364026052398     0.231081360010     0.005962085038     1.007825032230

  Basis Set: AUG-CC-PVTZ
    Blend: AUG-CC-PVTZ
  Basis Set: (AUG-CC-PVTZ AUX)
    Blend: AUG-CC-PVTZ-JKFIT
	 Reference Energy          =    -212.3949044535184782 [Eh]
	 Singles Energy            =      -0.0000000000000000 [Eh]
	 Same-Spin Energy          =      -0.2216961936521881 [Eh]
	 Opposite-Spin Energy      =      -0.8116504864235813 [Eh]
	 Correlation Energy        =      -1.0333466800757694 [Eh]
	 Total Energy              =    -213.4282511335942445 [Eh]

	 ================> DF-SCS-MP2 Energies <==================
	-----------------------------------------------------------
	 SCS Same-Spin Scale       =       0.3333333333333333 [-]
	 SCS Opposite-Spin Scale   =       1.2000000000000000 [-]
	 SCS Same-Spin Energy      =      -0.0738987312173960 [Eh]
	 SCS Opposite-Spin Energy  =      -0.9739805837082975 [Eh]
	 SCS Correlation Energy    =      -1.0478793149256935 [Eh]
	 SCS Total Energy          =    -213.4427837684441727 [Eh]
	-----------------------------------------------------------

  Dipole Moment: [D]
     X:    -0.0000      Y:     0.4466      Z:     0.8929     Total:     0.9983

*** Psi4 exiting successfully. Buy a developer a beer!
