                               Psi4 1.3.2 release

  ==> Input File <==

--------------------------------------------------------------------------
#psi4
#
memory 32 gb

molecule  {
0 1
  N        0.0000000    -0.2847960    -0.0775200
  C       -1.2154540     0.5201510     0.0227920
  C        1.2154590     0.5201510     0.0228370
  C       -2.4484620    -0.3686040    -0.0316540
  C        2.4484620    -0.3686030    -0.0316740
  H       -1.2391330     1.1425390     0.9363030
  H       -1.2207300     1.2134510    -0.8263620
  H        1.2207230     1.2135020    -0.8262740
  H        1.2391330     1.1424770     0.9363870
  H       -0.0000135    -0.8928339     0.6155619
  H       -2.4419500    -0.9624070    -0.9482340
  H       -2.4715700    -1.0556010     0.8206420
  H       -3.3641460     0.2289170    -0.0033300
  H        2.4715620    -1.0556700     0.8205670
  H        2.4419500    -0.9623320    -0.9483010
  H        3.3641500     0.2289090    -0.0032960
units angstrom
no_reorient  #important for SAPT in psi4, default
symmetry c1  #important for SAPT in psi4, default
}

set PROPERTIES_ORIGIN ["COM"]
properties('MP2/aug-cc-pvtz', properties = ['dipole'])
--------------------------------------------------------------------------

    Molecular point group: c1
  Charge       = 0
  Multiplicity = 1
  Basis Set: AUG-CC-PVTZ
    Blend: AUG-CC-PVTZ
  Basis Set: (AUG-CC-PVTZ AUX)
    Blend: AUG-CC-PVTZ-JKFIT

    Orbital Energies [Eh]
    ---------------------

    Doubly Occupied:

       1A    -15.526453     2A    -11.243893     3A    -11.243877
       4A    -11.211106     5A    -11.211105     6A     -1.216008
       7A     -1.026652     8A     -0.965923     9A     -0.830444
      10A     -0.827208    11A     -0.666020    12A     -0.626628
      13A     -0.597165    14A     -0.591215    15A     -0.554699
      16A     -0.520901    17A     -0.506550    18A     -0.490781
      19A     -0.480752    20A     -0.471758    21A     -0.371235

  @DF-RHF Final Energy:  -212.38925871139836

   => Energetics <=

    Nuclear Repulsion Energy =            189.1264918851857146
    One-Electron Energy =                -660.6707524756009207
    Two-Electron Energy =                 259.1550018790168224
    Total Energy =                       -212.3892587113983836
  Basis Set: (AUG-CC-PVTZ AUX)
    Blend: AUG-CC-PVTZ-RI
    Molecular point group: c1

    Geometry (in Angstrom), charge = 0, multiplicity = 1:

       Center              X                  Y                   Z               Mass
    ------------   -----------------  -----------------  -----------------  -----------------
         N           -0.000000483085    -0.283317765337    -0.067672389724    14.003074004430
         C           -1.215454483085     0.521629234663     0.032639610276    12.000000000000
         C            1.215458516915     0.521629234663     0.032684610276    12.000000000000
         C           -2.448462483085    -0.367125765337    -0.021806389724    12.000000000000
         C            2.448461516915    -0.367124765337    -0.021826389724    12.000000000000
         H           -1.239133483085     1.144017234663     0.946150610276     1.007825032230
         H           -1.220730483085     1.214929234663    -0.816514389724     1.007825032230
         H            1.220722516915     1.214980234663    -0.816426389724     1.007825032230
         H            1.239132516915     1.143955234663     0.946234610276     1.007825032230
         H           -0.000013983085    -0.891355665337     0.625409510276     1.007825032230
         H           -2.441950483085    -0.960928765337    -0.938386389724     1.007825032230
         H           -2.471570483085    -1.054122765337     0.830489610276     1.007825032230
         H           -3.364146483085     0.230395234663     0.006517610276     1.007825032230
         H            2.471561516915    -1.054191765337     0.830414610276     1.007825032230
         H            2.441949516915    -0.960853765337    -0.938453389724     1.007825032230
         H            3.364149516915     0.230387234663     0.006551610276     1.007825032230

  Basis Set: AUG-CC-PVTZ
    Blend: AUG-CC-PVTZ
  Basis Set: (AUG-CC-PVTZ AUX)
    Blend: AUG-CC-PVTZ-JKFIT
	 Reference Energy          =    -212.3892587113983552 [Eh]
	 Singles Energy            =      -0.0000000000000000 [Eh]
	 Same-Spin Energy          =      -0.2214024081712320 [Eh]
	 Opposite-Spin Energy      =      -0.8109008380790795 [Eh]
	 Correlation Energy        =      -1.0323032462503114 [Eh]
	 Total Energy              =    -213.4215619576486631 [Eh]

	 ================> DF-SCS-MP2 Energies <==================
	-----------------------------------------------------------
	 SCS Same-Spin Scale       =       0.3333333333333333 [-]
	 SCS Opposite-Spin Scale   =       1.2000000000000000 [-]
	 SCS Same-Spin Energy      =      -0.0738008027237440 [Eh]
	 SCS Opposite-Spin Energy  =      -0.9730810056948954 [Eh]
	 SCS Correlation Energy    =      -1.0468818084186393 [Eh]
	 SCS Total Energy          =    -213.4361405198170019 [Eh]
	-----------------------------------------------------------

  Dipole Moment: [D]
     X:    -0.0000      Y:     0.4511      Z:     0.8884     Total:     0.9964

*** Psi4 exiting successfully. Buy a developer a beer!
