                               Psi4 1.3.2 release

  ==> Input File <==

--------------------------------------------------------------------------
#psi4
#
memory 32 gb

molecule  {
0 1
  N        0.0000000    -0.2847960    -0.0775200
  C       -1.0490990     0.4099807     0.0090626
  C        1.2154590     0.5201510     0.0228370
  C       -2.4484620    -0.3686040    -0.0316540
  C        2.4484620    -0.3686030    -0.0316740
  H       -1.2391330     1.1425390     0.9363030
  H       -1.2207300     1.2134510    -0.8263620
  H        1.2207230     1.2135020    -0.8262740
  H        1.2391330     1.1424770     0.9363870
  H       -0.0000150    -0.9587820     0.6907340
  H       -2.4419500    -0.9624070    -0.9482340
  H       -2.4715700    -1.0556010     0.8206420
  H       -3.3641460     0.2289170    -0.0033300
  H        2.4715620    -1.0556700     0.8205670
  H        2.4419500    -0.9623320    -0.9483010
  H        3.3641500     0.2289090    -0.0032960
units angstrom
no_reorient  #important for SAPT in psi4, default
symmetry c1  #important for SAPT in psi4, default
}

set PROPERTIES_ORIGIN ["COM"]
properties('MP2/aug-cc-pvtz', properties = ['dipole'])
--------------------------------------------------------------------------

    Molecular point group: c1
  Charge       = 0
  Multiplicity = 1
  Basis Set: AUG-CC-PVTZ
    Blend: AUG-CC-PVTZ
  Basis Set: (AUG-CC-PVTZ AUX)
    Blend: AUG-CC-PVTZ-JKFIT

    Orbital Energies [Eh]
    ---------------------

    Doubly Occupied:

       1A    -15.543883     2A    -11.253318     3A    -11.252401
       4A    -11.216740     5A    -11.211120     6A     -1.271617
       7A     -1.030845     8A     -0.954440     9A     -0.841793
      10A     -0.812948    11A     -0.678468    12A     -0.651886
      13A     -0.610680    14A     -0.586995    15A     -0.552488
      16A     -0.525314    17A     -0.518015    18A     -0.502362
      19A     -0.471151    20A     -0.437827    21A     -0.356360

  @DF-RHF Final Energy:  -212.34670736635331

   => Energetics <=

    Nuclear Repulsion Energy =            190.9916747926317839
    One-Electron Energy =                -664.1154648543021040
    Two-Electron Energy =                 260.7770826953170058
    Total Energy =                       -212.3467073663533142
  Basis Set: (AUG-CC-PVTZ AUX)
    Blend: AUG-CC-PVTZ-RI
    Molecular point group: c1

    Geometry (in Angstrom), charge = 0, multiplicity = 1:

       Center              X                  Y                   Z               Mass
    ------------   -----------------  -----------------  -----------------  -----------------
         N           -0.027313134905    -0.264320311431    -0.066454801659    14.003074004430
         C           -1.076412134905     0.430456388569     0.020127798341    12.000000000000
         C            1.188145865095     0.540626688569     0.033902198341    12.000000000000
         C           -2.475775134905    -0.348128311431    -0.020588801659    12.000000000000
         C            2.421148865095    -0.348127311431    -0.020608801659    12.000000000000
         H           -1.266446134905     1.163014688569     0.947368198341     1.007825032230
         H           -1.248043134905     1.233926688569    -0.815296801659     1.007825032230
         H            1.193409865095     1.233977688569    -0.815208801659     1.007825032230
         H            1.211819865095     1.162952688569     0.947452198341     1.007825032230
         H           -0.027328134905    -0.938306311431     0.701799198341     1.007825032230
         H           -2.469263134905    -0.941931311431    -0.937168801659     1.007825032230
         H           -2.498883134905    -1.035125311431     0.831707198341     1.007825032230
         H           -3.391459134905     0.249392688569     0.007735198341     1.007825032230
         H            2.444248865095    -1.035194311431     0.831632198341     1.007825032230
         H            2.414636865095    -0.941856311431    -0.937235801659     1.007825032230
         H            3.336836865095     0.249384688569     0.007769198341     1.007825032230

  Basis Set: AUG-CC-PVTZ
    Blend: AUG-CC-PVTZ
  Basis Set: (AUG-CC-PVTZ AUX)
    Blend: AUG-CC-PVTZ-JKFIT
	 Reference Energy          =    -212.3467073663533142 [Eh]
	 Singles Energy            =      -0.0000000000000000 [Eh]
	 Same-Spin Energy          =      -0.2241199764589239 [Eh]
	 Opposite-Spin Energy      =      -0.8143539345712392 [Eh]
	 Correlation Energy        =      -1.0384739110301631 [Eh]
	 Total Energy              =    -213.3851812773834808 [Eh]

	 ================> DF-SCS-MP2 Energies <==================
	-----------------------------------------------------------
	 SCS Same-Spin Scale       =       0.3333333333333333 [-]
	 SCS Opposite-Spin Scale   =       1.2000000000000000 [-]
	 SCS Same-Spin Energy      =      -0.0747066588196413 [Eh]
	 SCS Opposite-Spin Energy  =      -0.9772247214854870 [Eh]
	 SCS Correlation Energy    =      -1.0519313803051282 [Eh]
	 SCS Total Energy          =    -213.3986387466584347 [Eh]
	-----------------------------------------------------------

  Dipole Moment: [D]
     X:     0.6345      Y:     0.0669      Z:     0.7494     Total:     0.9842

*** Psi4 exiting successfully. Buy a developer a beer!
