                               Psi4 1.4a3.dev225

  ==> Input File <==

--------------------------------------------------------------------------
#psi4
#
memory 32 gb

molecule  {
0 1
  N        0.0000000    -0.2847950    -0.0775760
  C       -1.2569919     0.5476451     0.0262409
  C        1.2154030     0.5201010     0.0228200
  C       -2.4484650    -0.3685770    -0.0316320
  C        2.4484650    -0.3685770    -0.0316380
  H       -1.2391130     1.1424540     0.9363620
  H       -1.2207100     1.2134400    -0.8263160
  H        1.2207070     1.2134550    -0.8262890
  H        1.2391140     1.1424360     0.9363880
  H       -0.0000050    -0.9589390     0.6905330
  H       -2.4420630    -0.9624210    -0.9481910
  H       -2.4717160    -1.0555150     0.8206980
  H       -3.3640250     0.2291450    -0.0033800
  H        2.4717150    -1.0555360     0.8206740
  H        2.4420660    -0.9623970    -0.9482130
  H        3.3640260     0.2291450    -0.0033680
units angstrom
no_reorient  #important for SAPT in psi4, default
symmetry c1  #important for SAPT in psi4, default
}

set PROPERTIES_ORIGIN ["COM"]
properties('MP2/aug-cc-pvtz', properties = ['dipole'])
--------------------------------------------------------------------------

    Molecular point group: c1
  Charge       = 0
  Multiplicity = 1
  Basis Set: AUG-CC-PVTZ
    Blend: AUG-CC-PVTZ
  Basis Set: (AUG-CC-PVTZ AUX)
    Blend: AUG-CC-PVTZ-JKFIT

    Orbital Energies [Eh]
    ---------------------

    Doubly Occupied:

       1A    -15.537179     2A    -11.243852     3A    -11.242459
       4A    -11.211204     5A    -11.209734     6A     -1.191613
       7A     -1.027736     8A     -0.960976     9A     -0.827428
      10A     -0.817401    11A     -0.658492    12A     -0.620908
      13A     -0.600080    14A     -0.580814    15A     -0.551543
      16A     -0.520505    17A     -0.508031    18A     -0.491186
      19A     -0.481454    20A     -0.466324    21A     -0.369113

  @DF-RHF Final Energy:  -212.39288817700873

   => Energetics <=

    Nuclear Repulsion Energy =            188.0354349011910244
    One-Electron Energy =                -658.6205813778333322
    Two-Electron Energy =                 258.1922582996335791
    Total Energy =                       -212.3928881770087287
  Basis Set: (AUG-CC-PVTZ AUX)
    Blend: AUG-CC-PVTZ-RI
    Molecular point group: c1

    Geometry (in Angstrom), charge = 0, multiplicity = 1:

       Center              X                  Y                   Z               Mass
    ------------   -----------------  -----------------  -----------------  -----------------
         N            0.006828247909    -0.286925797939    -0.069328044914    14.003074004430
         C           -1.250163652091     0.545514302061     0.034488855086    12.000000000000
         C            1.222231247909     0.517970202061     0.031067955086    12.000000000000
         C           -2.441636752091    -0.370707797939    -0.023384044914    12.000000000000
         C            2.455293247909    -0.370707797939    -0.023390044914    12.000000000000
         H           -1.232284752091     1.140323202061     0.944609955086     1.007825032230
         H           -1.213881752091     1.211309202061    -0.818068044914     1.007825032230
         H            1.227535247909     1.211324202061    -0.818041044914     1.007825032230
         H            1.245942247909     1.140305202061     0.944635955086     1.007825032230
         H            0.006823247909    -0.961069797939     0.698780955086     1.007825032230
         H           -2.435234752091    -0.964551797939    -0.939943044914     1.007825032230
         H           -2.464887752091    -1.057645797939     0.828945955086     1.007825032230
         H           -3.357196752091     0.227014202061     0.004867955086     1.007825032230
         H            2.478543247909    -1.057666797939     0.828921955086     1.007825032230
         H            2.448894247909    -0.964527797939    -0.939965044914     1.007825032230
         H            3.370854247909     0.227014202061     0.004879955086     1.007825032230

  Basis Set: AUG-CC-PVTZ
    Blend: AUG-CC-PVTZ
  Basis Set: (AUG-CC-PVTZ AUX)
    Blend: AUG-CC-PVTZ-JKFIT
	 Reference Energy          =    -212.3928881770087287 [Eh]
	 Singles Energy            =      -0.0000000000000000 [Eh]
	 Same-Spin Energy          =      -0.2219841896529786 [Eh]
	 Opposite-Spin Energy      =      -0.8129001852961462 [Eh]
	 Correlation Energy        =      -1.0348843749491248 [Eh]
	 Total Energy              =    -213.4277725519578439 [Eh]

	 ================> DF-SCS-MP2 Energies <==================
	-----------------------------------------------------------
	 SCS Same-Spin Scale       =       0.3333333333333333 [-]
	 SCS Opposite-Spin Scale   =       1.2000000000000000 [-]
	 SCS Same-Spin Energy      =      -0.0739947298843262 [Eh]
	 SCS Opposite-Spin Energy  =      -0.9754802223553753 [Eh]
	 SCS Correlation Energy    =      -1.0494749522397016 [Eh]
	 SCS Total Energy          =    -213.4423631292484345 [Eh]
	-----------------------------------------------------------

  Dipole Moment: [D]
     X:    -0.1182      Y:     0.5072      Z:     0.9168     Total:     1.0544

*** Psi4 exiting successfully. Buy a developer a beer!
