                               Psi4 1.3.2 release

  ==> Input File <==

--------------------------------------------------------------------------
#psi4
#
memory 32 gb

molecule  {
0 1
  N        0.0000000    -0.2847960    -0.0775200
  C       -1.1846821     0.5705200    -0.0603896
  C        1.2154590     0.5201510     0.0228370
  C       -2.4484620    -0.3686040    -0.0316540
  C        2.4484620    -0.3686030    -0.0316740
  H       -1.2391330     1.1425390     0.9363030
  H       -1.2207300     1.2134510    -0.8263620
  H        1.2207230     1.2135020    -0.8262740
  H        1.2391330     1.1424770     0.9363870
  H       -0.0000150    -0.9587820     0.6907340
  H       -2.4419500    -0.9624070    -0.9482340
  H       -2.4715700    -1.0556010     0.8206420
  H       -3.3641460     0.2289170    -0.0033300
  H        2.4715620    -1.0556700     0.8205670
  H        2.4419500    -0.9623320    -0.9483010
  H        3.3641500     0.2289090    -0.0032960
units angstrom
no_reorient  #important for SAPT in psi4, default
symmetry c1  #important for SAPT in psi4, default
}

set PROPERTIES_ORIGIN ["COM"]
properties('MP2/aug-cc-pvtz', properties = ['dipole'])
--------------------------------------------------------------------------

    Molecular point group: c1
  Charge       = 0
  Multiplicity = 1
  Basis Set: AUG-CC-PVTZ
    Blend: AUG-CC-PVTZ
  Basis Set: (AUG-CC-PVTZ AUX)
    Blend: AUG-CC-PVTZ-JKFIT

    Orbital Energies [Eh]
    ---------------------

    Doubly Occupied:

       1A    -15.538611     2A    -11.244245     3A    -11.243144
       4A    -11.212628     5A    -11.210162     6A     -1.202425
       7A     -1.021548     8A     -0.955726     9A     -0.835001
      10A     -0.821517    11A     -0.658159    12A     -0.627855
      13A     -0.597323    14A     -0.585724    15A     -0.548695
      16A     -0.519441    17A     -0.514199    18A     -0.497834
      19A     -0.480989    20A     -0.456622    21A     -0.365344

  @DF-RHF Final Energy:  -212.38311893714240

   => Energetics <=

    Nuclear Repulsion Energy =            188.3285396488413710
    One-Electron Energy =                -659.1489302743349299
    Two-Electron Energy =                 258.4372716883511885
    Total Energy =                       -212.3831189371423989
  Basis Set: (AUG-CC-PVTZ AUX)
    Blend: AUG-CC-PVTZ-RI
    Molecular point group: c1

    Geometry (in Angstrom), charge = 0, multiplicity = 1:

       Center              X                  Y                   Z               Mass
    ------------   -----------------  -----------------  -----------------  -----------------
         N           -0.005052687024    -0.290678144528    -0.055051927124    14.003074004430
         C           -1.189734787024     0.564637855472    -0.037921527124    12.000000000000
         C            1.210406312976     0.514268855472     0.045305072876    12.000000000000
         C           -2.453514687024    -0.374486144528    -0.009185927124    12.000000000000
         C            2.443409312976    -0.374485144528    -0.009205927124    12.000000000000
         H           -1.244185687024     1.136656855472     0.958771072876     1.007825032230
         H           -1.225782687024     1.207568855472    -0.803893927124     1.007825032230
         H            1.215670312976     1.207619855472    -0.803805927124     1.007825032230
         H            1.234080312976     1.136594855472     0.958855072876     1.007825032230
         H           -0.005067687024    -0.964664144528     0.713202072876     1.007825032230
         H           -2.447002687024    -0.968289144528    -0.925765927124     1.007825032230
         H           -2.476622687024    -1.061483144528     0.843110072876     1.007825032230
         H           -3.369198687024     0.223034855472     0.019138072876     1.007825032230
         H            2.466509312976    -1.061552144528     0.843035072876     1.007825032230
         H            2.436897312976    -0.968214144528    -0.925832927124     1.007825032230
         H            3.359097312976     0.223026855472     0.019172072876     1.007825032230

  Basis Set: AUG-CC-PVTZ
    Blend: AUG-CC-PVTZ
  Basis Set: (AUG-CC-PVTZ AUX)
    Blend: AUG-CC-PVTZ-JKFIT
	 Reference Energy          =    -212.3831189371423989 [Eh]
	 Singles Energy            =      -0.0000000000000000 [Eh]
	 Same-Spin Energy          =      -0.2218738260507455 [Eh]
	 Opposite-Spin Energy      =      -0.8127274601931762 [Eh]
	 Correlation Energy        =      -1.0346012862439218 [Eh]
	 Total Energy              =    -213.4177202233863113 [Eh]

	 ================> DF-SCS-MP2 Energies <==================
	-----------------------------------------------------------
	 SCS Same-Spin Scale       =       0.3333333333333333 [-]
	 SCS Opposite-Spin Scale   =       1.2000000000000000 [-]
	 SCS Same-Spin Energy      =      -0.0739579420169151 [Eh]
	 SCS Opposite-Spin Energy  =      -0.9752729522318114 [Eh]
	 SCS Correlation Energy    =      -1.0492308942487265 [Eh]
	 SCS Total Energy          =    -213.4323498313911216 [Eh]
	-----------------------------------------------------------

  Dipole Moment: [D]
     X:     0.0096      Y:     0.4537      Z:     0.8012     Total:     0.9208

*** Psi4 exiting successfully. Buy a developer a beer!
