                               Psi4 1.3.2 release

  ==> Input File <==

--------------------------------------------------------------------------
#psi4
#
memory 32 gb

molecule  {
0 1
  N        0.0457280    -0.3552497     0.0503103
  C       -1.2154540     0.5201510     0.0227920
  C        1.2154590     0.5201510     0.0228370
  C       -2.4484620    -0.3686040    -0.0316540
  C        2.4484620    -0.3686030    -0.0316740
  H       -1.2391330     1.1425390     0.9363030
  H       -1.2207300     1.2134510    -0.8263620
  H        1.2207230     1.2135020    -0.8262740
  H        1.2391330     1.1424770     0.9363870
  H       -0.0000150    -0.9587820     0.6907340
  H       -2.4419500    -0.9624070    -0.9482340
  H       -2.4715700    -1.0556010     0.8206420
  H       -3.3641460     0.2289170    -0.0033300
  H        2.4715620    -1.0556700     0.8205670
  H        2.4419500    -0.9623320    -0.9483010
  H        3.3641500     0.2289090    -0.0032960
units angstrom
no_reorient  #important for SAPT in psi4, default
symmetry c1  #important for SAPT in psi4, default
}

set PROPERTIES_ORIGIN ["COM"]
properties('MP2/aug-cc-pvtz', properties = ['dipole'])
--------------------------------------------------------------------------

    Molecular point group: c1
  Charge       = 0
  Multiplicity = 1
  Basis Set: AUG-CC-PVTZ
    Blend: AUG-CC-PVTZ
  Basis Set: (AUG-CC-PVTZ AUX)
    Blend: AUG-CC-PVTZ-JKFIT

    Orbital Energies [Eh]
    ---------------------

    Doubly Occupied:

       1A    -15.521835     2A    -11.249805     3A    -11.244488
       4A    -11.211570     5A    -11.207521     6A     -1.202312
       7A     -1.022780     8A     -0.968179     9A     -0.840146
      10A     -0.821024    11A     -0.658199    12A     -0.621487
      13A     -0.600354    14A     -0.594855    15A     -0.554404
      16A     -0.519102    17A     -0.505597    18A     -0.502505
      19A     -0.478857    20A     -0.457067    21A     -0.362563

  @DF-RHF Final Energy:  -212.37001134496057

   => Energetics <=

    Nuclear Repulsion Energy =            188.2896004127223080
    One-Electron Energy =                -659.0299186061040473
    Two-Electron Energy =                 258.3703068484211940
    Total Energy =                       -212.3700113449605738
  Basis Set: (AUG-CC-PVTZ AUX)
    Blend: AUG-CC-PVTZ-RI
    Molecular point group: c1

    Geometry (in Angstrom), charge = 0, multiplicity = 1:

       Center              X                  Y                   Z               Mass
    ------------   -----------------  -----------------  -----------------  -----------------
         N            0.036966557703    -0.339363957106     0.034630489430    14.003074004430
         C           -1.224215442297     0.536036742894     0.007112189430    12.000000000000
         C            1.206697557703     0.536036742894     0.007157189430    12.000000000000
         C           -2.457223442297    -0.352718257106    -0.047333810570    12.000000000000
         C            2.439700557703    -0.352717257106    -0.047353810570    12.000000000000
         H           -1.247894442297     1.158424742894     0.920623189430     1.007825032230
         H           -1.229491442297     1.229336742894    -0.842041810570     1.007825032230
         H            1.211961557703     1.229387742894    -0.841953810570     1.007825032230
         H            1.230371557703     1.158362742894     0.920707189430     1.007825032230
         H           -0.008776442297    -0.942896257106     0.675054189430     1.007825032230
         H           -2.450711442297    -0.946521257106    -0.963913810570     1.007825032230
         H           -2.480331442297    -1.039715257106     0.804962189430     1.007825032230
         H           -3.372907442297     0.244802742894    -0.019009810570     1.007825032230
         H            2.462800557703    -1.039784257106     0.804887189430     1.007825032230
         H            2.433188557703    -0.946446257106    -0.963980810570     1.007825032230
         H            3.355388557703     0.244794742894    -0.018975810570     1.007825032230

  Basis Set: AUG-CC-PVTZ
    Blend: AUG-CC-PVTZ
  Basis Set: (AUG-CC-PVTZ AUX)
    Blend: AUG-CC-PVTZ-JKFIT
	 Reference Energy          =    -212.3700113449605738 [Eh]
	 Singles Energy            =      -0.0000000000000000 [Eh]
	 Same-Spin Energy          =      -0.2210785107947594 [Eh]
	 Opposite-Spin Energy      =      -0.8112941058284833 [Eh]
	 Correlation Energy        =      -1.0323726166232428 [Eh]
	 Total Energy              =    -213.4023839615838085 [Eh]

	 ================> DF-SCS-MP2 Energies <==================
	-----------------------------------------------------------
	 SCS Same-Spin Scale       =       0.3333333333333333 [-]
	 SCS Opposite-Spin Scale   =       1.2000000000000000 [-]
	 SCS Same-Spin Energy      =      -0.0736928369315865 [Eh]
	 SCS Opposite-Spin Energy  =      -0.9735529269941798 [Eh]
	 SCS Correlation Energy    =      -1.0472457639257664 [Eh]
	 SCS Total Energy          =    -213.4172571088863322 [Eh]
	-----------------------------------------------------------

  Dipole Moment: [D]
     X:    -0.1710      Y:     0.5660      Z:     0.7309     Total:     0.9401

*** Psi4 exiting successfully. Buy a developer a beer!
