                               Psi4 1.3.2 release

  ==> Input File <==

--------------------------------------------------------------------------
#psi4
#
memory 32 gb

molecule  {
0 1
  N        0.0000000    -0.2847960    -0.0775200
  C       -1.2294258     0.4989787     0.0201527
  C        1.2154590     0.5201510     0.0228370
  C       -2.4484620    -0.3686040    -0.0316540
  C        2.4484620    -0.3686030    -0.0316740
  H       -1.2391330     1.1425390     0.9363030
  H       -1.2207300     1.2134510    -0.8263620
  H        1.2207230     1.2135020    -0.8262740
  H        1.2391330     1.1424770     0.9363870
  H       -0.0000150    -0.9587820     0.6907340
  H       -2.4419500    -0.9624070    -0.9482340
  H       -2.4715700    -1.0556010     0.8206420
  H       -3.3641460     0.2289170    -0.0033300
  H        2.4715620    -1.0556700     0.8205670
  H        2.4419500    -0.9623320    -0.9483010
  H        3.3641500     0.2289090    -0.0032960
units angstrom
no_reorient  #important for SAPT in psi4, default
symmetry c1  #important for SAPT in psi4, default
}

set PROPERTIES_ORIGIN ["COM"]
properties('MP2/aug-cc-pvtz', properties = ['dipole'])
--------------------------------------------------------------------------

    Molecular point group: c1
  Charge       = 0
  Multiplicity = 1
  Basis Set: AUG-CC-PVTZ
    Blend: AUG-CC-PVTZ
  Basis Set: (AUG-CC-PVTZ AUX)
    Blend: AUG-CC-PVTZ-JKFIT

    Orbital Energies [Eh]
    ---------------------

    Doubly Occupied:

       1A    -15.538505     2A    -11.245410     3A    -11.244645
       4A    -11.211131     5A    -11.210530     6A     -1.203096
       7A     -1.029465     8A     -0.963363     9A     -0.826855
      10A     -0.815692    11A     -0.659390    12A     -0.627246
      13A     -0.597156    14A     -0.586247    15A     -0.553809
      16A     -0.519794    17A     -0.506170    18A     -0.486596
      19A     -0.480929    20A     -0.473054    21A     -0.368271

  @DF-RHF Final Energy:  -212.39439207827527

   => Energetics <=

    Nuclear Repulsion Energy =            188.6651567468950361
    One-Electron Energy =                -659.8243882026629308
    Two-Electron Energy =                 258.7648393774926490
    Total Energy =                       -212.3943920782752457
  Basis Set: (AUG-CC-PVTZ AUX)
    Blend: AUG-CC-PVTZ-RI
    Molecular point group: c1

    Geometry (in Angstrom), charge = 0, multiplicity = 1:

       Center              X                  Y                   Z               Mass
    ------------   -----------------  -----------------  -----------------  -----------------
         N            0.002293470439    -0.278932275168    -0.068275608183    14.003074004430
         C           -1.227132329561     0.504842424832     0.029397091817    12.000000000000
         C            1.217752470439     0.526014724832     0.032081391817    12.000000000000
         C           -2.446168529561    -0.362740275168    -0.022409608183    12.000000000000
         C            2.450755470439    -0.362739275168    -0.022429608183    12.000000000000
         H           -1.236839529561     1.148402724832     0.945547391817     1.007825032230
         H           -1.218436529561     1.219314724832    -0.817117608183     1.007825032230
         H            1.223016470439     1.219365724832    -0.817029608183     1.007825032230
         H            1.241426470439     1.148340724832     0.945631391817     1.007825032230
         H            0.002278470439    -0.952918275168     0.699978391817     1.007825032230
         H           -2.439656529561    -0.956543275168    -0.938989608183     1.007825032230
         H           -2.469276529561    -1.049737275168     0.829886391817     1.007825032230
         H           -3.361852529561     0.234780724832     0.005914391817     1.007825032230
         H            2.473855470439    -1.049806275168     0.829811391817     1.007825032230
         H            2.444243470439    -0.956468275168    -0.939056608183     1.007825032230
         H            3.366443470439     0.234772724832     0.005948391817     1.007825032230

  Basis Set: AUG-CC-PVTZ
    Blend: AUG-CC-PVTZ
  Basis Set: (AUG-CC-PVTZ AUX)
    Blend: AUG-CC-PVTZ-JKFIT
	 Reference Energy          =    -212.3943920782752741 [Eh]
	 Singles Energy            =      -0.0000000000000000 [Eh]
	 Same-Spin Energy          =      -0.2221431013195128 [Eh]
	 Opposite-Spin Energy      =      -0.8126057609940569 [Eh]
	 Correlation Energy        =      -1.0347488623135697 [Eh]
	 Total Energy              =    -213.4291409405888373 [Eh]

	 ================> DF-SCS-MP2 Energies <==================
	-----------------------------------------------------------
	 SCS Same-Spin Scale       =       0.3333333333333333 [-]
	 SCS Opposite-Spin Scale   =       1.2000000000000000 [-]
	 SCS Same-Spin Energy      =      -0.0740477004398376 [Eh]
	 SCS Opposite-Spin Energy  =      -0.9751269131928683 [Eh]
	 SCS Correlation Energy    =      -1.0491746136327058 [Eh]
	 SCS Total Energy          =    -213.4435666919079893 [Eh]
	-----------------------------------------------------------

  Dipole Moment: [D]
     X:    -0.0148      Y:     0.4224      Z:     0.8849     Total:     0.9807

*** Psi4 exiting successfully. Buy a developer a beer!
