                               Psi4 1.3.2 release

  ==> Input File <==

--------------------------------------------------------------------------
#psi4
#
memory 32 gb

molecule  {
0 1
  N        0.0000000    -0.2847960    -0.0775200
  C       -1.2222270     0.5069360     0.0435268
  C        1.2154590     0.5201510     0.0228370
  C       -2.4484620    -0.3686040    -0.0316540
  C        2.4484620    -0.3686030    -0.0316740
  H       -1.2391330     1.1425390     0.9363030
  H       -1.2207300     1.2134510    -0.8263620
  H        1.2207230     1.2135020    -0.8262740
  H        1.2391330     1.1424770     0.9363870
  H       -0.0000150    -0.9587820     0.6907340
  H       -2.4419500    -0.9624070    -0.9482340
  H       -2.4715700    -1.0556010     0.8206420
  H       -3.3641460     0.2289170    -0.0033300
  H        2.4715620    -1.0556700     0.8205670
  H        2.4419500    -0.9623320    -0.9483010
  H        3.3641500     0.2289090    -0.0032960
units angstrom
no_reorient  #important for SAPT in psi4, default
symmetry c1  #important for SAPT in psi4, default
}

set PROPERTIES_ORIGIN ["COM"]
properties('MP2/aug-cc-pvtz', properties = ['dipole'])
--------------------------------------------------------------------------

    Molecular point group: c1
  Charge       = 0
  Multiplicity = 1
  Basis Set: AUG-CC-PVTZ
    Blend: AUG-CC-PVTZ
  Basis Set: (AUG-CC-PVTZ AUX)
    Blend: AUG-CC-PVTZ-JKFIT

    Orbital Energies [Eh]
    ---------------------

    Doubly Occupied:

       1A    -15.538879     2A    -11.244689     3A    -11.244514
       4A    -11.211115     5A    -11.210653     6A     -1.203515
       7A     -1.027980     8A     -0.962202     9A     -0.827013
      10A     -0.816377    11A     -0.660971    12A     -0.627169
      13A     -0.596911    14A     -0.584767    15A     -0.552951
      16A     -0.521018    17A     -0.506465    18A     -0.485083
      19A     -0.478145    20A     -0.473210    21A     -0.370877

  @DF-RHF Final Energy:  -212.39430962481251

   => Energetics <=

    Nuclear Repulsion Energy =            188.6196464969750366
    One-Electron Energy =                -659.7388993709421356
    Two-Electron Energy =                 258.7249432491545349
    Total Energy =                       -212.3943096248125357
  Basis Set: (AUG-CC-PVTZ AUX)
    Blend: AUG-CC-PVTZ-RI
    Molecular point group: c1

    Geometry (in Angstrom), charge = 0, multiplicity = 1:

       Center              X                  Y                   Z               Mass
    ------------   -----------------  -----------------  -----------------  -----------------
         N            0.001111549446    -0.280238729010    -0.072113239384    14.003074004430
         C           -1.221115450554     0.511493270990     0.048933560616    12.000000000000
         C            1.216570549446     0.524708270990     0.028243760616    12.000000000000
         C           -2.447350450554    -0.364046729010    -0.026247239384    12.000000000000
         C            2.449573549446    -0.364045729010    -0.026267239384    12.000000000000
         H           -1.238021450554     1.147096270990     0.941709760616     1.007825032230
         H           -1.219618450554     1.218008270990    -0.820955239384     1.007825032230
         H            1.221834549446     1.218059270990    -0.820867239384     1.007825032230
         H            1.240244549446     1.147034270990     0.941793760616     1.007825032230
         H            0.001096549446    -0.954224729010     0.696140760616     1.007825032230
         H           -2.440838450554    -0.957849729010    -0.942827239384     1.007825032230
         H           -2.470458450554    -1.051043729010     0.826048760616     1.007825032230
         H           -3.363034450554     0.233474270990     0.002076760616     1.007825032230
         H            2.472673549446    -1.051112729010     0.825973760616     1.007825032230
         H            2.443061549446    -0.957774729010    -0.942894239384     1.007825032230
         H            3.365261549446     0.233466270990     0.002110760616     1.007825032230

  Basis Set: AUG-CC-PVTZ
    Blend: AUG-CC-PVTZ
  Basis Set: (AUG-CC-PVTZ AUX)
    Blend: AUG-CC-PVTZ-JKFIT
	 Reference Energy          =    -212.3943096248125073 [Eh]
	 Singles Energy            =      -0.0000000000000000 [Eh]
	 Same-Spin Energy          =      -0.2221031063839947 [Eh]
	 Opposite-Spin Energy      =      -0.8126475621528511 [Eh]
	 Correlation Energy        =      -1.0347506685368457 [Eh]
	 Total Energy              =    -213.4290602933493517 [Eh]

	 ================> DF-SCS-MP2 Energies <==================
	-----------------------------------------------------------
	 SCS Same-Spin Scale       =       0.3333333333333333 [-]
	 SCS Opposite-Spin Scale   =       1.2000000000000000 [-]
	 SCS Same-Spin Energy      =      -0.0740343687946649 [Eh]
	 SCS Opposite-Spin Energy  =      -0.9751770745834212 [Eh]
	 SCS Correlation Energy    =      -1.0492114433780861 [Eh]
	 SCS Total Energy          =    -213.4435210681905914 [Eh]
	-----------------------------------------------------------

  Dipole Moment: [D]
     X:     0.0009      Y:     0.4374      Z:     0.9204     Total:     1.0191

*** Psi4 exiting successfully. Buy a developer a beer!
