                               Psi4 1.4a3.dev225

  ==> Input File <==

--------------------------------------------------------------------------
#psi4
#
memory 32 gb

molecule  {
0 1
  N        0.0000000    -0.2847950    -0.0775760
  C       -1.1738141     0.4925609     0.0193711
  C        1.2154030     0.5201010     0.0228200
  C       -2.4484650    -0.3685770    -0.0316320
  C        2.4484650    -0.3685770    -0.0316380
  H       -1.2391130     1.1424540     0.9363620
  H       -1.2207100     1.2134400    -0.8263160
  H        1.2207070     1.2134550    -0.8262890
  H        1.2391140     1.1424360     0.9363880
  H       -0.0000050    -0.9589390     0.6905330
  H       -2.4420630    -0.9624210    -0.9481910
  H       -2.4717160    -1.0555150     0.8206980
  H       -3.3640250     0.2291450    -0.0033800
  H        2.4717150    -1.0555360     0.8206740
  H        2.4420660    -0.9623970    -0.9482130
  H        3.3640260     0.2291450    -0.0033680
units angstrom
no_reorient  #important for SAPT in psi4, default
symmetry c1  #important for SAPT in psi4, default
}

set PROPERTIES_ORIGIN ["COM"]
properties('MP2/aug-cc-pvtz', properties = ['dipole'])
--------------------------------------------------------------------------

    Molecular point group: c1
  Charge       = 0
  Multiplicity = 1
  Basis Set: AUG-CC-PVTZ
    Blend: AUG-CC-PVTZ
  Basis Set: (AUG-CC-PVTZ AUX)
    Blend: AUG-CC-PVTZ-JKFIT

    Orbital Energies [Eh]
    ---------------------

    Doubly Occupied:

       1A    -15.539871     2A    -11.246054     3A    -11.245278
       4A    -11.212122     5A    -11.210787     6A     -1.216622
       7A     -1.026106     8A     -0.960143     9A     -0.829216
      10A     -0.816984    11A     -0.663559    12A     -0.632239
      13A     -0.595095    14A     -0.589051    15A     -0.552259
      16A     -0.520460    17A     -0.506792    18A     -0.490118
      19A     -0.476053    20A     -0.470133    21A     -0.369350

  @DF-RHF Final Energy:  -212.39281894201946

   => Energetics <=

    Nuclear Repulsion Energy =            189.1154947362788050
    One-Electron Energy =                -660.6800416203734585
    Two-Electron Energy =                 259.1717279420751652
    Total Energy =                       -212.3928189420194599
  Basis Set: (AUG-CC-PVTZ AUX)
    Blend: AUG-CC-PVTZ-RI
    Molecular point group: c1

    Geometry (in Angstrom), charge = 0, multiplicity = 1:

       Center              X                  Y                   Z               Mass
    ------------   -----------------  -----------------  -----------------  -----------------
         N           -0.006828137597    -0.277881905572    -0.068200140146    14.003074004430
         C           -1.180642237597     0.499473994428     0.028746959854    12.000000000000
         C            1.208574862403     0.527014094428     0.032195859854    12.000000000000
         C           -2.455293137597    -0.361663905572    -0.022256140146    12.000000000000
         C            2.441636862403    -0.361663905572    -0.022262140146    12.000000000000
         H           -1.245941137597     1.149367094428     0.945737859854     1.007825032230
         H           -1.227538137597     1.220353094428    -0.816940140146     1.007825032230
         H            1.213878862403     1.220368094428    -0.816913140146     1.007825032230
         H            1.232285862403     1.149349094428     0.945763859854     1.007825032230
         H           -0.006833137597    -0.952025905572     0.699908859854     1.007825032230
         H           -2.448891137597    -0.955507905572    -0.938815140146     1.007825032230
         H           -2.478544137597    -1.048601905572     0.830073859854     1.007825032230
         H           -3.370853137597     0.236058094428     0.005995859854     1.007825032230
         H            2.464886862403    -1.048622905572     0.830049859854     1.007825032230
         H            2.435237862403    -0.955483905572    -0.938837140146     1.007825032230
         H            3.357197862403     0.236058094428     0.006007859854     1.007825032230

  Basis Set: AUG-CC-PVTZ
    Blend: AUG-CC-PVTZ
  Basis Set: (AUG-CC-PVTZ AUX)
    Blend: AUG-CC-PVTZ-JKFIT
	 Reference Energy          =    -212.3928189420194599 [Eh]
	 Singles Energy            =      -0.0000000000000000 [Eh]
	 Same-Spin Energy          =      -0.2222081783830435 [Eh]
	 Opposite-Spin Energy      =      -0.8124275441577442 [Eh]
	 Correlation Energy        =      -1.0346357225407878 [Eh]
	 Total Energy              =    -213.4274546645602584 [Eh]

	 ================> DF-SCS-MP2 Energies <==================
	-----------------------------------------------------------
	 SCS Same-Spin Scale       =       0.3333333333333333 [-]
	 SCS Opposite-Spin Scale   =       1.2000000000000000 [-]
	 SCS Same-Spin Energy      =      -0.0740693927943478 [Eh]
	 SCS Opposite-Spin Energy  =      -0.9749130529892930 [Eh]
	 SCS Correlation Energy    =      -1.0489824457836407 [Eh]
	 SCS Total Energy          =    -213.4418013878031104 [Eh]
	-----------------------------------------------------------

  Dipole Moment: [D]
     X:     0.1309      Y:     0.3740      Z:     0.8684     Total:     0.9546

*** Psi4 exiting successfully. Buy a developer a beer!
