                               Psi4 1.3.2 release

  ==> Input File <==

--------------------------------------------------------------------------
#psi4
#
memory 32 gb

molecule  {
0 1
  N       -0.0780677    -0.1536684    -0.0672070
  C       -1.2154540     0.5201510     0.0227920
  C        1.2154590     0.5201510     0.0228370
  C       -2.4484620    -0.3686040    -0.0316540
  C        2.4484620    -0.3686030    -0.0316740
  H       -1.2391330     1.1425390     0.9363030
  H       -1.2207300     1.2134510    -0.8263620
  H        1.2207230     1.2135020    -0.8262740
  H        1.2391330     1.1424770     0.9363870
  H       -0.0000150    -0.9587820     0.6907340
  H       -2.4419500    -0.9624070    -0.9482340
  H       -2.4715700    -1.0556010     0.8206420
  H       -3.3641460     0.2289170    -0.0033300
  H        2.4715620    -1.0556700     0.8205670
  H        2.4419500    -0.9623320    -0.9483010
  H        3.3641500     0.2289090    -0.0032960
units angstrom
no_reorient  #important for SAPT in psi4, default
symmetry c1  #important for SAPT in psi4, default
}

set PROPERTIES_ORIGIN ["COM"]
properties('MP2/aug-cc-pvtz', properties = ['dipole'])
--------------------------------------------------------------------------

    Molecular point group: c1
  Charge       = 0
  Multiplicity = 1
  Basis Set: AUG-CC-PVTZ
    Blend: AUG-CC-PVTZ
  Basis Set: (AUG-CC-PVTZ AUX)
    Blend: AUG-CC-PVTZ-JKFIT

    Orbital Energies [Eh]
    ---------------------

    Doubly Occupied:

       1A    -15.537321     2A    -11.248733     3A    -11.234205
       4A    -11.218006     5A    -11.209485     6A     -1.229766
       7A     -1.034338     8A     -0.960656     9A     -0.842824
      10A     -0.802597    11A     -0.667380    12A     -0.638300
      13A     -0.599408    14A     -0.596506    15A     -0.550396
      16A     -0.523277    17A     -0.512271    18A     -0.498663
      19A     -0.480284    20A     -0.462395    21A     -0.349701

  @DF-RHF Final Energy:  -212.37125404522357

   => Energetics <=

    Nuclear Repulsion Energy =            190.0535931704774555
    One-Electron Energy =                -662.4566654238378760
    Two-Electron Energy =                 260.0318182081368263
    Total Energy =                       -212.3712540452235658
  Basis Set: (AUG-CC-PVTZ AUX)
    Blend: AUG-CC-PVTZ-RI
    Molecular point group: c1

    Geometry (in Angstrom), charge = 0, multiplicity = 1:

       Center              X                  Y                   Z               Mass
    ------------   -----------------  -----------------  -----------------  -----------------
         N           -0.063111253065    -0.176403408429    -0.060371793456    14.003074004430
         C           -1.200497553065     0.497415991571     0.029627206544    12.000000000000
         C            1.230415446935     0.497415991571     0.029672206544    12.000000000000
         C           -2.433505553065    -0.391339008429    -0.024818793456    12.000000000000
         C            2.463418446935    -0.391338008429    -0.024838793456    12.000000000000
         H           -1.224176553065     1.119803991571     0.943138206544     1.007825032230
         H           -1.205773553065     1.190715991571    -0.819526793456     1.007825032230
         H            1.235679446935     1.190766991571    -0.819438793456     1.007825032230
         H            1.254089446935     1.119741991571     0.943222206544     1.007825032230
         H            0.014941446935    -0.981517008429     0.697569206544     1.007825032230
         H           -2.426993553065    -0.985142008429    -0.941398793456     1.007825032230
         H           -2.456613553065    -1.078336008429     0.827477206544     1.007825032230
         H           -3.349189553065     0.206181991571     0.003505206544     1.007825032230
         H            2.486518446935    -1.078405008429     0.827402206544     1.007825032230
         H            2.456906446935    -0.985067008429    -0.941465793456     1.007825032230
         H            3.379106446935     0.206173991571     0.003539206544     1.007825032230

  Basis Set: AUG-CC-PVTZ
    Blend: AUG-CC-PVTZ
  Basis Set: (AUG-CC-PVTZ AUX)
    Blend: AUG-CC-PVTZ-JKFIT
	 Reference Energy          =    -212.3712540452235658 [Eh]
	 Singles Energy            =      -0.0000000000000000 [Eh]
	 Same-Spin Energy          =      -0.2233797203305233 [Eh]
	 Opposite-Spin Energy      =      -0.8134734103567312 [Eh]
	 Correlation Energy        =      -1.0368531306872546 [Eh]
	 Total Energy              =    -213.4081071759108283 [Eh]

	 ================> DF-SCS-MP2 Energies <==================
	-----------------------------------------------------------
	 SCS Same-Spin Scale       =       0.3333333333333333 [-]
	 SCS Opposite-Spin Scale   =       1.2000000000000000 [-]
	 SCS Same-Spin Energy      =      -0.0744599067768411 [Eh]
	 SCS Opposite-Spin Energy  =      -0.9761680924280773 [Eh]
	 SCS Correlation Energy    =      -1.0506279992049183 [Eh]
	 SCS Total Energy          =    -213.4218820444284859 [Eh]
	-----------------------------------------------------------

  Dipole Moment: [D]
     X:     0.3658      Y:     0.1070      Z:     0.7297     Total:     0.8232

*** Psi4 exiting successfully. Buy a developer a beer!
