                               Psi4 1.3.2 release

  ==> Input File <==

--------------------------------------------------------------------------
#psi4
#
memory 32 gb

molecule  {
0 1
  N        0.0000000    -0.2847960    -0.0775200
  C       -1.2154540     0.5201510     0.0227920
  C        1.2154590     0.5201510     0.0228370
  C       -2.4484620    -0.3686040    -0.0316540
  C        2.4484620    -0.3686030    -0.0316740
  H       -1.2391330     1.1425390     0.9363030
  H       -1.2207300     1.2134510    -0.8263620
  H        1.2207230     1.2135020    -0.8262740
  H        1.2391330     1.1424770     0.9363870
  H       -0.0000165    -1.0247301     0.7659061
  H       -2.4419500    -0.9624070    -0.9482340
  H       -2.4715700    -1.0556010     0.8206420
  H       -3.3641460     0.2289170    -0.0033300
  H        2.4715620    -1.0556700     0.8205670
  H        2.4419500    -0.9623320    -0.9483010
  H        3.3641500     0.2289090    -0.0032960
units angstrom
no_reorient  #important for SAPT in psi4, default
symmetry c1  #important for SAPT in psi4, default
}

set PROPERTIES_ORIGIN ["COM"]
properties('MP2/aug-cc-pvtz', properties = ['dipole'])
--------------------------------------------------------------------------

    Molecular point group: c1
  Charge       = 0
  Multiplicity = 1
  Basis Set: AUG-CC-PVTZ
    Blend: AUG-CC-PVTZ
  Basis Set: (AUG-CC-PVTZ AUX)
    Blend: AUG-CC-PVTZ-JKFIT

    Orbital Energies [Eh]
    ---------------------

    Doubly Occupied:

       1A    -15.549669     2A    -11.244768     3A    -11.244752
       4A    -11.210704     5A    -11.210703     6A     -1.194531
       7A     -1.026472     8A     -0.957377     9A     -0.827405
      10A     -0.807973    11A     -0.655603    12A     -0.626160
      13A     -0.597072    14A     -0.579424    15A     -0.548526
      16A     -0.518515    17A     -0.506222    18A     -0.482718
      19A     -0.481116    20A     -0.471804    21A     -0.369025

  @DF-RHF Final Energy:  -212.38547191882208

   => Energetics <=

    Nuclear Repulsion Energy =            188.0666850869866096
    One-Electron Energy =                -658.6832354181002529
    Two-Electron Energy =                 258.2310784122915948
    Total Energy =                       -212.3854719188220770
  Basis Set: (AUG-CC-PVTZ AUX)
    Blend: AUG-CC-PVTZ-RI
    Molecular point group: c1

    Geometry (in Angstrom), charge = 0, multiplicity = 1:

       Center              X                  Y                   Z               Mass
    ------------   -----------------  -----------------  -----------------  -----------------
         N           -0.000000441718    -0.281499050888    -0.069745483330    14.003074004430
         C           -1.215454441718     0.523447949112     0.030566516670    12.000000000000
         C            1.215458558282     0.523447949112     0.030611516670    12.000000000000
         C           -2.448462441718    -0.365307050888    -0.023879483330    12.000000000000
         C            2.448461558282    -0.365306050888    -0.023899483330    12.000000000000
         H           -1.239133441718     1.145835949112     0.944077516670     1.007825032230
         H           -1.220730441718     1.216747949112    -0.818587483330     1.007825032230
         H            1.220722558282     1.216798949112    -0.818499483330     1.007825032230
         H            1.239132558282     1.145773949112     0.944161516670     1.007825032230
         H           -0.000016941718    -1.021433150888     0.773680616670     1.007825032230
         H           -2.441950441718    -0.959110050888    -0.940459483330     1.007825032230
         H           -2.471570441718    -1.052304050888     0.828416516670     1.007825032230
         H           -3.364146441718     0.232213949112     0.004444516670     1.007825032230
         H            2.471561558282    -1.052373050888     0.828341516670     1.007825032230
         H            2.441949558282    -0.959035050888    -0.940526483330     1.007825032230
         H            3.364149558282     0.232205949112     0.004478516670     1.007825032230

  Basis Set: AUG-CC-PVTZ
    Blend: AUG-CC-PVTZ
  Basis Set: (AUG-CC-PVTZ AUX)
    Blend: AUG-CC-PVTZ-JKFIT
	 Reference Energy          =    -212.3854719188220770 [Eh]
	 Singles Energy            =      -0.0000000000000000 [Eh]
	 Same-Spin Energy          =      -0.2225900991119434 [Eh]
	 Opposite-Spin Energy      =      -0.8144029761777666 [Eh]
	 Correlation Energy        =      -1.0369930752897099 [Eh]
	 Total Energy              =    -213.4224649941117775 [Eh]

	 ================> DF-SCS-MP2 Energies <==================
	-----------------------------------------------------------
	 SCS Same-Spin Scale       =       0.3333333333333333 [-]
	 SCS Opposite-Spin Scale   =       1.2000000000000000 [-]
	 SCS Same-Spin Energy      =      -0.0741966997039811 [Eh]
	 SCS Opposite-Spin Energy  =      -0.9772835714133199 [Eh]
	 SCS Correlation Energy    =      -1.0514802711173010 [Eh]
	 SCS Total Energy          =    -213.4369521899393760 [Eh]
	-----------------------------------------------------------

  Dipole Moment: [D]
     X:    -0.0000      Y:     0.4591      Z:     0.8915     Total:     1.0028

*** Psi4 exiting successfully. Buy a developer a beer!
