                               Psi4 1.3.2 release

  ==> Input File <==

--------------------------------------------------------------------------
#psi4
#
memory 32 gb

molecule  {
0 1
  N        0.0067083    -0.2971728    -0.0562535
  C       -1.2154540     0.5201510     0.0227920
  C        1.2154590     0.5201510     0.0228370
  C       -2.4484620    -0.3686040    -0.0316540
  C        2.4484620    -0.3686030    -0.0316740
  H       -1.2391330     1.1425390     0.9363030
  H       -1.2207300     1.2134510    -0.8263620
  H        1.2207230     1.2135020    -0.8262740
  H        1.2391330     1.1424770     0.9363870
  H       -0.0000150    -0.9587820     0.6907340
  H       -2.4419500    -0.9624070    -0.9482340
  H       -2.4715700    -1.0556010     0.8206420
  H       -3.3641460     0.2289170    -0.0033300
  H        2.4715620    -1.0556700     0.8205670
  H        2.4419500    -0.9623320    -0.9483010
  H        3.3641500     0.2289090    -0.0032960
units angstrom
no_reorient  #important for SAPT in psi4, default
symmetry c1  #important for SAPT in psi4, default
}

set PROPERTIES_ORIGIN ["COM"]
properties('MP2/aug-cc-pvtz', properties = ['dipole'])
--------------------------------------------------------------------------

    Molecular point group: c1
  Charge       = 0
  Multiplicity = 1
  Basis Set: AUG-CC-PVTZ
    Blend: AUG-CC-PVTZ
  Basis Set: (AUG-CC-PVTZ AUX)
    Blend: AUG-CC-PVTZ-JKFIT

    Orbital Energies [Eh]
    ---------------------

    Doubly Occupied:

       1A    -15.535758     2A    -11.244975     3A    -11.244010
       4A    -11.210951     5A    -11.210308     6A     -1.202410
       7A     -1.025814     8A     -0.961556     9A     -0.826038
      10A     -0.821623    11A     -0.659964    12A     -0.625176
      13A     -0.596912    14A     -0.586756    15A     -0.552781
      16A     -0.519618    17A     -0.506096    18A     -0.491026
      19A     -0.479798    20A     -0.470308    21A     -0.368588

  @DF-RHF Final Energy:  -212.39540624687172

   => Energetics <=

    Nuclear Repulsion Energy =            188.5182134669796596
    One-Electron Energy =                -659.5463041323271227
    Two-Electron Energy =                 258.6326844184757192
    Total Energy =                       -212.3954062468717439
  Basis Set: (AUG-CC-PVTZ AUX)
    Blend: AUG-CC-PVTZ-RI
    Molecular point group: c1

    Geometry (in Angstrom), charge = 0, multiplicity = 1:

       Center              X                  Y                   Z               Mass
    ------------   -----------------  -----------------  -----------------  -----------------
         N            0.005422601388    -0.292413949891    -0.051516863113    14.003074004430
         C           -1.216739698612     0.524909850109     0.027528636887    12.000000000000
         C            1.214173301388     0.524909850109     0.027573636887    12.000000000000
         C           -2.449747698612    -0.363845149891    -0.026917363113    12.000000000000
         C            2.447176301388    -0.363844149891    -0.026937363113    12.000000000000
         H           -1.240418698612     1.147297850109     0.941039636887     1.007825032230
         H           -1.222015698612     1.218209850109    -0.821625363113     1.007825032230
         H            1.219437301388     1.218260850109    -0.821537363113     1.007825032230
         H            1.237847301388     1.147235850109     0.941123636887     1.007825032230
         H           -0.001300698612    -0.954023149891     0.695470636887     1.007825032230
         H           -2.443235698612    -0.957648149891    -0.943497363113     1.007825032230
         H           -2.472855698612    -1.050842149891     0.825378636887     1.007825032230
         H           -3.365431698612     0.233675850109     0.001406636887     1.007825032230
         H            2.470276301388    -1.050911149891     0.825303636887     1.007825032230
         H            2.440664301388    -0.957573149891    -0.943564363113     1.007825032230
         H            3.362864301388     0.233667850109     0.001440636887     1.007825032230

  Basis Set: AUG-CC-PVTZ
    Blend: AUG-CC-PVTZ
  Basis Set: (AUG-CC-PVTZ AUX)
    Blend: AUG-CC-PVTZ-JKFIT
	 Reference Energy          =    -212.3954062468717154 [Eh]
	 Singles Energy            =      -0.0000000000000000 [Eh]
	 Same-Spin Energy          =      -0.2217863141058009 [Eh]
	 Opposite-Spin Energy      =      -0.8120975421057308 [Eh]
	 Correlation Energy        =      -1.0338838562115318 [Eh]
	 Total Energy              =    -213.4292901030832468 [Eh]

	 ================> DF-SCS-MP2 Energies <==================
	-----------------------------------------------------------
	 SCS Same-Spin Scale       =       0.3333333333333333 [-]
	 SCS Opposite-Spin Scale   =       1.2000000000000000 [-]
	 SCS Same-Spin Energy      =      -0.0739287713686003 [Eh]
	 SCS Opposite-Spin Energy  =      -0.9745170505268770 [Eh]
	 SCS Correlation Energy    =      -1.0484458218954773 [Eh]
	 SCS Total Energy          =    -213.4438520687671996 [Eh]
	-----------------------------------------------------------

  Dipole Moment: [D]
     X:    -0.0265      Y:     0.4621      Z:     0.8717     Total:     0.9870

*** Psi4 exiting successfully. Buy a developer a beer!
