                               Psi4 1.3.2 release

  ==> Input File <==

--------------------------------------------------------------------------
#psi4
#
memory 32 gb

molecule  {
0 1
  N       -0.0063381    -0.2721740    -0.0987559
  C       -1.2154540     0.5201510     0.0227920
  C        1.2154590     0.5201510     0.0228370
  C       -2.4484620    -0.3686040    -0.0316540
  C        2.4484620    -0.3686030    -0.0316740
  H       -1.2391330     1.1425390     0.9363030
  H       -1.2207300     1.2134510    -0.8263620
  H        1.2207230     1.2135020    -0.8262740
  H        1.2391330     1.1424770     0.9363870
  H       -0.0000150    -0.9587820     0.6907340
  H       -2.4419500    -0.9624070    -0.9482340
  H       -2.4715700    -1.0556010     0.8206420
  H       -3.3641460     0.2289170    -0.0033300
  H        2.4715620    -1.0556700     0.8205670
  H        2.4419500    -0.9623320    -0.9483010
  H        3.3641500     0.2289090    -0.0032960
units angstrom
no_reorient  #important for SAPT in psi4, default
symmetry c1  #important for SAPT in psi4, default
}

set PROPERTIES_ORIGIN ["COM"]
properties('MP2/aug-cc-pvtz', properties = ['dipole'])
--------------------------------------------------------------------------

    Molecular point group: c1
  Charge       = 0
  Multiplicity = 1
  Basis Set: AUG-CC-PVTZ
    Blend: AUG-CC-PVTZ
  Basis Set: (AUG-CC-PVTZ AUX)
    Blend: AUG-CC-PVTZ-JKFIT

    Orbital Energies [Eh]
    ---------------------

    Doubly Occupied:

       1A    -15.541491     2A    -11.244443     3A    -11.243474
       4A    -11.211478     5A    -11.210858     6A     -1.204044
       7A     -1.027197     8A     -0.960263     9A     -0.828457
      10A     -0.814535    11A     -0.661088    12A     -0.627407
      13A     -0.597202    14A     -0.583547    15A     -0.551038
      16A     -0.520071    17A     -0.506574    18A     -0.483808
      19A     -0.481972    20A     -0.472401    21A     -0.371324

  @DF-RHF Final Energy:  -212.39368454083512

   => Energetics <=

    Nuclear Repulsion Energy =            188.6008973959735897
    One-Electron Energy =                -659.7038158939519690
    Two-Electron Energy =                 258.7092339571432831
    Total Energy =                       -212.3936845408351246
  Basis Set: (AUG-CC-PVTZ AUX)
    Blend: AUG-CC-PVTZ-RI
    Molecular point group: c1

    Geometry (in Angstrom), charge = 0, multiplicity = 1:

       Center              X                  Y                   Z               Mass
    ------------   -----------------  -----------------  -----------------  -----------------
         N           -0.005124252424    -0.272204643947    -0.085876272563    14.003074004430
         C           -1.214240152424     0.520120356053     0.035671627437    12.000000000000
         C            1.216672847576     0.520120356053     0.035716627437    12.000000000000
         C           -2.447248152424    -0.368634643947    -0.018774372563    12.000000000000
         C            2.449675847576    -0.368633643947    -0.018794372563    12.000000000000
         H           -1.237919152424     1.142508356053     0.949182627437     1.007825032230
         H           -1.219516152424     1.213420356053    -0.813482372563     1.007825032230
         H            1.221936847576     1.213471356053    -0.813394372563     1.007825032230
         H            1.240346847576     1.142446356053     0.949266627437     1.007825032230
         H            0.001198847576    -0.958812643947     0.703613627437     1.007825032230
         H           -2.440736152424    -0.962437643947    -0.935354372563     1.007825032230
         H           -2.470356152424    -1.055631643947     0.833521627437     1.007825032230
         H           -3.362932152424     0.228886356053     0.009549627437     1.007825032230
         H            2.472775847576    -1.055700643947     0.833446627437     1.007825032230
         H            2.443163847576    -0.962362643947    -0.935421372563     1.007825032230
         H            3.365363847576     0.228878356053     0.009583627437     1.007825032230

  Basis Set: AUG-CC-PVTZ
    Blend: AUG-CC-PVTZ
  Basis Set: (AUG-CC-PVTZ AUX)
    Blend: AUG-CC-PVTZ-JKFIT
	 Reference Energy          =    -212.3936845408351246 [Eh]
	 Singles Energy            =      -0.0000000000000000 [Eh]
	 Same-Spin Energy          =      -0.2222280259395207 [Eh]
	 Opposite-Spin Energy      =      -0.8129672628739177 [Eh]
	 Correlation Energy        =      -1.0351952888134384 [Eh]
	 Total Energy              =    -213.4288798296485652 [Eh]

	 ================> DF-SCS-MP2 Energies <==================
	-----------------------------------------------------------
	 SCS Same-Spin Scale       =       0.3333333333333333 [-]
	 SCS Opposite-Spin Scale   =       1.2000000000000000 [-]
	 SCS Same-Spin Energy      =      -0.0740760086465069 [Eh]
	 SCS Opposite-Spin Energy  =      -0.9755607154487013 [Eh]
	 SCS Correlation Energy    =      -1.0496367240952083 [Eh]
	 SCS Total Energy          =    -213.4433212649303186 [Eh]
	-----------------------------------------------------------

  Dipole Moment: [D]
     X:     0.0252      Y:     0.4336      Z:     0.9170     Total:     1.0147

*** Psi4 exiting successfully. Buy a developer a beer!
