                               Psi4 1.3.2 release

  ==> Input File <==

--------------------------------------------------------------------------
#psi4
#
memory 32 gb

molecule  {
0 1
  N        0.0000000    -0.2847960    -0.0775200
  C       -1.1240049     0.6418151     0.0379588
  C        1.2154590     0.5201510     0.0228370
  C       -2.4484620    -0.3686040    -0.0316540
  C        2.4484620    -0.3686030    -0.0316740
  H       -1.2391330     1.1425390     0.9363030
  H       -1.2207300     1.2134510    -0.8263620
  H        1.2207230     1.2135020    -0.8262740
  H        1.2391330     1.1424770     0.9363870
  H       -0.0000150    -0.9587820     0.6907340
  H       -2.4419500    -0.9624070    -0.9482340
  H       -2.4715700    -1.0556010     0.8206420
  H       -3.3641460     0.2289170    -0.0033300
  H        2.4715620    -1.0556700     0.8205670
  H        2.4419500    -0.9623320    -0.9483010
  H        3.3641500     0.2289090    -0.0032960
units angstrom
no_reorient  #important for SAPT in psi4, default
symmetry c1  #important for SAPT in psi4, default
}

set PROPERTIES_ORIGIN ["COM"]
properties('MP2/aug-cc-pvtz', properties = ['dipole'])
--------------------------------------------------------------------------

    Molecular point group: c1
  Charge       = 0
  Multiplicity = 1
  Basis Set: AUG-CC-PVTZ
    Blend: AUG-CC-PVTZ
  Basis Set: (AUG-CC-PVTZ AUX)
    Blend: AUG-CC-PVTZ-JKFIT

    Orbital Energies [Eh]
    ---------------------

    Doubly Occupied:

       1A    -15.540882     2A    -11.242464     3A    -11.241285
       4A    -11.212253     5A    -11.209850     6A     -1.205300
       7A     -1.014570     8A     -0.946657     9A     -0.838516
      10A     -0.821889    11A     -0.671351    12A     -0.621800
      13A     -0.600458    14A     -0.584970    15A     -0.542764
      16A     -0.521151    17A     -0.506085    18A     -0.499461
      19A     -0.487767    20A     -0.432407    21A     -0.377240

  @DF-RHF Final Energy:  -212.37428573858639

   => Energetics <=

    Nuclear Repulsion Energy =            188.0371655424402491
    One-Electron Energy =                -658.5846578485716236
    Two-Electron Energy =                 258.1732065675449803
    Total Energy =                       -212.3742857385864227
  Basis Set: (AUG-CC-PVTZ AUX)
    Blend: AUG-CC-PVTZ-RI
    Molecular point group: c1

    Geometry (in Angstrom), charge = 0, multiplicity = 1:

       Center              X                  Y                   Z               Mass
    ------------   -----------------  -----------------  -----------------  -----------------
         N           -0.015014855231    -0.302383592019    -0.071199068121    14.003074004430
         C           -1.139019755231     0.624227507981     0.044279731879    12.000000000000
         C            1.200444144769     0.502563407981     0.029157931879    12.000000000000
         C           -2.463476855231    -0.386191592019    -0.025333068121    12.000000000000
         C            2.433447144769    -0.386190592019    -0.025353068121    12.000000000000
         H           -1.254147855231     1.124951407981     0.942623931879     1.007825032230
         H           -1.235744855231     1.195863407981    -0.820041068121     1.007825032230
         H            1.205708144769     1.195914407981    -0.819953068121     1.007825032230
         H            1.224118144769     1.124889407981     0.942707931879     1.007825032230
         H           -0.015029855231    -0.976369592019     0.697054931879     1.007825032230
         H           -2.456964855231    -0.979994592019    -0.941913068121     1.007825032230
         H           -2.486584855231    -1.073188592019     0.826962931879     1.007825032230
         H           -3.379160855231     0.211329407981     0.002990931879     1.007825032230
         H            2.456547144769    -1.073257592019     0.826887931879     1.007825032230
         H            2.426935144769    -0.979919592019    -0.941980068121     1.007825032230
         H            3.349135144769     0.211321407981     0.003024931879     1.007825032230

  Basis Set: AUG-CC-PVTZ
    Blend: AUG-CC-PVTZ
  Basis Set: (AUG-CC-PVTZ AUX)
    Blend: AUG-CC-PVTZ-JKFIT
	 Reference Energy          =    -212.3742857385863942 [Eh]
	 Singles Energy            =      -0.0000000000000000 [Eh]
	 Same-Spin Energy          =      -0.2221112718880930 [Eh]
	 Opposite-Spin Energy      =      -0.8137979400185422 [Eh]
	 Correlation Energy        =      -1.0359092119066351 [Eh]
	 Total Energy              =    -213.4101949504930360 [Eh]

	 ================> DF-SCS-MP2 Energies <==================
	-----------------------------------------------------------
	 SCS Same-Spin Scale       =       0.3333333333333333 [-]
	 SCS Opposite-Spin Scale   =       1.2000000000000000 [-]
	 SCS Same-Spin Energy      =      -0.0740370906293643 [Eh]
	 SCS Opposite-Spin Energy  =      -0.9765575280222506 [Eh]
	 SCS Correlation Energy    =      -1.0505946186516149 [Eh]
	 SCS Total Energy          =    -213.4248803572380098 [Eh]
	-----------------------------------------------------------

  Dipole Moment: [D]
     X:     0.1055      Y:     0.5509      Z:     0.9431     Total:     1.0973

*** Psi4 exiting successfully. Buy a developer a beer!
