                               Psi4 1.3.2 release

  ==> Input File <==

--------------------------------------------------------------------------
#psi4
#
memory 32 gb

molecule  {
0 1
  N       -0.0123039    -0.2593106    -0.1199547
  C       -1.2154540     0.5201510     0.0227920
  C        1.2154590     0.5201510     0.0228370
  C       -2.4484620    -0.3686040    -0.0316540
  C        2.4484620    -0.3686030    -0.0316740
  H       -1.2391330     1.1425390     0.9363030
  H       -1.2207300     1.2134510    -0.8263620
  H        1.2207230     1.2135020    -0.8262740
  H        1.2391330     1.1424770     0.9363870
  H       -0.0000150    -0.9587820     0.6907340
  H       -2.4419500    -0.9624070    -0.9482340
  H       -2.4715700    -1.0556010     0.8206420
  H       -3.3641460     0.2289170    -0.0033300
  H        2.4715620    -1.0556700     0.8205670
  H        2.4419500    -0.9623320    -0.9483010
  H        3.3641500     0.2289090    -0.0032960
units angstrom
no_reorient  #important for SAPT in psi4, default
symmetry c1  #important for SAPT in psi4, default
}

set PROPERTIES_ORIGIN ["COM"]
properties('MP2/aug-cc-pvtz', properties = ['dipole'])
--------------------------------------------------------------------------

    Molecular point group: c1
  Charge       = 0
  Multiplicity = 1
  Basis Set: AUG-CC-PVTZ
    Blend: AUG-CC-PVTZ
  Basis Set: (AUG-CC-PVTZ AUX)
    Blend: AUG-CC-PVTZ-JKFIT

    Orbital Energies [Eh]
    ---------------------

    Doubly Occupied:

       1A    -15.544394     2A    -11.244781     3A    -11.242852
       4A    -11.212065     5A    -11.210851     6A     -1.205140
       7A     -1.027917     8A     -0.959848     9A     -0.829743
      10A     -0.811173    11A     -0.661676    12A     -0.628615
      13A     -0.597277    14A     -0.582546    15A     -0.550020
      16A     -0.520334    17A     -0.506863    18A     -0.484536
      19A     -0.478816    20A     -0.472489    21A     -0.372751

  @DF-RHF Final Energy:  -212.39083652545770

   => Energetics <=

    Nuclear Repulsion Energy =            188.6381860683349601
    One-Electron Energy =                -659.7686697203398580
    Two-Electron Energy =                 258.7396471265471973
    Total Energy =                       -212.3908365254577006
  Basis Set: (AUG-CC-PVTZ AUX)
    Blend: AUG-CC-PVTZ-RI
    Molecular point group: c1

    Geometry (in Angstrom), charge = 0, multiplicity = 1:

       Center              X                  Y                   Z               Mass
    ------------   -----------------  -----------------  -----------------  -----------------
         N           -0.009947071015    -0.261805729356    -0.103013616549    14.003074004430
         C           -1.213097171015     0.517655870644     0.039733083451    12.000000000000
         C            1.217815828985     0.517655870644     0.039778083451    12.000000000000
         C           -2.446105171015    -0.371099129356    -0.014712916549    12.000000000000
         C            2.450818828985    -0.371098129356    -0.014732916549    12.000000000000
         H           -1.236776171015     1.140043870644     0.953244083451     1.007825032230
         H           -1.218373171015     1.210955870644    -0.809420916549     1.007825032230
         H            1.223079828985     1.211006870644    -0.809332916549     1.007825032230
         H            1.241489828985     1.139981870644     0.953328083451     1.007825032230
         H            0.002341828985    -0.961277129356     0.707675083451     1.007825032230
         H           -2.439593171015    -0.964902129356    -0.931292916549     1.007825032230
         H           -2.469213171015    -1.058096129356     0.837583083451     1.007825032230
         H           -3.361789171015     0.226421870644     0.013611083451     1.007825032230
         H            2.473918828985    -1.058165129356     0.837508083451     1.007825032230
         H            2.444306828985    -0.964827129356    -0.931359916549     1.007825032230
         H            3.366506828985     0.226413870644     0.013645083451     1.007825032230

  Basis Set: AUG-CC-PVTZ
    Blend: AUG-CC-PVTZ
  Basis Set: (AUG-CC-PVTZ AUX)
    Blend: AUG-CC-PVTZ-JKFIT
	 Reference Energy          =    -212.3908365254577006 [Eh]
	 Singles Energy            =      -0.0000000000000000 [Eh]
	 Same-Spin Energy          =      -0.2224764439049217 [Eh]
	 Opposite-Spin Energy      =      -0.8135075418118147 [Eh]
	 Correlation Energy        =      -1.0359839857167363 [Eh]
	 Total Energy              =    -213.4268205111744408 [Eh]

	 ================> DF-SCS-MP2 Energies <==================
	-----------------------------------------------------------
	 SCS Same-Spin Scale       =       0.3333333333333333 [-]
	 SCS Opposite-Spin Scale   =       1.2000000000000000 [-]
	 SCS Same-Spin Energy      =      -0.0741588146349739 [Eh]
	 SCS Opposite-Spin Energy  =      -0.9762090501741776 [Eh]
	 SCS Correlation Energy    =      -1.0503678648091515 [Eh]
	 SCS Total Energy          =    -213.4412043902668472 [Eh]
	-----------------------------------------------------------

  Dipole Moment: [D]
     X:     0.0490      Y:     0.4229      Z:     0.9372     Total:     1.0294

*** Psi4 exiting successfully. Buy a developer a beer!
