                               Psi4 1.4a3.dev225

  ==> Input File <==

--------------------------------------------------------------------------
#psi4
#
memory 32 gb

molecule  {
0 1
  N        0.0000000    -0.2847950    -0.0775760
  C       -1.2154030     0.5201030     0.0228060
  C        1.2154030     0.5201010     0.0228200
  C       -2.4484650    -0.3685770    -0.0316320
  C        2.4484650    -0.3685770    -0.0316380
  H       -1.2391130     1.1424540     0.9363620
  H       -1.2207100     1.2134400    -0.8263160
  H        1.2207070     1.2134550    -0.8262890
  H        1.2391140     1.1424360     0.9363880
  H       -0.0000049    -0.9457462     0.6755014
  H       -2.4420630    -0.9624210    -0.9481910
  H       -2.4717160    -1.0555150     0.8206980
  H       -3.3640250     0.2291450    -0.0033800
  H        2.4717150    -1.0555360     0.8206740
  H        2.4420660    -0.9623970    -0.9482130
  H        3.3640260     0.2291450    -0.0033680
units angstrom
no_reorient  #important for SAPT in psi4, default
symmetry c1  #important for SAPT in psi4, default
}

set PROPERTIES_ORIGIN ["COM"]
properties('MP2/aug-cc-pvtz', properties = ['dipole'])
--------------------------------------------------------------------------

    Molecular point group: c1
  Charge       = 0
  Multiplicity = 1
  Basis Set: AUG-CC-PVTZ
    Blend: AUG-CC-PVTZ
  Basis Set: (AUG-CC-PVTZ AUX)
    Blend: AUG-CC-PVTZ-JKFIT

    Orbital Energies [Eh]
    ---------------------

    Doubly Occupied:

       1A    -15.536262     2A    -11.244108     3A    -11.244092
       4A    -11.210934     5A    -11.210933     6A     -1.205350
       7A     -1.026522     8A     -0.961706     9A     -0.827207
      10A     -0.820338    11A     -0.661589    12A     -0.626325
      13A     -0.597090    14A     -0.586192    15A     -0.552575
      16A     -0.520067    17A     -0.506362    18A     -0.488190
      19A     -0.480829    20A     -0.471661    21A     -0.370151

  @DF-RHF Final Energy:  -212.39564760989217

   => Energetics <=

    Nuclear Repulsion Energy =            188.6695594050021612
    One-Electron Energy =                -659.8334445188115751
    Two-Electron Energy =                 258.7682375039172484
    Total Energy =                       -212.3956476098921939
  Basis Set: (AUG-CC-PVTZ AUX)
    Blend: AUG-CC-PVTZ-RI
    Molecular point group: c1

    Geometry (in Angstrom), charge = 0, multiplicity = 1:

       Center              X                  Y                   Z               Mass
    ------------   -----------------  -----------------  -----------------  -----------------
         N            0.000000053777    -0.282585767050    -0.068556822054    14.003074004430
         C           -1.215402946223     0.522312232950     0.031825177946    12.000000000000
         C            1.215403053777     0.522310232950     0.031839177946    12.000000000000
         C           -2.448464946223    -0.366367767050    -0.022612822054    12.000000000000
         C            2.448465053777    -0.366367767050    -0.022618822054    12.000000000000
         H           -1.239112946223     1.144663232950     0.945381177946     1.007825032230
         H           -1.220709946223     1.215649232950    -0.817296822054     1.007825032230
         H            1.220707053777     1.215664232950    -0.817269822054     1.007825032230
         H            1.239114053777     1.144645232950     0.945407177946     1.007825032230
         H           -0.000004846223    -0.943536967050     0.684520577946     1.007825032230
         H           -2.442062946223    -0.960211767050    -0.939171822054     1.007825032230
         H           -2.471715946223    -1.053305767050     0.829717177946     1.007825032230
         H           -3.364024946223     0.231354232950     0.005639177946     1.007825032230
         H            2.471715053777    -1.053326767050     0.829693177946     1.007825032230
         H            2.442066053777    -0.960187767050    -0.939193822054     1.007825032230
         H            3.364026053777     0.231354232950     0.005651177946     1.007825032230

  Basis Set: AUG-CC-PVTZ
    Blend: AUG-CC-PVTZ
  Basis Set: (AUG-CC-PVTZ AUX)
    Blend: AUG-CC-PVTZ-JKFIT
	 Reference Energy          =    -212.3956476098921655 [Eh]
	 Singles Energy            =      -0.0000000000000000 [Eh]
	 Same-Spin Energy          =      -0.2218768114304478 [Eh]
	 Opposite-Spin Energy      =      -0.8121469493363225 [Eh]
	 Correlation Energy        =      -1.0340237607667704 [Eh]
	 Total Energy              =    -213.4296713706589230 [Eh]

	 ================> DF-SCS-MP2 Energies <==================
	-----------------------------------------------------------
	 SCS Same-Spin Scale       =       0.3333333333333333 [-]
	 SCS Opposite-Spin Scale   =       1.2000000000000000 [-]
	 SCS Same-Spin Energy      =      -0.0739589371434826 [Eh]
	 SCS Opposite-Spin Energy  =      -0.9745763392035869 [Eh]
	 SCS Correlation Energy    =      -1.0485352763470694 [Eh]
	 SCS Total Energy          =    -213.4441828862392470 [Eh]
	-----------------------------------------------------------

  Dipole Moment: [D]
     X:    -0.0000      Y:     0.4460      Z:     0.8945     Total:     0.9995

*** Psi4 exiting successfully. Buy a developer a beer!
