                               Psi4 1.3.2 release

  ==> Input File <==

--------------------------------------------------------------------------
#psi4
#
memory 32 gb

molecule  {
0 1
  N        0.0000000    -0.2847960    -0.0775200
  C       -1.2430231     0.4775677     0.0174836
  C        1.2154590     0.5201510     0.0228370
  C       -2.4484620    -0.3686040    -0.0316540
  C        2.4484620    -0.3686030    -0.0316740
  H       -1.2391330     1.1425390     0.9363030
  H       -1.2207300     1.2134510    -0.8263620
  H        1.2207230     1.2135020    -0.8262740
  H        1.2391330     1.1424770     0.9363870
  H       -0.0000150    -0.9587820     0.6907340
  H       -2.4419500    -0.9624070    -0.9482340
  H       -2.4715700    -1.0556010     0.8206420
  H       -3.3641460     0.2289170    -0.0033300
  H        2.4715620    -1.0556700     0.8205670
  H        2.4419500    -0.9623320    -0.9483010
  H        3.3641500     0.2289090    -0.0032960
units angstrom
no_reorient  #important for SAPT in psi4, default
symmetry c1  #important for SAPT in psi4, default
}

set PROPERTIES_ORIGIN ["COM"]
properties('MP2/aug-cc-pvtz', properties = ['dipole'])
--------------------------------------------------------------------------

    Molecular point group: c1
  Charge       = 0
  Multiplicity = 1
  Basis Set: AUG-CC-PVTZ
    Blend: AUG-CC-PVTZ
  Basis Set: (AUG-CC-PVTZ AUX)
    Blend: AUG-CC-PVTZ-JKFIT

    Orbital Energies [Eh]
    ---------------------

    Doubly Occupied:

       1A    -15.538478     2A    -11.246830     3A    -11.245151
       4A    -11.211387     5A    -11.210141     6A     -1.203163
       7A     -1.032793     8A     -0.965889     9A     -0.826848
      10A     -0.812981    11A     -0.658480    12A     -0.628315
      13A     -0.597449    14A     -0.588044    15A     -0.555676
      16A     -0.519813    17A     -0.505997    18A     -0.487858
      19A     -0.482186    20A     -0.470233    21A     -0.366473

  @DF-RHF Final Energy:  -212.39207212698301

   => Energetics <=

    Nuclear Repulsion Energy =            188.7751199119406067
    One-Electron Energy =                -660.0260153946492210
    Two-Electron Energy =                 258.8588233557256331
    Total Energy =                       -212.3920721269830096
  Basis Set: (AUG-CC-PVTZ AUX)
    Blend: AUG-CC-PVTZ-RI
    Molecular point group: c1

    Geometry (in Angstrom), charge = 0, multiplicity = 1:

       Center              X                  Y                   Z               Mass
    ------------   -----------------  -----------------  -----------------  -----------------
         N            0.004525916724    -0.275416951727    -0.067837387185    14.003074004430
         C           -1.238497183276     0.486946748273     0.027166212815    12.000000000000
         C            1.219984916724     0.529530048273     0.032519612815    12.000000000000
         C           -2.443936083276    -0.359224951727    -0.021971387185    12.000000000000
         C            2.452987916724    -0.359223951727    -0.021991387185    12.000000000000
         H           -1.234607083276     1.151918048273     0.945985612815     1.007825032230
         H           -1.216204083276     1.222830048273    -0.816679387185     1.007825032230
         H            1.225248916724     1.222881048273    -0.816591387185     1.007825032230
         H            1.243658916724     1.151856048273     0.946069612815     1.007825032230
         H            0.004510916724    -0.949402951727     0.700416612815     1.007825032230
         H           -2.437424083276    -0.953027951727    -0.938551387185     1.007825032230
         H           -2.467044083276    -1.046221951727     0.830324612815     1.007825032230
         H           -3.359620083276     0.238296048273     0.006352612815     1.007825032230
         H            2.476087916724    -1.046290951727     0.830249612815     1.007825032230
         H            2.446475916724    -0.952952951727    -0.938618387185     1.007825032230
         H            3.368675916724     0.238288048273     0.006386612815     1.007825032230

  Basis Set: AUG-CC-PVTZ
    Blend: AUG-CC-PVTZ
  Basis Set: (AUG-CC-PVTZ AUX)
    Blend: AUG-CC-PVTZ-JKFIT
	 Reference Energy          =    -212.3920721269830096 [Eh]
	 Singles Energy            =      -0.0000000000000000 [Eh]
	 Same-Spin Energy          =      -0.2223369699886032 [Eh]
	 Opposite-Spin Energy      =      -0.8128094825537719 [Eh]
	 Correlation Energy        =      -1.0351464525423750 [Eh]
	 Total Energy              =    -213.4272185795253733 [Eh]

	 ================> DF-SCS-MP2 Energies <==================
	-----------------------------------------------------------
	 SCS Same-Spin Scale       =       0.3333333333333333 [-]
	 SCS Opposite-Spin Scale   =       1.2000000000000000 [-]
	 SCS Same-Spin Energy      =      -0.0741123233295344 [Eh]
	 SCS Opposite-Spin Energy  =      -0.9753713790645263 [Eh]
	 SCS Correlation Energy    =      -1.0494837023940606 [Eh]
	 SCS Total Energy          =    -213.4415558293770800 [Eh]
	-----------------------------------------------------------

  Dipole Moment: [D]
     X:    -0.0287      Y:     0.3959      Z:     0.8739     Total:     0.9598

*** Psi4 exiting successfully. Buy a developer a beer!
