                               Psi4 1.3.2 release

  ==> Input File <==

--------------------------------------------------------------------------
#psi4
#
memory 32 gb

molecule  {
0 1
  N        0.0000000    -0.2847960    -0.0775200
  C       -1.2007995     0.5458415    -0.0187630
  C        1.2154590     0.5201510     0.0228370
  C       -2.4484620    -0.3686040    -0.0316540
  C        2.4484620    -0.3686030    -0.0316740
  H       -1.2391330     1.1425390     0.9363030
  H       -1.2207300     1.2134510    -0.8263620
  H        1.2207230     1.2135020    -0.8262740
  H        1.2391330     1.1424770     0.9363870
  H       -0.0000150    -0.9587820     0.6907340
  H       -2.4419500    -0.9624070    -0.9482340
  H       -2.4715700    -1.0556010     0.8206420
  H       -3.3641460     0.2289170    -0.0033300
  H        2.4715620    -1.0556700     0.8205670
  H        2.4419500    -0.9623320    -0.9483010
  H        3.3641500     0.2289090    -0.0032960
units angstrom
no_reorient  #important for SAPT in psi4, default
symmetry c1  #important for SAPT in psi4, default
}

set PROPERTIES_ORIGIN ["COM"]
properties('MP2/aug-cc-pvtz', properties = ['dipole'])
--------------------------------------------------------------------------

    Molecular point group: c1
  Charge       = 0
  Multiplicity = 1
  Basis Set: AUG-CC-PVTZ
    Blend: AUG-CC-PVTZ
  Basis Set: (AUG-CC-PVTZ AUX)
    Blend: AUG-CC-PVTZ-JKFIT

    Orbital Energies [Eh]
    ---------------------

    Doubly Occupied:

       1A    -15.538400     2A    -11.243807     3A    -11.243608
       4A    -11.211614     5A    -11.210494     6A     -1.202611
       7A     -1.023815     8A     -0.958174     9A     -0.829482
      10A     -0.820614    11A     -0.659434    12A     -0.625731
      13A     -0.597483    14A     -0.585361    15A     -0.550208
      16A     -0.518286    17A     -0.508622    18A     -0.495486
      19A     -0.481650    20A     -0.464803    21A     -0.367790

  @DF-RHF Final Energy:  -212.39257915637336

   => Energetics <=

    Nuclear Repulsion Energy =            188.4429313633915797
    One-Electron Energy =                -659.3960733025072614
    Two-Electron Energy =                 258.5605627827422950
    Total Energy =                       -212.3925791563733583
  Basis Set: (AUG-CC-PVTZ AUX)
    Blend: AUG-CC-PVTZ-RI
    Molecular point group: c1

    Geometry (in Angstrom), charge = 0, multiplicity = 1:

       Center              X                  Y                   Z               Mass
    ------------   -----------------  -----------------  -----------------  -----------------
         N           -0.002406483015    -0.286626352947    -0.061886309579    14.003074004430
         C           -1.203205983015     0.544011147053    -0.003129309579    12.000000000000
         C            1.213052516985     0.518320647053     0.038470690421    12.000000000000
         C           -2.450868483015    -0.370434352947    -0.016020309579    12.000000000000
         C            2.446055516985    -0.370433352947    -0.016040309579    12.000000000000
         H           -1.241539483015     1.140708647053     0.951936690421     1.007825032230
         H           -1.223136483015     1.211620647053    -0.810728309579     1.007825032230
         H            1.218316516985     1.211671647053    -0.810640309579     1.007825032230
         H            1.236726516985     1.140646647053     0.952020690421     1.007825032230
         H           -0.002421483015    -0.960612352947     0.706367690421     1.007825032230
         H           -2.444356483015    -0.964237352947    -0.932600309579     1.007825032230
         H           -2.473976483015    -1.057431352947     0.836275690421     1.007825032230
         H           -3.366552483015     0.227086647053     0.012303690421     1.007825032230
         H            2.469155516985    -1.057500352947     0.836200690421     1.007825032230
         H            2.439543516985    -0.964162352947    -0.932667309579     1.007825032230
         H            3.361743516985     0.227078647053     0.012337690421     1.007825032230

  Basis Set: AUG-CC-PVTZ
    Blend: AUG-CC-PVTZ
  Basis Set: (AUG-CC-PVTZ AUX)
    Blend: AUG-CC-PVTZ-JKFIT
	 Reference Energy          =    -212.3925791563733583 [Eh]
	 Singles Energy            =      -0.0000000000000000 [Eh]
	 Same-Spin Energy          =      -0.2218739543618632 [Eh]
	 Opposite-Spin Energy      =      -0.8124377227002337 [Eh]
	 Correlation Energy        =      -1.0343116770620970 [Eh]
	 Total Energy              =    -213.4268908334354649 [Eh]

	 ================> DF-SCS-MP2 Energies <==================
	-----------------------------------------------------------
	 SCS Same-Spin Scale       =       0.3333333333333333 [-]
	 SCS Opposite-Spin Scale   =       1.2000000000000000 [-]
	 SCS Same-Spin Energy      =      -0.0739579847872877 [Eh]
	 SCS Opposite-Spin Energy  =      -0.9749252672402804 [Eh]
	 SCS Correlation Energy    =      -1.0488832520275682 [Eh]
	 SCS Total Energy          =    -213.4414624084009233 [Eh]
	-----------------------------------------------------------

  Dipole Moment: [D]
     X:     0.0021      Y:     0.4563      Z:     0.8468     Total:     0.9619

*** Psi4 exiting successfully. Buy a developer a beer!
