                               Psi4 1.3.2 release

  ==> Input File <==

--------------------------------------------------------------------------
#psi4
#
memory 32 gb

molecule  {
0 1
  N       -0.0275475    -0.2419976    -0.0741992
  C       -1.2154540     0.5201510     0.0227920
  C        1.2154590     0.5201510     0.0228370
  C       -2.4484620    -0.3686040    -0.0316540
  C        2.4484620    -0.3686030    -0.0316740
  H       -1.2391330     1.1425390     0.9363030
  H       -1.2207300     1.2134510    -0.8263620
  H        1.2207230     1.2135020    -0.8262740
  H        1.2391330     1.1424770     0.9363870
  H       -0.0000150    -0.9587820     0.6907340
  H       -2.4419500    -0.9624070    -0.9482340
  H       -2.4715700    -1.0556010     0.8206420
  H       -3.3641460     0.2289170    -0.0033300
  H        2.4715620    -1.0556700     0.8205670
  H        2.4419500    -0.9623320    -0.9483010
  H        3.3641500     0.2289090    -0.0032960
units angstrom
no_reorient  #important for SAPT in psi4, default
symmetry c1  #important for SAPT in psi4, default
}

set PROPERTIES_ORIGIN ["COM"]
properties('MP2/aug-cc-pvtz', properties = ['dipole'])
--------------------------------------------------------------------------

    Molecular point group: c1
  Charge       = 0
  Multiplicity = 1
  Basis Set: AUG-CC-PVTZ
    Blend: AUG-CC-PVTZ
  Basis Set: (AUG-CC-PVTZ AUX)
    Blend: AUG-CC-PVTZ-JKFIT

    Orbital Energies [Eh]
    ---------------------

    Doubly Occupied:

       1A    -15.537997     2A    -11.245256     3A    -11.240825
       4A    -11.213132     5A    -11.210353     6A     -1.210347
       7A     -1.028790     8A     -0.960557     9A     -0.831681
      10A     -0.813271    11A     -0.662232    12A     -0.630131
      13A     -0.597518    14A     -0.588430    15A     -0.551270
      16A     -0.520719    17A     -0.507341    18A     -0.487639
      19A     -0.480107    20A     -0.475408    21A     -0.363600

  @DF-RHF Final Energy:  -212.39299321698257

   => Energetics <=

    Nuclear Repulsion Energy =            189.0396936739671787
    One-Electron Energy =                -660.5521706468188086
    Two-Electron Energy =                 259.1194837558690551
    Total Energy =                       -212.3929932169825747
  Basis Set: (AUG-CC-PVTZ AUX)
    Blend: AUG-CC-PVTZ-RI
    Molecular point group: c1

    Geometry (in Angstrom), charge = 0, multiplicity = 1:

       Center              X                  Y                   Z               Mass
    ------------   -----------------  -----------------  -----------------  -----------------
         N           -0.022270165567    -0.247809708995    -0.066024365140    14.003074004430
         C           -1.210176665567     0.514338891005     0.030966834860    12.000000000000
         C            1.220736334433     0.514338891005     0.031011834860    12.000000000000
         C           -2.443184665567    -0.374416108995    -0.023479165140    12.000000000000
         C            2.453739334433    -0.374415108995    -0.023499165140    12.000000000000
         H           -1.233855665567     1.136726891005     0.944477834860     1.007825032230
         H           -1.215452665567     1.207638891005    -0.818187165140     1.007825032230
         H            1.226000334433     1.207689891005    -0.818099165140     1.007825032230
         H            1.244410334433     1.136664891005     0.944561834860     1.007825032230
         H            0.005262334433    -0.964594108995     0.698908834860     1.007825032230
         H           -2.436672665567    -0.968219108995    -0.940059165140     1.007825032230
         H           -2.466292665567    -1.061413108995     0.828816834860     1.007825032230
         H           -3.358868665567     0.223104891005     0.004844834860     1.007825032230
         H            2.476839334433    -1.061482108995     0.828741834860     1.007825032230
         H            2.447227334433    -0.968144108995    -0.940126165140     1.007825032230
         H            3.369427334433     0.223096891005     0.004878834860     1.007825032230

  Basis Set: AUG-CC-PVTZ
    Blend: AUG-CC-PVTZ
  Basis Set: (AUG-CC-PVTZ AUX)
    Blend: AUG-CC-PVTZ-JKFIT
	 Reference Energy          =    -212.3929932169825747 [Eh]
	 Singles Energy            =      -0.0000000000000000 [Eh]
	 Same-Spin Energy          =      -0.2222931169178458 [Eh]
	 Opposite-Spin Energy      =      -0.8124592063907304 [Eh]
	 Correlation Energy        =      -1.0347523233085762 [Eh]
	 Total Energy              =    -213.4277455402911414 [Eh]

	 ================> DF-SCS-MP2 Energies <==================
	-----------------------------------------------------------
	 SCS Same-Spin Scale       =       0.3333333333333333 [-]
	 SCS Opposite-Spin Scale   =       1.2000000000000000 [-]
	 SCS Same-Spin Energy      =      -0.0740977056392819 [Eh]
	 SCS Opposite-Spin Energy  =      -0.9749510476688765 [Eh]
	 SCS Correlation Energy    =      -1.0490487533081585 [Eh]
	 SCS Total Energy          =    -213.4420419702907452 [Eh]
	-----------------------------------------------------------

  Dipole Moment: [D]
     X:     0.1155      Y:     0.3365      Z:     0.8488     Total:     0.9203

*** Psi4 exiting successfully. Buy a developer a beer!
