                               Psi4 1.3.2 release

  ==> Input File <==

--------------------------------------------------------------------------
#psi4
#
memory 32 gb

molecule  {
0 1
  N        0.0000000    -0.2847960    -0.0775200
  C       -1.2286276     0.4934798     0.0642248
  C        1.2154590     0.5201510     0.0228370
  C       -2.4484620    -0.3686040    -0.0316540
  C        2.4484620    -0.3686030    -0.0316740
  H       -1.2391330     1.1425390     0.9363030
  H       -1.2207300     1.2134510    -0.8263620
  H        1.2207230     1.2135020    -0.8262740
  H        1.2391330     1.1424770     0.9363870
  H       -0.0000150    -0.9587820     0.6907340
  H       -2.4419500    -0.9624070    -0.9482340
  H       -2.4715700    -1.0556010     0.8206420
  H       -3.3641460     0.2289170    -0.0033300
  H        2.4715620    -1.0556700     0.8205670
  H        2.4419500    -0.9623320    -0.9483010
  H        3.3641500     0.2289090    -0.0032960
units angstrom
no_reorient  #important for SAPT in psi4, default
symmetry c1  #important for SAPT in psi4, default
}

set PROPERTIES_ORIGIN ["COM"]
properties('MP2/aug-cc-pvtz', properties = ['dipole'])
--------------------------------------------------------------------------

    Molecular point group: c1
  Charge       = 0
  Multiplicity = 1
  Basis Set: AUG-CC-PVTZ
    Blend: AUG-CC-PVTZ
  Basis Set: (AUG-CC-PVTZ AUX)
    Blend: AUG-CC-PVTZ-JKFIT

    Orbital Energies [Eh]
    ---------------------

    Doubly Occupied:

       1A    -15.539248     2A    -11.245407     3A    -11.244871
       4A    -11.211355     5A    -11.210501     6A     -1.203991
       7A     -1.029554     8A     -0.963596     9A     -0.827116
      10A     -0.814775    11A     -0.661370    12A     -0.628358
      13A     -0.596865    14A     -0.584620    15A     -0.553987
      16A     -0.522437    17A     -0.506907    18A     -0.484804
      19A     -0.478671    20A     -0.468483    21A     -0.371712

  @DF-RHF Final Energy:  -212.39199202881369

   => Energetics <=

    Nuclear Repulsion Energy =            188.6779007519169511
    One-Electron Energy =                -659.8425260140409137
    Two-Electron Energy =                 258.7726332333103301
    Total Energy =                       -212.3919920288136609
  Basis Set: (AUG-CC-PVTZ AUX)
    Blend: AUG-CC-PVTZ-RI
    Molecular point group: c1

    Geometry (in Angstrom), charge = 0, multiplicity = 1:

       Center              X                  Y                   Z               Mass
    ------------   -----------------  -----------------  -----------------  -----------------
         N            0.002162419522    -0.278029448954    -0.075511500305    14.003074004430
         C           -1.226465180478     0.500246351046     0.066233299695    12.000000000000
         C            1.217621419522     0.526917551046     0.024845499695    12.000000000000
         C           -2.446299580478    -0.361837448954    -0.029645500305    12.000000000000
         C            2.450624419522    -0.361836448954    -0.029665500305    12.000000000000
         H           -1.236970580478     1.149305551046     0.938311499695     1.007825032230
         H           -1.218567580478     1.220217551046    -0.824353500305     1.007825032230
         H            1.222885419522     1.220268551046    -0.824265500305     1.007825032230
         H            1.241295419522     1.149243551046     0.938395499695     1.007825032230
         H            0.002147419522    -0.952015448954     0.692742499695     1.007825032230
         H           -2.439787580478    -0.955640448954    -0.946225500305     1.007825032230
         H           -2.469407580478    -1.048834448954     0.822650499695     1.007825032230
         H           -3.361983580478     0.235683551046    -0.001321500305     1.007825032230
         H            2.473724419522    -1.048903448954     0.822575499695     1.007825032230
         H            2.444112419522    -0.955565448954    -0.946292500305     1.007825032230
         H            3.366312419522     0.235675551046    -0.001287500305     1.007825032230

  Basis Set: AUG-CC-PVTZ
    Blend: AUG-CC-PVTZ
  Basis Set: (AUG-CC-PVTZ AUX)
    Blend: AUG-CC-PVTZ-JKFIT
	 Reference Energy          =    -212.3919920288136893 [Eh]
	 Singles Energy            =      -0.0000000000000000 [Eh]
	 Same-Spin Energy          =      -0.2222366592639752 [Eh]
	 Opposite-Spin Energy      =      -0.8128754893070538 [Eh]
	 Correlation Energy        =      -1.0351121485710291 [Eh]
	 Total Energy              =    -213.4271041773847060 [Eh]

	 ================> DF-SCS-MP2 Energies <==================
	-----------------------------------------------------------
	 SCS Same-Spin Scale       =       0.3333333333333333 [-]
	 SCS Opposite-Spin Scale   =       1.2000000000000000 [-]
	 SCS Same-Spin Energy      =      -0.0740788864213251 [Eh]
	 SCS Opposite-Spin Energy  =      -0.9754505871684644 [Eh]
	 SCS Correlation Energy    =      -1.0495294735897895 [Eh]
	 SCS Total Energy          =    -213.4415215024034751 [Eh]
	-----------------------------------------------------------

  Dipole Moment: [D]
     X:     0.0031      Y:     0.4250      Z:     0.9464     Total:     1.0375

*** Psi4 exiting successfully. Buy a developer a beer!
