                               Psi4 1.4a3.dev225

  ==> Input File <==

--------------------------------------------------------------------------
#psi4
#
memory 32 gb

molecule  {
0 1
  N        0.0000000    -0.2847950    -0.0775760
  C       -1.1987675     0.5090861     0.0214320
  C        1.2154030     0.5201010     0.0228200
  C       -2.4484650    -0.3685770    -0.0316320
  C        2.4484650    -0.3685770    -0.0316380
  H       -1.2391130     1.1424540     0.9363620
  H       -1.2207100     1.2134400    -0.8263160
  H        1.2207070     1.2134550    -0.8262890
  H        1.2391140     1.1424360     0.9363880
  H       -0.0000050    -0.9589390     0.6905330
  H       -2.4420630    -0.9624210    -0.9481910
  H       -2.4717160    -1.0555150     0.8206980
  H       -3.3640250     0.2291450    -0.0033800
  H        2.4717150    -1.0555360     0.8206740
  H        2.4420660    -0.9623970    -0.9482130
  H        3.3640260     0.2291450    -0.0033680
units angstrom
no_reorient  #important for SAPT in psi4, default
symmetry c1  #important for SAPT in psi4, default
}

set PROPERTIES_ORIGIN ["COM"]
properties('MP2/aug-cc-pvtz', properties = ['dipole'])
--------------------------------------------------------------------------

    Molecular point group: c1
  Charge       = 0
  Multiplicity = 1
  Basis Set: AUG-CC-PVTZ
    Blend: AUG-CC-PVTZ
  Basis Set: (AUG-CC-PVTZ AUX)
    Blend: AUG-CC-PVTZ-JKFIT

    Orbital Energies [Eh]
    ---------------------

    Doubly Occupied:

       1A    -15.539128     2A    -11.244909     3A    -11.244532
       4A    -11.211373     5A    -11.210828     6A     -1.208294
       7A     -1.026234     8A     -0.960626     9A     -0.827790
      10A     -0.817764    11A     -0.661613    12A     -0.628594
      13A     -0.596030    14A     -0.586737    15A     -0.552100
      16A     -0.519978    17A     -0.506228    18A     -0.487678
      19A     -0.479466    20A     -0.471850    21A     -0.369878

  @DF-RHF Final Energy:  -212.39490429100215

   => Energetics <=

    Nuclear Repulsion Energy =            188.7804753097370281
    One-Electron Energy =                -660.0475024567117543
    Two-Electron Energy =                 258.8721228559725773
    Total Energy =                       -212.3949042910021490
  Basis Set: (AUG-CC-PVTZ AUX)
    Blend: AUG-CC-PVTZ-RI
    Molecular point group: c1

    Geometry (in Angstrom), charge = 0, multiplicity = 1:

       Center              X                  Y                   Z               Mass
    ------------   -----------------  -----------------  -----------------  -----------------
         N           -0.002731212094    -0.280595063431    -0.068538505009    14.003074004430
         C           -1.201498712094     0.513286036569     0.030469494991    12.000000000000
         C            1.212671787906     0.524300936569     0.031857494991    12.000000000000
         C           -2.451196212094    -0.364377063431    -0.022594505009    12.000000000000
         C            2.445733787906    -0.364377063431    -0.022600505009    12.000000000000
         H           -1.241844212094     1.146653936569     0.945399494991     1.007825032230
         H           -1.223441212094     1.217639936569    -0.817278505009     1.007825032230
         H            1.217975787906     1.217654936569    -0.817251505009     1.007825032230
         H            1.236382787906     1.146635936569     0.945425494991     1.007825032230
         H           -0.002736212094    -0.954739063431     0.699570494991     1.007825032230
         H           -2.444794212094    -0.958221063431    -0.939153505009     1.007825032230
         H           -2.474447212094    -1.051315063431     0.829735494991     1.007825032230
         H           -3.366756212094     0.233344936569     0.005657494991     1.007825032230
         H            2.468983787906    -1.051336063431     0.829711494991     1.007825032230
         H            2.439334787906    -0.958197063431    -0.939175505009     1.007825032230
         H            3.361294787906     0.233344936569     0.005669494991     1.007825032230

  Basis Set: AUG-CC-PVTZ
    Blend: AUG-CC-PVTZ
  Basis Set: (AUG-CC-PVTZ AUX)
    Blend: AUG-CC-PVTZ-JKFIT
	 Reference Energy          =    -212.3949042910021490 [Eh]
	 Singles Energy            =      -0.0000000000000000 [Eh]
	 Same-Spin Energy          =      -0.2220576247455998 [Eh]
	 Opposite-Spin Energy      =      -0.8124265888615355 [Eh]
	 Correlation Energy        =      -1.0344842136071353 [Eh]
	 Total Energy              =    -213.4293885046092782 [Eh]

	 ================> DF-SCS-MP2 Energies <==================
	-----------------------------------------------------------
	 SCS Same-Spin Scale       =       0.3333333333333333 [-]
	 SCS Opposite-Spin Scale   =       1.2000000000000000 [-]
	 SCS Same-Spin Energy      =      -0.0740192082485333 [Eh]
	 SCS Opposite-Spin Energy  =      -0.9749119066338425 [Eh]
	 SCS Correlation Energy    =      -1.0489311148823759 [Eh]
	 SCS Total Energy          =    -213.4438354058845277 [Eh]
	-----------------------------------------------------------

  Dipole Moment: [D]
     X:     0.0507      Y:     0.4189      Z:     0.8851     Total:     0.9805

*** Psi4 exiting successfully. Buy a developer a beer!
