                               Psi4 1.3.2 release

  ==> Input File <==

--------------------------------------------------------------------------
#psi4
#
memory 32 gb

molecule  {
0 1
  N        0.0000000    -0.2847960    -0.0775200
  C       -1.2935863     0.3896677     0.0065262
  C        1.2154590     0.5201510     0.0228370
  C       -2.4484620    -0.3686040    -0.0316540
  C        2.4484620    -0.3686030    -0.0316740
  H       -1.2391330     1.1425390     0.9363030
  H       -1.2207300     1.2134510    -0.8263620
  H        1.2207230     1.2135020    -0.8262740
  H        1.2391330     1.1424770     0.9363870
  H       -0.0000150    -0.9587820     0.6907340
  H       -2.4419500    -0.9624070    -0.9482340
  H       -2.4715700    -1.0556010     0.8206420
  H       -3.3641460     0.2289170    -0.0033300
  H        2.4715620    -1.0556700     0.8205670
  H        2.4419500    -0.9623320    -0.9483010
  H        3.3641500     0.2289090    -0.0032960
units angstrom
no_reorient  #important for SAPT in psi4, default
symmetry c1  #important for SAPT in psi4, default
}

set PROPERTIES_ORIGIN ["COM"]
properties('MP2/aug-cc-pvtz', properties = ['dipole'])
--------------------------------------------------------------------------

    Molecular point group: c1
  Charge       = 0
  Multiplicity = 1
  Basis Set: AUG-CC-PVTZ
    Blend: AUG-CC-PVTZ
  Basis Set: (AUG-CC-PVTZ AUX)
    Blend: AUG-CC-PVTZ-JKFIT

    Orbital Energies [Eh]
    ---------------------

    Doubly Occupied:

       1A    -15.539235     2A    -11.254303     3A    -11.247597
       4A    -11.212578     5A    -11.208506     6A     -1.204479
       7A     -1.050094     8A     -0.975445     9A     -0.828418
      10A     -0.800634    11A     -0.657010    12A     -0.633485
      13A     -0.601066    14A     -0.600070    15A     -0.562790
      16A     -0.520554    17A     -0.507061    18A     -0.499337
      19A     -0.477767    20A     -0.451294    21A     -0.357644

  @DF-RHF Final Energy:  -212.36684526164186

   => Energetics <=

    Nuclear Repulsion Energy =            189.2727361475624264
    One-Electron Energy =                -660.9004262947440793
    Two-Electron Energy =                 259.2608448855397683
    Total Energy =                       -212.3668452616418563
  Basis Set: (AUG-CC-PVTZ AUX)
    Blend: AUG-CC-PVTZ-RI
    Molecular point group: c1

    Geometry (in Angstrom), charge = 0, multiplicity = 1:

       Center              X                  Y                   Z               Mass
    ------------   -----------------  -----------------  -----------------  -----------------
         N            0.012827537489    -0.260985260987    -0.066038367753    14.003074004430
         C           -1.280758762511     0.413478439013     0.018007832247    12.000000000000
         C            1.228286537489     0.543961739013     0.034318632247    12.000000000000
         C           -2.435634462511    -0.344793260987    -0.020172367753    12.000000000000
         C            2.461289537489    -0.344792260987    -0.020192367753    12.000000000000
         H           -1.226305462511     1.166349739013     0.947784632247     1.007825032230
         H           -1.207902462511     1.237261739013    -0.814880367753     1.007825032230
         H            1.233550537489     1.237312739013    -0.814792367753     1.007825032230
         H            1.251960537489     1.166287739013     0.947868632247     1.007825032230
         H            0.012812537489    -0.934971260987     0.702215632247     1.007825032230
         H           -2.429122462511    -0.938596260987    -0.936752367753     1.007825032230
         H           -2.458742462511    -1.031790260987     0.832123632247     1.007825032230
         H           -3.351318462511     0.252727739013     0.008151632247     1.007825032230
         H            2.484389537489    -1.031859260987     0.832048632247     1.007825032230
         H            2.454777537489    -0.938521260987    -0.936819367753     1.007825032230
         H            3.376977537489     0.252719739013     0.008185632247     1.007825032230

  Basis Set: AUG-CC-PVTZ
    Blend: AUG-CC-PVTZ
  Basis Set: (AUG-CC-PVTZ AUX)
    Blend: AUG-CC-PVTZ-JKFIT
	 Reference Energy          =    -212.3668452616418563 [Eh]
	 Singles Energy            =      -0.0000000000000000 [Eh]
	 Same-Spin Energy          =      -0.2236014609189442 [Eh]
	 Opposite-Spin Energy      =      -0.8145528607881403 [Eh]
	 Correlation Energy        =      -1.0381543217070845 [Eh]
	 Total Energy              =    -213.4049995833489390 [Eh]

	 ================> DF-SCS-MP2 Energies <==================
	-----------------------------------------------------------
	 SCS Same-Spin Scale       =       0.3333333333333333 [-]
	 SCS Opposite-Spin Scale   =       1.2000000000000000 [-]
	 SCS Same-Spin Energy      =      -0.0745338203063147 [Eh]
	 SCS Opposite-Spin Energy  =      -0.9774634329457683 [Eh]
	 SCS Correlation Energy    =      -1.0519972532520832 [Eh]
	 SCS Total Energy          =    -213.4188425148939530 [Eh]
	-----------------------------------------------------------

  Dipole Moment: [D]
     X:    -0.0780      Y:     0.2647      Z:     0.8219     Total:     0.8670

*** Psi4 exiting successfully. Buy a developer a beer!
