                               Psi4 1.4a3.dev225

  ==> Input File <==

--------------------------------------------------------------------------
#psi4
#
memory 32 gb

molecule  {
0 1
  N        0.0000000    -0.2847950    -0.0775760
  C       -1.2320385     0.5311199     0.0241800
  C        1.2154030     0.5201010     0.0228200
  C       -2.4484650    -0.3685770    -0.0316320
  C        2.4484650    -0.3685770    -0.0316380
  H       -1.2391130     1.1424540     0.9363620
  H       -1.2207100     1.2134400    -0.8263160
  H        1.2207070     1.2134550    -0.8262890
  H        1.2391140     1.1424360     0.9363880
  H       -0.0000050    -0.9589390     0.6905330
  H       -2.4420630    -0.9624210    -0.9481910
  H       -2.4717160    -1.0555150     0.8206980
  H       -3.3640250     0.2291450    -0.0033800
  H        2.4717150    -1.0555360     0.8206740
  H        2.4420660    -0.9623970    -0.9482130
  H        3.3640260     0.2291450    -0.0033680
units angstrom
no_reorient  #important for SAPT in psi4, default
symmetry c1  #important for SAPT in psi4, default
}

set PROPERTIES_ORIGIN ["COM"]
properties('MP2/aug-cc-pvtz', properties = ['dipole'])
--------------------------------------------------------------------------

    Molecular point group: c1
  Charge       = 0
  Multiplicity = 1
  Basis Set: AUG-CC-PVTZ
    Blend: AUG-CC-PVTZ
  Basis Set: (AUG-CC-PVTZ AUX)
    Blend: AUG-CC-PVTZ-JKFIT

    Orbital Energies [Eh]
    ---------------------

    Doubly Occupied:

       1A    -15.538061     2A    -11.243954     3A    -11.243478
       4A    -11.210989     5A    -11.210422     6A     -1.198326
       7A     -1.026900     8A     -0.960951     9A     -0.827031
      10A     -0.817995    11A     -0.659590    12A     -0.624045
      13A     -0.598250    14A     -0.583227    15A     -0.551815
      16A     -0.519889    17A     -0.506795    18A     -0.488633
      19A     -0.481210    20A     -0.470305    21A     -0.369751

  @DF-RHF Final Energy:  -212.39483549217726

   => Energetics <=

    Nuclear Repulsion Energy =            188.3491558485685005
    One-Electron Energy =                -659.2247501122836866
    Two-Electron Energy =                 258.4807587715379213
    Total Energy =                       -212.3948354921772648
  Basis Set: (AUG-CC-PVTZ AUX)
    Blend: AUG-CC-PVTZ-RI
    Molecular point group: c1

    Geometry (in Angstrom), charge = 0, multiplicity = 1:

       Center              X                  Y                   Z               Mass
    ------------   -----------------  -----------------  -----------------  -----------------
         N            0.002731322406    -0.284212640080    -0.068989680051    14.003074004430
         C           -1.229307177594     0.531702259920     0.032766319949    12.000000000000
         C            1.218134322406     0.520683359920     0.031406319949    12.000000000000
         C           -2.445733677594    -0.367994640080    -0.023045680051    12.000000000000
         C            2.451196322406    -0.367994640080    -0.023051680051    12.000000000000
         H           -1.236381677594     1.143036359920     0.944948319949     1.007825032230
         H           -1.217978677594     1.214022359920    -0.817729680051     1.007825032230
         H            1.223438322406     1.214037359920    -0.817702680051     1.007825032230
         H            1.241845322406     1.143018359920     0.944974319949     1.007825032230
         H            0.002726322406    -0.958356640080     0.699119319949     1.007825032230
         H           -2.439331677594    -0.961838640080    -0.939604680051     1.007825032230
         H           -2.468984677594    -1.054932640080     0.829284319949     1.007825032230
         H           -3.361293677594     0.229727359920     0.005206319949     1.007825032230
         H            2.474446322406    -1.054953640080     0.829260319949     1.007825032230
         H            2.444797322406    -0.961814640080    -0.939626680051     1.007825032230
         H            3.366757322406     0.229727359920     0.005218319949     1.007825032230

  Basis Set: AUG-CC-PVTZ
    Blend: AUG-CC-PVTZ
  Basis Set: (AUG-CC-PVTZ AUX)
    Blend: AUG-CC-PVTZ-JKFIT
	 Reference Energy          =    -212.3948354921772648 [Eh]
	 Singles Energy            =      -0.0000000000000000 [Eh]
	 Same-Spin Energy          =      -0.2219694587531457 [Eh]
	 Opposite-Spin Energy      =      -0.8126172387532367 [Eh]
	 Correlation Energy        =      -1.0345866975063824 [Eh]
	 Total Energy              =    -213.4294221896836348 [Eh]

	 ================> DF-SCS-MP2 Energies <==================
	-----------------------------------------------------------
	 SCS Same-Spin Scale       =       0.3333333333333333 [-]
	 SCS Opposite-Spin Scale   =       1.2000000000000000 [-]
	 SCS Same-Spin Energy      =      -0.0739898195843819 [Eh]
	 SCS Opposite-Spin Energy  =      -0.9751406865038840 [Eh]
	 SCS Correlation Energy    =      -1.0491305060882659 [Eh]
	 SCS Total Energy          =    -213.4439659982655257 [Eh]
	-----------------------------------------------------------

  Dipole Moment: [D]
     X:    -0.0487      Y:     0.4720      Z:     0.9043     Total:     1.0212

*** Psi4 exiting successfully. Buy a developer a beer!
