                               Psi4 1.3.2 release

  ==> Input File <==

--------------------------------------------------------------------------
#psi4
#
memory 32 gb

molecule  {
0 1
  N        0.0000000    -0.2847960    -0.0775200
  C       -1.1322765     0.4650658     0.0159273
  C        1.2154590     0.5201510     0.0228370
  C       -2.4484620    -0.3686040    -0.0316540
  C        2.4484620    -0.3686030    -0.0316740
  H       -1.2391330     1.1425390     0.9363030
  H       -1.2207300     1.2134510    -0.8263620
  H        1.2207230     1.2135020    -0.8262740
  H        1.2391330     1.1424770     0.9363870
  H       -0.0000150    -0.9587820     0.6907340
  H       -2.4419500    -0.9624070    -0.9482340
  H       -2.4715700    -1.0556010     0.8206420
  H       -3.3641460     0.2289170    -0.0033300
  H        2.4715620    -1.0556700     0.8205670
  H        2.4419500    -0.9623320    -0.9483010
  H        3.3641500     0.2289090    -0.0032960
units angstrom
no_reorient  #important for SAPT in psi4, default
symmetry c1  #important for SAPT in psi4, default
}

set PROPERTIES_ORIGIN ["COM"]
properties('MP2/aug-cc-pvtz', properties = ['dipole'])
--------------------------------------------------------------------------

    Molecular point group: c1
  Charge       = 0
  Multiplicity = 1
  Basis Set: AUG-CC-PVTZ
    Blend: AUG-CC-PVTZ
  Basis Set: (AUG-CC-PVTZ AUX)
    Blend: AUG-CC-PVTZ-JKFIT

    Orbital Energies [Eh]
    ---------------------

    Doubly Occupied:

       1A    -15.541078     2A    -11.248148     3A    -11.247073
       4A    -11.213470     5A    -11.210834     6A     -1.232297
       7A     -1.026660     8A     -0.958844     9A     -0.832610
      10A     -0.815283    11A     -0.667616    12A     -0.638623
      13A     -0.597876    14A     -0.589418    15A     -0.552430
      16A     -0.521734    17A     -0.509412    18A     -0.494938
      19A     -0.472404    20A     -0.461907    21A     -0.367087

  @DF-RHF Final Energy:  -212.38466952699346

   => Energetics <=

    Nuclear Repulsion Energy =            189.6979638072144496
    One-Electron Energy =                -661.7657838507211636
    Two-Electron Energy =                 259.6831505165131944
    Total Energy =                       -212.3846695269934912
  Basis Set: (AUG-CC-PVTZ AUX)
    Blend: AUG-CC-PVTZ-RI
    Molecular point group: c1

    Geometry (in Angstrom), charge = 0, multiplicity = 1:

       Center              X                  Y                   Z               Mass
    ------------   -----------------  -----------------  -----------------  -----------------
         N           -0.013656798653    -0.273364351563    -0.067581869093    14.003074004430
         C           -1.145933298653     0.476497448437     0.025865430907    12.000000000000
         C            1.201802201347     0.531582648437     0.032775130907    12.000000000000
         C           -2.462118798653    -0.357172351563    -0.021715869093    12.000000000000
         C            2.434805201347    -0.357171351563    -0.021735869093    12.000000000000
         H           -1.252789798653     1.153970648437     0.946241130907     1.007825032230
         H           -1.234386798653     1.224882648437    -0.816423869093     1.007825032230
         H            1.207066201347     1.224933648437    -0.816335869093     1.007825032230
         H            1.225476201347     1.153908648437     0.946325130907     1.007825032230
         H           -0.013671798653    -0.947350351563     0.700672130907     1.007825032230
         H           -2.455606798653    -0.950975351563    -0.938295869093     1.007825032230
         H           -2.485226798653    -1.044169351563     0.830580130907     1.007825032230
         H           -3.377802798653     0.240348648437     0.006608130907     1.007825032230
         H            2.457905201347    -1.044238351563     0.830505130907     1.007825032230
         H            2.428293201347    -0.950900351563    -0.938362869093     1.007825032230
         H            3.350493201347     0.240340648437     0.006642130907     1.007825032230

  Basis Set: AUG-CC-PVTZ
    Blend: AUG-CC-PVTZ
  Basis Set: (AUG-CC-PVTZ AUX)
    Blend: AUG-CC-PVTZ-JKFIT
	 Reference Energy          =    -212.3846695269934628 [Eh]
	 Singles Energy            =      -0.0000000000000000 [Eh]
	 Same-Spin Energy          =      -0.2226264969711881 [Eh]
	 Opposite-Spin Energy      =      -0.8127113222253588 [Eh]
	 Correlation Energy        =      -1.0353378191965468 [Eh]
	 Total Energy              =    -213.4200073461900047 [Eh]

	 ================> DF-SCS-MP2 Energies <==================
	-----------------------------------------------------------
	 SCS Same-Spin Scale       =       0.3333333333333333 [-]
	 SCS Opposite-Spin Scale   =       1.2000000000000000 [-]
	 SCS Same-Spin Energy      =      -0.0742088323237294 [Eh]
	 SCS Opposite-Spin Energy  =      -0.9752535866704305 [Eh]
	 SCS Correlation Energy    =      -1.0494624189941599 [Eh]
	 SCS Total Energy          =    -213.4341319459876161 [Eh]
	-----------------------------------------------------------

  Dipole Moment: [D]
     X:     0.2777      Y:     0.2886      Z:     0.8360     Total:     0.9269

*** Psi4 exiting successfully. Buy a developer a beer!
