                               Psi4 1.3.2 release

  ==> Input File <==

--------------------------------------------------------------------------
#psi4
#
memory 32 gb

molecule  {
0 1
  N       -0.0535807    -0.1982707    -0.0707601
  C       -1.2154540     0.5201510     0.0227920
  C        1.2154590     0.5201510     0.0228370
  C       -2.4484620    -0.3686040    -0.0316540
  C        2.4484620    -0.3686030    -0.0316740
  H       -1.2391330     1.1425390     0.9363030
  H       -1.2207300     1.2134510    -0.8263620
  H        1.2207230     1.2135020    -0.8262740
  H        1.2391330     1.1424770     0.9363870
  H       -0.0000150    -0.9587820     0.6907340
  H       -2.4419500    -0.9624070    -0.9482340
  H       -2.4715700    -1.0556010     0.8206420
  H       -3.3641460     0.2289170    -0.0033300
  H        2.4715620    -1.0556700     0.8205670
  H        2.4419500    -0.9623320    -0.9483010
  H        3.3641500     0.2289090    -0.0032960
units angstrom
no_reorient  #important for SAPT in psi4, default
symmetry c1  #important for SAPT in psi4, default
}

set PROPERTIES_ORIGIN ["COM"]
properties('MP2/aug-cc-pvtz', properties = ['dipole'])
--------------------------------------------------------------------------

    Molecular point group: c1
  Charge       = 0
  Multiplicity = 1
  Basis Set: AUG-CC-PVTZ
    Blend: AUG-CC-PVTZ
  Basis Set: (AUG-CC-PVTZ AUX)
    Blend: AUG-CC-PVTZ-JKFIT

    Orbital Energies [Eh]
    ---------------------

    Doubly Occupied:

       1A    -15.537560     2A    -11.246756     3A    -11.237463
       4A    -11.215505     5A    -11.209881     6A     -1.219205
       7A     -1.031409     8A     -0.960497     9A     -0.836897
      10A     -0.808086    11A     -0.664527    12A     -0.634178
      13A     -0.598270    14A     -0.592284    15A     -0.550695
      16A     -0.521882    17A     -0.509128    18A     -0.493526
      19A     -0.479225    20A     -0.471039    21A     -0.356850

  @DF-RHF Final Energy:  -212.38519366371503

   => Energetics <=

    Nuclear Repulsion Energy =            189.5377453875139508
    One-Electron Energy =                -661.4961478802421198
    Two-Electron Energy =                 259.5732088290131401
    Total Energy =                       -212.3851936637150288
  Basis Set: (AUG-CC-PVTZ AUX)
    Blend: AUG-CC-PVTZ-RI
    Molecular point group: c1

    Geometry (in Angstrom), charge = 0, multiplicity = 1:

       Center              X                  Y                   Z               Mass
    ------------   -----------------  -----------------  -----------------  -----------------
         N           -0.043315691892    -0.212460400225    -0.063244158727    14.003074004430
         C           -1.205188991892     0.505961299775     0.030307941273    12.000000000000
         C            1.225724008108     0.505961299775     0.030352941273    12.000000000000
         C           -2.438196991892    -0.382793700225    -0.024138058727    12.000000000000
         C            2.458727008108    -0.382792700225    -0.024158058727    12.000000000000
         H           -1.228867991892     1.128349299775     0.943818941273     1.007825032230
         H           -1.210464991892     1.199261299775    -0.818846058727     1.007825032230
         H            1.230988008108     1.199312299775    -0.818758058727     1.007825032230
         H            1.249398008108     1.128287299775     0.943902941273     1.007825032230
         H            0.010250008108    -0.972971700225     0.698249941273     1.007825032230
         H           -2.431684991892    -0.976596700225    -0.940718058727     1.007825032230
         H           -2.461304991892    -1.069790700225     0.828157941273     1.007825032230
         H           -3.353880991892     0.214727299775     0.004185941273     1.007825032230
         H            2.481827008108    -1.069859700225     0.828082941273     1.007825032230
         H            2.452215008108    -0.976521700225    -0.940785058727     1.007825032230
         H            3.374415008108     0.214719299775     0.004219941273     1.007825032230

  Basis Set: AUG-CC-PVTZ
    Blend: AUG-CC-PVTZ
  Basis Set: (AUG-CC-PVTZ AUX)
    Blend: AUG-CC-PVTZ-JKFIT
	 Reference Energy          =    -212.3851936637150288 [Eh]
	 Singles Energy            =      -0.0000000000000000 [Eh]
	 Same-Spin Energy          =      -0.2227541191119169 [Eh]
	 Opposite-Spin Energy      =      -0.8127851495633469 [Eh]
	 Correlation Energy        =      -1.0355392686752638 [Eh]
	 Total Energy              =    -213.4207329323902798 [Eh]

	 ================> DF-SCS-MP2 Energies <==================
	-----------------------------------------------------------
	 SCS Same-Spin Scale       =       0.3333333333333333 [-]
	 SCS Opposite-Spin Scale   =       1.2000000000000000 [-]
	 SCS Same-Spin Energy      =      -0.0742513730373056 [Eh]
	 SCS Opposite-Spin Energy  =      -0.9753421794760162 [Eh]
	 SCS Correlation Energy    =      -1.0495935525133218 [Eh]
	 SCS Total Energy          =    -213.4347872162283579 [Eh]
	-----------------------------------------------------------

  Dipole Moment: [D]
     X:     0.2375      Y:     0.2226      Z:     0.7942     Total:     0.8583

*** Psi4 exiting successfully. Buy a developer a beer!
