                               Psi4 1.3.2 release

  ==> Input File <==

--------------------------------------------------------------------------
#psi4
#
memory 32 gb

molecule  {
0 1
  N        0.0000000    -0.2847960    -0.0775200
  C       -1.1559086     0.6023248     0.0330358
  C        1.2154590     0.5201510     0.0228370
  C       -2.4484620    -0.3686040    -0.0316540
  C        2.4484620    -0.3686030    -0.0316740
  H       -1.2391330     1.1425390     0.9363030
  H       -1.2207300     1.2134510    -0.8263620
  H        1.2207230     1.2135020    -0.8262740
  H        1.2391330     1.1424770     0.9363870
  H       -0.0000150    -0.9587820     0.6907340
  H       -2.4419500    -0.9624070    -0.9482340
  H       -2.4715700    -1.0556010     0.8206420
  H       -3.3641460     0.2289170    -0.0033300
  H        2.4715620    -1.0556700     0.8205670
  H        2.4419500    -0.9623320    -0.9483010
  H        3.3641500     0.2289090    -0.0032960
units angstrom
no_reorient  #important for SAPT in psi4, default
symmetry c1  #important for SAPT in psi4, default
}

set PROPERTIES_ORIGIN ["COM"]
properties('MP2/aug-cc-pvtz', properties = ['dipole'])
--------------------------------------------------------------------------

    Molecular point group: c1
  Charge       = 0
  Multiplicity = 1
  Basis Set: AUG-CC-PVTZ
    Blend: AUG-CC-PVTZ
  Basis Set: (AUG-CC-PVTZ AUX)
    Blend: AUG-CC-PVTZ-JKFIT

    Orbital Energies [Eh]
    ---------------------

    Doubly Occupied:

       1A    -15.539838     2A    -11.242834     3A    -11.241372
       4A    -11.211965     5A    -11.210122     6A     -1.204211
       7A     -1.017618     8A     -0.951059     9A     -0.833919
      10A     -0.821691    11A     -0.667048    12A     -0.623025
      13A     -0.598710    14A     -0.583824    15A     -0.545443
      16A     -0.520538    17A     -0.506346    18A     -0.495871
      19A     -0.486326    20A     -0.446833    21A     -0.375373

  @DF-RHF Final Energy:  -212.38565908027752

   => Energetics <=

    Nuclear Repulsion Energy =            188.1938619316782138
    One-Electron Energy =                -658.9111115426300103
    Two-Electron Energy =                 258.3315905306742479
    Total Energy =                       -212.3856590802775486
  Basis Set: (AUG-CC-PVTZ AUX)
    Blend: AUG-CC-PVTZ-RI
    Molecular point group: c1

    Geometry (in Angstrom), charge = 0, multiplicity = 1:

       Center              X                  Y                   Z               Mass
    ------------   -----------------  -----------------  -----------------  -----------------
         N           -0.009776808224    -0.295899953830    -0.070390794929    14.003074004430
         C           -1.165685408224     0.591220846170     0.040165005071    12.000000000000
         C            1.205682191776     0.509047046170     0.029966205071    12.000000000000
         C           -2.458238808224    -0.379707953830    -0.024524794929    12.000000000000
         C            2.438685191776    -0.379706953830    -0.024544794929    12.000000000000
         H           -1.248909808224     1.131435046170     0.943432205071     1.007825032230
         H           -1.230506808224     1.202347046170    -0.819232794929     1.007825032230
         H            1.210946191776     1.202398046170    -0.819144794929     1.007825032230
         H            1.229356191776     1.131373046170     0.943516205071     1.007825032230
         H           -0.009791808224    -0.969885953830     0.697863205071     1.007825032230
         H           -2.451726808224    -0.973510953830    -0.941104794929     1.007825032230
         H           -2.481346808224    -1.066704953830     0.827771205071     1.007825032230
         H           -3.373922808224     0.217813046170     0.003799205071     1.007825032230
         H            2.461785191776    -1.066773953830     0.827696205071     1.007825032230
         H            2.432173191776    -0.973435953830    -0.941171794929     1.007825032230
         H            3.354373191776     0.217805046170     0.003833205071     1.007825032230

  Basis Set: AUG-CC-PVTZ
    Blend: AUG-CC-PVTZ
  Basis Set: (AUG-CC-PVTZ AUX)
    Blend: AUG-CC-PVTZ-JKFIT
	 Reference Energy          =    -212.3856590802775202 [Eh]
	 Singles Energy            =      -0.0000000000000000 [Eh]
	 Same-Spin Energy          =      -0.2218885313090201 [Eh]
	 Opposite-Spin Energy      =      -0.8129964828153688 [Eh]
	 Correlation Energy        =      -1.0348850141243890 [Eh]
	 Total Energy              =    -213.4205440944019188 [Eh]

	 ================> DF-SCS-MP2 Energies <==================
	-----------------------------------------------------------
	 SCS Same-Spin Scale       =       0.3333333333333333 [-]
	 SCS Opposite-Spin Scale   =       1.2000000000000000 [-]
	 SCS Same-Spin Energy      =      -0.0739628437696734 [Eh]
	 SCS Opposite-Spin Energy  =      -0.9755957793784426 [Eh]
	 SCS Correlation Energy    =      -1.0495586231481160 [Eh]
	 SCS Total Energy          =    -213.4352177034256499 [Eh]
	-----------------------------------------------------------

  Dipole Moment: [D]
     X:     0.0676      Y:     0.5240      Z:     0.9296     Total:     1.0692

*** Psi4 exiting successfully. Buy a developer a beer!
