                               Psi4 1.3.2 release

  ==> Input File <==

--------------------------------------------------------------------------
#psi4
#
memory 32 gb

molecule  {
0 1
  N        0.0143313    -0.3058306    -0.0791348
  C       -1.2154540     0.5201510     0.0227920
  C        1.2154590     0.5201510     0.0228370
  C       -2.4484620    -0.3686040    -0.0316540
  C        2.4484620    -0.3686030    -0.0316740
  H       -1.2391330     1.1425390     0.9363030
  H       -1.2207300     1.2134510    -0.8263620
  H        1.2207230     1.2135020    -0.8262740
  H        1.2391330     1.1424770     0.9363870
  H       -0.0000150    -0.9587820     0.6907340
  H       -2.4419500    -0.9624070    -0.9482340
  H       -2.4715700    -1.0556010     0.8206420
  H       -3.3641460     0.2289170    -0.0033300
  H        2.4715620    -1.0556700     0.8205670
  H        2.4419500    -0.9623320    -0.9483010
  H        3.3641500     0.2289090    -0.0032960
units angstrom
no_reorient  #important for SAPT in psi4, default
symmetry c1  #important for SAPT in psi4, default
}

set PROPERTIES_ORIGIN ["COM"]
properties('MP2/aug-cc-pvtz', properties = ['dipole'])
--------------------------------------------------------------------------

    Molecular point group: c1
  Charge       = 0
  Multiplicity = 1
  Basis Set: AUG-CC-PVTZ
    Blend: AUG-CC-PVTZ
  Basis Set: (AUG-CC-PVTZ AUX)
    Blend: AUG-CC-PVTZ-JKFIT

    Orbital Energies [Eh]
    ---------------------

    Doubly Occupied:

       1A    -15.538990     2A    -11.245838     3A    -11.243795
       4A    -11.211184     5A    -11.209823     6A     -1.200096
       7A     -1.025475     8A     -0.961036     9A     -0.825280
      10A     -0.820209    11A     -0.659880    12A     -0.624432
      13A     -0.596968    14A     -0.583324    15A     -0.552322
      16A     -0.519500    17A     -0.505978    18A     -0.489465
      19A     -0.480161    20A     -0.467877    21A     -0.372943

  @DF-RHF Final Energy:  -212.39450409854504

   => Energetics <=

    Nuclear Repulsion Energy =            188.3285594021611473
    One-Electron Energy =                -659.1769755850879164
    Two-Electron Energy =                 258.4539120843817273
    Total Energy =                       -212.3945040985450419
  Basis Set: (AUG-CC-PVTZ AUX)
    Blend: AUG-CC-PVTZ-RI
    Molecular point group: c1

    Geometry (in Angstrom), charge = 0, multiplicity = 1:

       Center              X                  Y                   Z               Mass
    ------------   -----------------  -----------------  -----------------  -----------------
         N            0.011585118757    -0.299413011006    -0.070014358676    14.003074004430
         C           -1.218200181243     0.526568588994     0.031912441324    12.000000000000
         C            1.212712818757     0.526568588994     0.031957441324    12.000000000000
         C           -2.451208181243    -0.362186411006    -0.022533558676    12.000000000000
         C            2.445715818757    -0.362185411006    -0.022553558676    12.000000000000
         H           -1.241879181243     1.148956588994     0.945423441324     1.007825032230
         H           -1.223476181243     1.219868588994    -0.817241558676     1.007825032230
         H            1.217976818757     1.219919588994    -0.817153558676     1.007825032230
         H            1.236386818757     1.148894588994     0.945507441324     1.007825032230
         H           -0.002761181243    -0.952364411006     0.699854441324     1.007825032230
         H           -2.444696181243    -0.955989411006    -0.939113558676     1.007825032230
         H           -2.474316181243    -1.049183411006     0.829762441324     1.007825032230
         H           -3.366892181243     0.235334588994     0.005790441324     1.007825032230
         H            2.468815818757    -1.049252411006     0.829687441324     1.007825032230
         H            2.439203818757    -0.955914411006    -0.939180558676     1.007825032230
         H            3.361403818757     0.235326588994     0.005824441324     1.007825032230

  Basis Set: AUG-CC-PVTZ
    Blend: AUG-CC-PVTZ
  Basis Set: (AUG-CC-PVTZ AUX)
    Blend: AUG-CC-PVTZ-JKFIT
	 Reference Energy          =    -212.3945040985450419 [Eh]
	 Singles Energy            =      -0.0000000000000000 [Eh]
	 Same-Spin Energy          =      -0.2219115170852645 [Eh]
	 Opposite-Spin Energy      =      -0.8126494696963663 [Eh]
	 Correlation Energy        =      -1.0345609867816308 [Eh]
	 Total Energy              =    -213.4290650853266698 [Eh]

	 ================> DF-SCS-MP2 Energies <==================
	-----------------------------------------------------------
	 SCS Same-Spin Scale       =       0.3333333333333333 [-]
	 SCS Opposite-Spin Scale   =       1.2000000000000000 [-]
	 SCS Same-Spin Energy      =      -0.0739705056950882 [Eh]
	 SCS Opposite-Spin Energy  =      -0.9751793636356395 [Eh]
	 SCS Correlation Energy    =      -1.0491498693307277 [Eh]
	 SCS Total Energy          =    -213.4436539678757754 [Eh]
	-----------------------------------------------------------

  Dipole Moment: [D]
     X:    -0.0553      Y:     0.5000      Z:     0.9157     Total:     1.0448

*** Psi4 exiting successfully. Buy a developer a beer!
