                               Psi4 1.3.2 release

  ==> Input File <==

--------------------------------------------------------------------------
#psi4
#
memory 32 gb

molecule  {
0 1
  N        0.0913845    -0.4071044    -0.0867334
  C       -1.2154540     0.5201510     0.0227920
  C        1.2154590     0.5201510     0.0228370
  C       -2.4484620    -0.3686040    -0.0316540
  C        2.4484620    -0.3686030    -0.0316740
  H       -1.2391330     1.1425390     0.9363030
  H       -1.2207300     1.2134510    -0.8263620
  H        1.2207230     1.2135020    -0.8262740
  H        1.2391330     1.1424770     0.9363870
  H       -0.0000150    -0.9587820     0.6907340
  H       -2.4419500    -0.9624070    -0.9482340
  H       -2.4715700    -1.0556010     0.8206420
  H       -3.3641460     0.2289170    -0.0033300
  H        2.4715620    -1.0556700     0.8205670
  H        2.4419500    -0.9623320    -0.9483010
  H        3.3641500     0.2289090    -0.0032960
units angstrom
no_reorient  #important for SAPT in psi4, default
symmetry c1  #important for SAPT in psi4, default
}

set PROPERTIES_ORIGIN ["COM"]
properties('MP2/aug-cc-pvtz', properties = ['dipole'])
--------------------------------------------------------------------------

    Molecular point group: c1
  Charge       = 0
  Multiplicity = 1
  Basis Set: AUG-CC-PVTZ
    Blend: AUG-CC-PVTZ
  Basis Set: (AUG-CC-PVTZ AUX)
    Blend: AUG-CC-PVTZ-JKFIT

    Orbital Energies [Eh]
    ---------------------

    Doubly Occupied:

       1A    -15.541663     2A    -11.253563     3A    -11.243030
       4A    -11.212831     5A    -11.205006     6A     -1.189821
       7A     -1.021618     8A     -0.962596     9A     -0.828959
      10A     -0.818171    11A     -0.659032    12A     -0.617284
      13A     -0.597320    14A     -0.575943    15A     -0.553108
      16A     -0.518918    17A     -0.505185    18A     -0.496705
      19A     -0.479318    20A     -0.442675    21A     -0.386081

  @DF-RHF Final Energy:  -212.37549782451583

   => Energetics <=

    Nuclear Repulsion Energy =            187.2397182423740958
    One-Electron Energy =                -657.0127785723566376
    Two-Electron Energy =                 257.3975625054666807
    Total Energy =                       -212.3754978245158327
  Basis Set: (AUG-CC-PVTZ AUX)
    Blend: AUG-CC-PVTZ-RI
    Molecular point group: c1

    Geometry (in Angstrom), charge = 0, multiplicity = 1:

       Center              X                  Y                   Z               Mass
    ------------   -----------------  -----------------  -----------------  -----------------
         N            0.073875776419    -0.381283869139    -0.076157150816    14.003074004430
         C           -1.232962723581     0.545971530861     0.033368249184    12.000000000000
         C            1.197950276419     0.545971530861     0.033413249184    12.000000000000
         C           -2.465970723581    -0.342783469139    -0.021077750816    12.000000000000
         C            2.430953276419    -0.342782469139    -0.021097750816    12.000000000000
         H           -1.256641723581     1.168359530861     0.946879249184     1.007825032230
         H           -1.238238723581     1.239271530861    -0.815785750816     1.007825032230
         H            1.203214276419     1.239322530861    -0.815697750816     1.007825032230
         H            1.221624276419     1.168297530861     0.946963249184     1.007825032230
         H           -0.017523723581    -0.932961469139     0.701310249184     1.007825032230
         H           -2.459458723581    -0.936586469139    -0.937657750816     1.007825032230
         H           -2.489078723581    -1.029780469139     0.831218249184     1.007825032230
         H           -3.381654723581     0.254737530861     0.007246249184     1.007825032230
         H            2.454053276419    -1.029849469139     0.831143249184     1.007825032230
         H            2.424441276419    -0.936511469139    -0.937724750816     1.007825032230
         H            3.346641276419     0.254729530861     0.007280249184     1.007825032230

  Basis Set: AUG-CC-PVTZ
    Blend: AUG-CC-PVTZ
  Basis Set: (AUG-CC-PVTZ AUX)
    Blend: AUG-CC-PVTZ-JKFIT
	 Reference Energy          =    -212.3754978245158327 [Eh]
	 Singles Energy            =      -0.0000000000000000 [Eh]
	 Same-Spin Energy          =      -0.2220919608729259 [Eh]
	 Opposite-Spin Energy      =      -0.8147335512232546 [Eh]
	 Correlation Energy        =      -1.0368255120961805 [Eh]
	 Total Energy              =    -213.4123233366120189 [Eh]

	 ================> DF-SCS-MP2 Energies <==================
	-----------------------------------------------------------
	 SCS Same-Spin Scale       =       0.3333333333333333 [-]
	 SCS Opposite-Spin Scale   =       1.2000000000000000 [-]
	 SCS Same-Spin Energy      =      -0.0740306536243086 [Eh]
	 SCS Opposite-Spin Energy  =      -0.9776802614679055 [Eh]
	 SCS Correlation Energy    =      -1.0517109150922141 [Eh]
	 SCS Total Energy          =    -213.4272087396080337 [Eh]
	-----------------------------------------------------------

  Dipole Moment: [D]
     X:    -0.3101      Y:     0.7431      Z:     0.9966     Total:     1.2812

*** Psi4 exiting successfully. Buy a developer a beer!
