                               Psi4 1.3.2 release

  ==> Input File <==

--------------------------------------------------------------------------
#psi4
#
memory 32 gb

molecule  {
0 1
  N        0.0000000    -0.2847960    -0.0775200
  C       -1.2154540     0.5201510     0.0227920
  C        1.2154590     0.5201510     0.0228370
  C       -2.4484620    -0.3686040    -0.0316540
  C        2.4484620    -0.3686030    -0.0316740
  H       -1.2391330     1.1425390     0.9363030
  H       -1.2207300     1.2134510    -0.8263620
  H        1.2207230     1.2135020    -0.8262740
  H        1.2391330     1.1424770     0.9363870
  H       -0.0000150    -0.9587820     0.6907340
  H       -2.4419500    -0.9624070    -0.9482340
  H       -2.4715700    -1.0556010     0.8206420
  H       -3.3641460     0.2289170    -0.0033300
  H        2.4715620    -1.0556700     0.8205670
  H        2.4419500    -0.9623320    -0.9483010
  H        3.3641500     0.2289090    -0.0032960
units angstrom
no_reorient  #important for SAPT in psi4, default
symmetry c1  #important for SAPT in psi4, default
}

set PROPERTIES_ORIGIN ["COM"]
properties('MP2/aug-cc-pvtz', properties = ['dipole'])
--------------------------------------------------------------------------

    Molecular point group: c1
  Charge       = 0
  Multiplicity = 1
  Basis Set: AUG-CC-PVTZ
    Blend: AUG-CC-PVTZ
  Basis Set: (AUG-CC-PVTZ AUX)
    Blend: AUG-CC-PVTZ-JKFIT

    Orbital Energies [Eh]
    ---------------------

    Doubly Occupied:

       1A    -15.538614     2A    -11.244193     3A    -11.244177
       4A    -11.210893     5A    -11.210891     6A     -1.203128
       7A     -1.026496     8A     -0.960828     9A     -0.827221
      10A     -0.818026    11A     -0.660514    12A     -0.626258
      13A     -0.597079    14A     -0.584947    15A     -0.551974
      16A     -0.519831    17A     -0.506320    18A     -0.487422
      19A     -0.480861    20A     -0.471666    21A     -0.369935

  @DF-RHF Final Energy:  -212.39525075023354

   => Energetics <=

    Nuclear Repulsion Energy =            188.5607205343704322
    One-Electron Energy =                -659.6293974764831773
    Two-Electron Energy =                 258.6734261918791731
    Total Energy =                       -212.3952507502335720
  Basis Set: (AUG-CC-PVTZ AUX)
    Blend: AUG-CC-PVTZ-RI
    Molecular point group: c1

    Geometry (in Angstrom), charge = 0, multiplicity = 1:

       Center              X                  Y                   Z               Mass
    ------------   -----------------  -----------------  -----------------  -----------------
         N           -0.000000462402    -0.282408408113    -0.068708936527    14.003074004430
         C           -1.215454462402     0.522538591887     0.031603063473    12.000000000000
         C            1.215458537598     0.522538591887     0.031648063473    12.000000000000
         C           -2.448462462402    -0.366216408113    -0.022842936527    12.000000000000
         C            2.448461537598    -0.366215408113    -0.022862936527    12.000000000000
         H           -1.239133462402     1.144926591887     0.945114063473     1.007825032230
         H           -1.220730462402     1.215838591887    -0.817550936527     1.007825032230
         H            1.220722537598     1.215889591887    -0.817462936527     1.007825032230
         H            1.239132537598     1.144864591887     0.945198063473     1.007825032230
         H           -0.000015462402    -0.956394408113     0.699545063473     1.007825032230
         H           -2.441950462402    -0.960019408113    -0.939422936527     1.007825032230
         H           -2.471570462402    -1.053213408113     0.829453063473     1.007825032230
         H           -3.364146462402     0.231304591887     0.005481063473     1.007825032230
         H            2.471561537598    -1.053282408113     0.829378063473     1.007825032230
         H            2.441949537598    -0.959944408113    -0.939489936527     1.007825032230
         H            3.364149537598     0.231296591887     0.005515063473     1.007825032230

  Basis Set: AUG-CC-PVTZ
    Blend: AUG-CC-PVTZ
  Basis Set: (AUG-CC-PVTZ AUX)
    Blend: AUG-CC-PVTZ-JKFIT
	 Reference Energy          =    -212.3952507502335436 [Eh]
	 Singles Energy            =      -0.0000000000000000 [Eh]
	 Same-Spin Energy          =      -0.2219974696009874 [Eh]
	 Opposite-Spin Energy      =      -0.8124961630104810 [Eh]
	 Correlation Energy        =      -1.0344936326114684 [Eh]
	 Total Energy              =    -213.4297443828450014 [Eh]

	 ================> DF-SCS-MP2 Energies <==================
	-----------------------------------------------------------
	 SCS Same-Spin Scale       =       0.3333333333333333 [-]
	 SCS Opposite-Spin Scale   =       1.2000000000000000 [-]
	 SCS Same-Spin Energy      =      -0.0739991565336625 [Eh]
	 SCS Opposite-Spin Energy  =      -0.9749953956125772 [Eh]
	 SCS Correlation Energy    =      -1.0489945521462396 [Eh]
	 SCS Total Energy          =    -213.4442453023797839 [Eh]
	-----------------------------------------------------------

  Dipole Moment: [D]
     X:    -0.0000      Y:     0.4467      Z:     0.8952     Total:     1.0004

*** Psi4 exiting successfully. Buy a developer a beer!
