                               Psi4 1.3.2 release

  ==> Input File <==

--------------------------------------------------------------------------
#psi4
#
memory 32 gb

molecule  {
0 1
  N        0.0000000    -0.2847960    -0.0775200
  C       -1.2986315     0.5752362     0.0296567
  C        1.2154590     0.5201510     0.0228370
  C       -2.4484620    -0.3686040    -0.0316540
  C        2.4484620    -0.3686030    -0.0316740
  H       -1.2391330     1.1425390     0.9363030
  H       -1.2207300     1.2134510    -0.8263620
  H        1.2207230     1.2135020    -0.8262740
  H        1.2391330     1.1424770     0.9363870
  H       -0.0000150    -0.9587820     0.6907340
  H       -2.4419500    -0.9624070    -0.9482340
  H       -2.4715700    -1.0556010     0.8206420
  H       -3.3641460     0.2289170    -0.0033300
  H        2.4715620    -1.0556700     0.8205670
  H        2.4419500    -0.9623320    -0.9483010
  H        3.3641500     0.2289090    -0.0032960
units angstrom
no_reorient  #important for SAPT in psi4, default
symmetry c1  #important for SAPT in psi4, default
}

set PROPERTIES_ORIGIN ["COM"]
properties('MP2/aug-cc-pvtz', properties = ['dipole'])
--------------------------------------------------------------------------

    Molecular point group: c1
  Charge       = 0
  Multiplicity = 1
  Basis Set: AUG-CC-PVTZ
    Blend: AUG-CC-PVTZ
  Basis Set: (AUG-CC-PVTZ AUX)
    Blend: AUG-CC-PVTZ-JKFIT

    Orbital Energies [Eh]
    ---------------------

    Doubly Occupied:

       1A    -15.535524     2A    -11.244347     3A    -11.240837
       4A    -11.211769     5A    -11.208612     6A     -1.181663
       7A     -1.029671     8A     -0.960656     9A     -0.829276
      10A     -0.815509    11A     -0.657428    12A     -0.616284
      13A     -0.602957    14A     -0.577606    15A     -0.550984
      16A     -0.523510    17A     -0.510256    18A     -0.494592
      19A     -0.482083    20A     -0.456857    21A     -0.367166

  @DF-RHF Final Energy:  -212.38653111646420

   => Energetics <=

    Nuclear Repulsion Energy =            187.5253350888441730
    One-Electron Energy =                -657.6285600622658194
    Two-Electron Energy =                 257.7166938569574768
    Total Energy =                       -212.3865311164641980
  Basis Set: (AUG-CC-PVTZ AUX)
    Blend: AUG-CC-PVTZ-RI
    Molecular point group: c1

    Geometry (in Angstrom), charge = 0, multiplicity = 1:

       Center              X                  Y                   Z               Mass
    ------------   -----------------  -----------------  -----------------  -----------------
         N            0.013655873850    -0.291452464663    -0.069836003960    14.003074004430
         C           -1.284975626150     0.568579735337     0.037340696040    12.000000000000
         C            1.229114873850     0.513494535337     0.030520996040    12.000000000000
         C           -2.434806126150    -0.375260464663    -0.023970003960    12.000000000000
         C            2.462117873850    -0.375259464663    -0.023990003960    12.000000000000
         H           -1.225477126150     1.135882535337     0.943986996040     1.007825032230
         H           -1.207074126150     1.206794535337    -0.818678003960     1.007825032230
         H            1.234378873850     1.206845535337    -0.818590003960     1.007825032230
         H            1.252788873850     1.135820535337     0.944070996040     1.007825032230
         H            0.013640873850    -0.965438464663     0.698417996040     1.007825032230
         H           -2.428294126150    -0.969063464663    -0.940550003960     1.007825032230
         H           -2.457914126150    -1.062257464663     0.828325996040     1.007825032230
         H           -3.350490126150     0.222260535337     0.004353996040     1.007825032230
         H            2.485217873850    -1.062326464663     0.828250996040     1.007825032230
         H            2.455605873850    -0.968988464663    -0.940617003960     1.007825032230
         H            3.377805873850     0.222252535337     0.004387996040     1.007825032230

  Basis Set: AUG-CC-PVTZ
    Blend: AUG-CC-PVTZ
  Basis Set: (AUG-CC-PVTZ AUX)
    Blend: AUG-CC-PVTZ-JKFIT
	 Reference Energy          =    -212.3865311164641980 [Eh]
	 Singles Energy            =      -0.0000000000000000 [Eh]
	 Same-Spin Energy          =      -0.2221538091885892 [Eh]
	 Opposite-Spin Energy      =      -0.8136287178996539 [Eh]
	 Correlation Energy        =      -1.0357825270882430 [Eh]
	 Total Energy              =    -213.4223136435524282 [Eh]

	 ================> DF-SCS-MP2 Energies <==================
	-----------------------------------------------------------
	 SCS Same-Spin Scale       =       0.3333333333333333 [-]
	 SCS Opposite-Spin Scale   =       1.2000000000000000 [-]
	 SCS Same-Spin Energy      =      -0.0740512697295297 [Eh]
	 SCS Opposite-Spin Energy  =      -0.9763544614795846 [Eh]
	 SCS Correlation Energy    =      -1.0504057312091144 [Eh]
	 SCS Total Energy          =    -213.4369368476733086 [Eh]
	-----------------------------------------------------------

  Dipole Moment: [D]
     X:    -0.2256      Y:     0.5585      Z:     0.9344     Total:     1.1117

*** Psi4 exiting successfully. Buy a developer a beer!
