                               Psi4 1.4a3.dev225

  ==> Input File <==

--------------------------------------------------------------------------
#psi4
#
memory 32 gb

molecule  {
0 1
  N        0.0000000    -0.2847950    -0.0775760
  C       -1.2154030     0.5201030     0.0228060
  C        1.2154030     0.5201010     0.0228200
  C       -2.4484650    -0.3685770    -0.0316320
  C        2.4484650    -0.3685770    -0.0316380
  H       -1.2391130     1.1424540     0.9363620
  H       -1.2207100     1.2134400    -0.8263160
  H        1.2207070     1.2134550    -0.8262890
  H        1.2391140     1.1424360     0.9363880
  H       -0.0000051    -0.9721318     0.7055646
  H       -2.4420630    -0.9624210    -0.9481910
  H       -2.4717160    -1.0555150     0.8206980
  H       -3.3640250     0.2291450    -0.0033800
  H        2.4717150    -1.0555360     0.8206740
  H        2.4420660    -0.9623970    -0.9482130
  H        3.3640260     0.2291450    -0.0033680
units angstrom
no_reorient  #important for SAPT in psi4, default
symmetry c1  #important for SAPT in psi4, default
}

set PROPERTIES_ORIGIN ["COM"]
properties('MP2/aug-cc-pvtz', properties = ['dipole'])
--------------------------------------------------------------------------

    Molecular point group: c1
  Charge       = 0
  Multiplicity = 1
  Basis Set: AUG-CC-PVTZ
    Blend: AUG-CC-PVTZ
  Basis Set: (AUG-CC-PVTZ AUX)
    Blend: AUG-CC-PVTZ-JKFIT

    Orbital Energies [Eh]
    ---------------------

    Doubly Occupied:

       1A    -15.540908     2A    -11.244282     3A    -11.244266
       4A    -11.210852     5A    -11.210851     6A     -1.201133
       7A     -1.026483     8A     -0.960025     9A     -0.827244
      10A     -0.815810    11A     -0.659477    12A     -0.626228
      13A     -0.597069    14A     -0.583773    15A     -0.551330
      16A     -0.519590    17A     -0.506295    18A     -0.486609
      19A     -0.480900    20A     -0.471669    21A     -0.369715

  @DF-RHF Final Energy:  -212.39424641229920

   => Energetics <=

    Nuclear Repulsion Energy =            188.4588658130871579
    One-Electron Energy =                -659.4372055132737387
    Two-Electron Energy =                 258.5840932878873559
    Total Energy =                       -212.3942464122991964
  Basis Set: (AUG-CC-PVTZ AUX)
    Blend: AUG-CC-PVTZ-RI
    Molecular point group: c1

    Geometry (in Angstrom), charge = 0, multiplicity = 1:

       Center              X                  Y                   Z               Mass
    ------------   -----------------  -----------------  -----------------  -----------------
         N            0.000000056535    -0.282221936462    -0.068971363006    14.003074004430
         C           -1.215402943465     0.522676063538     0.031410636994    12.000000000000
         C            1.215403056535     0.522674063538     0.031424636994    12.000000000000
         C           -2.448464943465    -0.366003936462    -0.023027363006    12.000000000000
         C            2.448465056535    -0.366003936462    -0.023033363006    12.000000000000
         H           -1.239112943465     1.145027063538     0.944966636994     1.007825032230
         H           -1.220709943465     1.216013063538    -0.817711363006     1.007825032230
         H            1.220707056535     1.216028063538    -0.817684363006     1.007825032230
         H            1.239114056535     1.145009063538     0.944992636994     1.007825032230
         H           -0.000005043465    -0.969558736462     0.714169236994     1.007825032230
         H           -2.442062943465    -0.959847936462    -0.939586363006     1.007825032230
         H           -2.471715943465    -1.052941936462     0.829302636994     1.007825032230
         H           -3.364024943465     0.231718063538     0.005224636994     1.007825032230
         H            2.471715056535    -1.052962936462     0.829278636994     1.007825032230
         H            2.442066056535    -0.959823936462    -0.939608363006     1.007825032230
         H            3.364026056535     0.231718063538     0.005236636994     1.007825032230

  Basis Set: AUG-CC-PVTZ
    Blend: AUG-CC-PVTZ
  Basis Set: (AUG-CC-PVTZ AUX)
    Blend: AUG-CC-PVTZ-JKFIT
	 Reference Energy          =    -212.3942464122991964 [Eh]
	 Singles Energy            =      -0.0000000000000000 [Eh]
	 Same-Spin Energy          =      -0.2221185412258083 [Eh]
	 Opposite-Spin Energy      =      -0.8128550878143141 [Eh]
	 Correlation Energy        =      -1.0349736290401226 [Eh]
	 Total Energy              =    -213.4292200413393061 [Eh]

	 ================> DF-SCS-MP2 Energies <==================
	-----------------------------------------------------------
	 SCS Same-Spin Scale       =       0.3333333333333333 [-]
	 SCS Opposite-Spin Scale   =       1.2000000000000000 [-]
	 SCS Same-Spin Energy      =      -0.0740395137419361 [Eh]
	 SCS Opposite-Spin Energy  =      -0.9754261053771769 [Eh]
	 SCS Correlation Energy    =      -1.0494656191191130 [Eh]
	 SCS Total Energy          =    -213.4437120314183005 [Eh]
	-----------------------------------------------------------

  Dipole Moment: [D]
     X:    -0.0000      Y:     0.4475      Z:     0.8953     Total:     1.0009

*** Psi4 exiting successfully. Buy a developer a beer!
