                               Psi4 1.3.2 release

  ==> Input File <==

--------------------------------------------------------------------------
#psi4
#
memory 32 gb

molecule  {
0 1
  N        0.0000000    -0.2847960    -0.0775200
  C       -1.3818090     0.6303213     0.0365214
  C        1.2154590     0.5201510     0.0228370
  C       -2.4484620    -0.3686040    -0.0316540
  C        2.4484620    -0.3686030    -0.0316740
  H       -1.2391330     1.1425390     0.9363030
  H       -1.2207300     1.2134510    -0.8263620
  H        1.2207230     1.2135020    -0.8262740
  H        1.2391330     1.1424770     0.9363870
  H       -0.0000150    -0.9587820     0.6907340
  H       -2.4419500    -0.9624070    -0.9482340
  H       -2.4715700    -1.0556010     0.8206420
  H       -3.3641460     0.2289170    -0.0033300
  H        2.4715620    -1.0556700     0.8205670
  H        2.4419500    -0.9623320    -0.9483010
  H        3.3641500     0.2289090    -0.0032960
units angstrom
no_reorient  #important for SAPT in psi4, default
symmetry c1  #important for SAPT in psi4, default
}

set PROPERTIES_ORIGIN ["COM"]
properties('MP2/aug-cc-pvtz', properties = ['dipole'])
--------------------------------------------------------------------------

    Molecular point group: c1
  Charge       = 0
  Multiplicity = 1
  Basis Set: AUG-CC-PVTZ
    Blend: AUG-CC-PVTZ
  Basis Set: (AUG-CC-PVTZ AUX)
    Blend: AUG-CC-PVTZ-JKFIT

    Orbital Energies [Eh]
    ---------------------

    Doubly Occupied:

       1A    -15.531413     2A    -11.247870     3A    -11.237729
       4A    -11.213745     5A    -11.206380     6A     -1.165624
       7A     -1.035083     8A     -0.959023     9A     -0.834379
      10A     -0.810943    11A     -0.657916    12A     -0.611249
      13A     -0.604967    14A     -0.575913    15A     -0.549432
      16A     -0.533208    17A     -0.512574    18A     -0.498499
      19A     -0.481904    20A     -0.434796    21A     -0.360324

  @DF-RHF Final Energy:  -212.36473223993985

   => Energetics <=

    Nuclear Repulsion Energy =            186.5453538788985952
    One-Electron Energy =                -655.6942289980652276
    Two-Electron Energy =                 256.7841428792267493
    Total Energy =                       -212.3647322399398831
  Basis Set: (AUG-CC-PVTZ AUX)
    Blend: AUG-CC-PVTZ-RI
    Molecular point group: c1

    Geometry (in Angstrom), charge = 0, multiplicity = 1:

       Center              X                  Y                   Z               Mass
    ------------   -----------------  -----------------  -----------------  -----------------
         N            0.027312210102    -0.300496504795    -0.070963071394    14.003074004430
         C           -1.354496789898     0.614620795205     0.043078328606    12.000000000000
         C            1.242771210102     0.504450495205     0.029393928606    12.000000000000
         C           -2.421149789898    -0.384304504795    -0.025097071394    12.000000000000
         C            2.475774210102    -0.384303504795    -0.025117071394    12.000000000000
         H           -1.211820789898     1.126838495205     0.942859928606     1.007825032230
         H           -1.193417789898     1.197750495205    -0.819805071394     1.007825032230
         H            1.248035210102     1.197801495205    -0.819717071394     1.007825032230
         H            1.266445210102     1.126776495205     0.942943928606     1.007825032230
         H            0.027297210102    -0.974482504795     0.697290928606     1.007825032230
         H           -2.414637789898    -0.978107504795    -0.941677071394     1.007825032230
         H           -2.444257789898    -1.071301504795     0.827198928606     1.007825032230
         H           -3.336833789898     0.213216495205     0.003226928606     1.007825032230
         H            2.498874210102    -1.071370504795     0.827123928606     1.007825032230
         H            2.469262210102    -0.978032504795    -0.941744071394     1.007825032230
         H            3.391462210102     0.213208495205     0.003260928606     1.007825032230

  Basis Set: AUG-CC-PVTZ
    Blend: AUG-CC-PVTZ
  Basis Set: (AUG-CC-PVTZ AUX)
    Blend: AUG-CC-PVTZ-JKFIT
	 Reference Energy          =    -212.3647322399398547 [Eh]
	 Singles Energy            =      -0.0000000000000000 [Eh]
	 Same-Spin Energy          =      -0.2229847408414605 [Eh]
	 Opposite-Spin Energy      =      -0.8159592327151659 [Eh]
	 Correlation Energy        =      -1.0389439735566264 [Eh]
	 Total Energy              =    -213.4036762134964818 [Eh]

	 ================> DF-SCS-MP2 Energies <==================
	-----------------------------------------------------------
	 SCS Same-Spin Scale       =       0.3333333333333333 [-]
	 SCS Opposite-Spin Scale   =       1.2000000000000000 [-]
	 SCS Same-Spin Energy      =      -0.0743282469471535 [Eh]
	 SCS Opposite-Spin Energy  =      -0.9791510792581990 [Eh]
	 SCS Correlation Energy    =      -1.0534793262053526 [Eh]
	 SCS Total Energy          =    -213.4182115661452031 [Eh]
	-----------------------------------------------------------

  Dipole Moment: [D]
     X:    -0.4098      Y:     0.6344      Z:     0.9595     Total:     1.2211

*** Psi4 exiting successfully. Buy a developer a beer!
