                               Psi4 1.3.2 release

  ==> Input File <==

--------------------------------------------------------------------------
#psi4
#
memory 32 gb

molecule  {
0 1
  N        0.0137848    -0.3093007    -0.0349630
  C       -1.2154540     0.5201510     0.0227920
  C        1.2154590     0.5201510     0.0228370
  C       -2.4484620    -0.3686040    -0.0316540
  C        2.4484620    -0.3686030    -0.0316740
  H       -1.2391330     1.1425390     0.9363030
  H       -1.2207300     1.2134510    -0.8263620
  H        1.2207230     1.2135020    -0.8262740
  H        1.2391330     1.1424770     0.9363870
  H       -0.0000150    -0.9587820     0.6907340
  H       -2.4419500    -0.9624070    -0.9482340
  H       -2.4715700    -1.0556010     0.8206420
  H       -3.3641460     0.2289170    -0.0033300
  H        2.4715620    -1.0556700     0.8205670
  H        2.4419500    -0.9623320    -0.9483010
  H        3.3641500     0.2289090    -0.0032960
units angstrom
no_reorient  #important for SAPT in psi4, default
symmetry c1  #important for SAPT in psi4, default
}

set PROPERTIES_ORIGIN ["COM"]
properties('MP2/aug-cc-pvtz', properties = ['dipole'])
--------------------------------------------------------------------------

    Molecular point group: c1
  Charge       = 0
  Multiplicity = 1
  Basis Set: AUG-CC-PVTZ
    Blend: AUG-CC-PVTZ
  Basis Set: (AUG-CC-PVTZ AUX)
    Blend: AUG-CC-PVTZ-JKFIT

    Orbital Energies [Eh]
    ---------------------

    Doubly Occupied:

       1A    -15.532924     2A    -11.245837     3A    -11.243920
       4A    -11.211034     5A    -11.209730     6A     -1.201906
       7A     -1.025155     8A     -0.962463     9A     -0.825300
      10A     -0.824911    11A     -0.659453    12A     -0.624174
      13A     -0.596708    14A     -0.588945    15A     -0.553428
      16A     -0.519436    17A     -0.505903    18A     -0.494207
      19A     -0.479155    20A     -0.468364    21A     -0.367287

  @DF-RHF Final Energy:  -212.39401453365028

   => Energetics <=

    Nuclear Repulsion Energy =            188.4739290892731844
    One-Electron Energy =                -659.4554059996913793
    Two-Electron Energy =                 258.5874623767679168
    Total Energy =                       -212.3940145336503065
  Basis Set: (AUG-CC-PVTZ AUX)
    Blend: AUG-CC-PVTZ-RI
    Molecular point group: c1

    Geometry (in Angstrom), charge = 0, multiplicity = 1:

       Center              X                  Y                   Z               Mass
    ------------   -----------------  -----------------  -----------------  -----------------
         N            0.011143322123    -0.302218278161    -0.034305387834    14.003074004430
         C           -1.218095477877     0.527233421839     0.023449612166    12.000000000000
         C            1.212817522123     0.527233421839     0.023494612166    12.000000000000
         C           -2.451103477877    -0.361521578161    -0.030996387834    12.000000000000
         C            2.445820522123    -0.361520578161    -0.031016387834    12.000000000000
         H           -1.241774477877     1.149621421839     0.936960612166     1.007825032230
         H           -1.223371477877     1.220533421839    -0.825704387834     1.007825032230
         H            1.218081522123     1.220584421839    -0.825616387834     1.007825032230
         H            1.236491522123     1.149559421839     0.937044612166     1.007825032230
         H           -0.002656477877    -0.951699578161     0.691391612166     1.007825032230
         H           -2.444591477877    -0.955324578161    -0.947576387834     1.007825032230
         H           -2.474211477877    -1.048518578161     0.821299612166     1.007825032230
         H           -3.366787477877     0.235999421839    -0.002672387834     1.007825032230
         H            2.468920522123    -1.048587578161     0.821224612166     1.007825032230
         H            2.439308522123    -0.955249578161    -0.947643387834     1.007825032230
         H            3.361508522123     0.235991421839    -0.002638387834     1.007825032230

  Basis Set: AUG-CC-PVTZ
    Blend: AUG-CC-PVTZ
  Basis Set: (AUG-CC-PVTZ AUX)
    Blend: AUG-CC-PVTZ-JKFIT
	 Reference Energy          =    -212.3940145336502781 [Eh]
	 Singles Energy            =      -0.0000000000000000 [Eh]
	 Same-Spin Energy          =      -0.2215961981865331 [Eh]
	 Opposite-Spin Energy      =      -0.8117745787673802 [Eh]
	 Correlation Energy        =      -1.0333707769539133 [Eh]
	 Total Energy              =    -213.4273853106041940 [Eh]

	 ================> DF-SCS-MP2 Energies <==================
	-----------------------------------------------------------
	 SCS Same-Spin Scale       =       0.3333333333333333 [-]
	 SCS Opposite-Spin Scale   =       1.2000000000000000 [-]
	 SCS Same-Spin Energy      =      -0.0738653993955110 [Eh]
	 SCS Opposite-Spin Energy  =      -0.9741294945208563 [Eh]
	 SCS Correlation Energy    =      -1.0479948939163672 [Eh]
	 SCS Total Energy          =    -213.4420094275666315 [Eh]
	-----------------------------------------------------------

  Dipole Moment: [D]
     X:    -0.0540      Y:     0.4796      Z:     0.8467     Total:     0.9746

*** Psi4 exiting successfully. Buy a developer a beer!
