                               Psi4 1.3.2 release

  ==> Input File <==

--------------------------------------------------------------------------
#psi4
#
memory 32 gb

molecule  {
0 1
  N        0.0000000    -0.2847960    -0.0775200
  C       -1.2083108     0.5331208     0.0020266
  C        1.2154590     0.5201510     0.0228370
  C       -2.4484620    -0.3686040    -0.0316540
  C        2.4484620    -0.3686030    -0.0316740
  H       -1.2391330     1.1425390     0.9363030
  H       -1.2207300     1.2134510    -0.8263620
  H        1.2207230     1.2135020    -0.8262740
  H        1.2391330     1.1424770     0.9363870
  H       -0.0000150    -0.9587820     0.6907340
  H       -2.4419500    -0.9624070    -0.9482340
  H       -2.4715700    -1.0556010     0.8206420
  H       -3.3641460     0.2289170    -0.0033300
  H        2.4715620    -1.0556700     0.8205670
  H        2.4419500    -0.9623320    -0.9483010
  H        3.3641500     0.2289090    -0.0032960
units angstrom
no_reorient  #important for SAPT in psi4, default
symmetry c1  #important for SAPT in psi4, default
}

set PROPERTIES_ORIGIN ["COM"]
properties('MP2/aug-cc-pvtz', properties = ['dipole'])
--------------------------------------------------------------------------

    Molecular point group: c1
  Charge       = 0
  Multiplicity = 1
  Basis Set: AUG-CC-PVTZ
    Blend: AUG-CC-PVTZ
  Basis Set: (AUG-CC-PVTZ AUX)
    Blend: AUG-CC-PVTZ-JKFIT

    Orbital Energies [Eh]
    ---------------------

    Doubly Occupied:

       1A    -15.538454     2A    -11.243896     3A    -11.243878
       4A    -11.211214     5A    -11.210685     6A     -1.202827
       7A     -1.025106     8A     -0.959482     9A     -0.827959
      10A     -0.819519    11A     -0.660001    12A     -0.625733
      13A     -0.597301    14A     -0.585150    15A     -0.551059
      16A     -0.518903    17A     -0.506841    18A     -0.491866
      19A     -0.481681    20A     -0.468472    21A     -0.368903

  @DF-RHF Final Energy:  -212.39470957671344

   => Energetics <=

    Nuclear Repulsion Energy =            188.5016452349558165
    One-Electron Energy =                -659.5148507252578156
    Two-Electron Energy =                 258.6184959135885606
    Total Energy =                       -212.3947095767134101
  Basis Set: (AUG-CC-PVTZ AUX)
    Blend: AUG-CC-PVTZ-RI
    Molecular point group: c1

    Geometry (in Angstrom), charge = 0, multiplicity = 1:

       Center              X                  Y                   Z               Mass
    ------------   -----------------  -----------------  -----------------  -----------------
         N           -0.001173254817    -0.284537829530    -0.065299609668    14.003074004430
         C           -1.209484054817     0.533378970470     0.014246990332    12.000000000000
         C            1.214285745183     0.520409170470     0.035057390332    12.000000000000
         C           -2.449635254817    -0.368345829530    -0.019433609668    12.000000000000
         C            2.447288745183    -0.368344829530    -0.019453609668    12.000000000000
         H           -1.240306254817     1.142797170470     0.948523390332     1.007825032230
         H           -1.221903254817     1.213709170470    -0.814141609668     1.007825032230
         H            1.219549745183     1.213760170470    -0.814053609668     1.007825032230
         H            1.237959745183     1.142735170470     0.948607390332     1.007825032230
         H           -0.001188254817    -0.958523829530     0.702954390332     1.007825032230
         H           -2.443123254817    -0.962148829530    -0.936013609668     1.007825032230
         H           -2.472743254817    -1.055342829530     0.832862390332     1.007825032230
         H           -3.365319254817     0.229175170470     0.008890390332     1.007825032230
         H            2.470388745183    -1.055411829530     0.832787390332     1.007825032230
         H            2.440776745183    -0.962073829530    -0.936080609668     1.007825032230
         H            3.362976745183     0.229167170470     0.008924390332     1.007825032230

  Basis Set: AUG-CC-PVTZ
    Blend: AUG-CC-PVTZ
  Basis Set: (AUG-CC-PVTZ AUX)
    Blend: AUG-CC-PVTZ-JKFIT
	 Reference Energy          =    -212.3947095767134385 [Eh]
	 Singles Energy            =      -0.0000000000000000 [Eh]
	 Same-Spin Energy          =      -0.2219207568067772 [Eh]
	 Opposite-Spin Energy      =      -0.8124250390577235 [Eh]
	 Correlation Energy        =      -1.0343457958645006 [Eh]
	 Total Energy              =    -213.4290553725779489 [Eh]

	 ================> DF-SCS-MP2 Energies <==================
	-----------------------------------------------------------
	 SCS Same-Spin Scale       =       0.3333333333333333 [-]
	 SCS Opposite-Spin Scale   =       1.2000000000000000 [-]
	 SCS Same-Spin Energy      =      -0.0739735856022591 [Eh]
	 SCS Opposite-Spin Energy  =      -0.9749100468692681 [Eh]
	 SCS Correlation Energy    =      -1.0488836324715272 [Eh]
	 SCS Total Energy          =    -213.4435932091849679 [Eh]
	-----------------------------------------------------------

  Dipole Moment: [D]
     X:     0.0004      Y:     0.4530      Z:     0.8706     Total:     0.9815

*** Psi4 exiting successfully. Buy a developer a beer!
