                               Psi4 1.3.2 release

  ==> Input File <==

--------------------------------------------------------------------------
#psi4
#
memory 32 gb

molecule  {
0 1
  C        0.8191550    -0.4245250     0.5665810
  C       -0.6005860    -0.0369707     0.2382862
  C        1.8983300     0.0792340    -0.3972690
  C       -0.9681520     1.3378740     0.0286790
  C       -1.4389170    -1.0909370    -0.2348790
  H        0.9804000     0.0283030     1.5544360
  H        0.9238870    -1.5076770     0.6953830
  H        1.8814520     1.1684930    -0.4869170
  H        2.8944040    -0.2098860    -0.0492480
  H        1.7478260    -0.3461330    -1.3936640
  H       -2.0210720     1.4533360    -0.2415290
  H       -0.8043560     1.8316700     0.9936370
  H       -0.3683700     1.8762600    -0.7127200
  H       -1.1582580    -2.1388040    -0.1786760
  H       -2.4475370    -0.8736020    -0.5747320
units angstrom
no_reorient  #important for SAPT in psi4, default
symmetry c1  #important for SAPT in psi4, default
}

set PROPERTIES_ORIGIN ["COM"]
properties('MP2/aug-cc-pvtz', properties = ['dipole'])
--------------------------------------------------------------------------

    Molecular point group: c1
  Charge       = 0
  Multiplicity = 1
  Basis Set: AUG-CC-PVTZ
    Blend: AUG-CC-PVTZ
  Basis Set: (AUG-CC-PVTZ AUX)
    Blend: AUG-CC-PVTZ-JKFIT

    Orbital Energies [Eh]
    ---------------------

    Doubly Occupied:

       1A    -11.247347     2A    -11.225903     3A    -11.220547
       4A    -11.219069     5A    -11.217534     6A     -1.098348
       7A     -0.999697     8A     -0.924797     9A     -0.854172
      10A     -0.717404    11A     -0.629171    12A     -0.622875
      13A     -0.584484    14A     -0.568555    15A     -0.545409
      16A     -0.517967    17A     -0.505427    18A     -0.486745
      19A     -0.462860    20A     -0.323481

  @DF-RHF Final Energy:  -195.19281801056101

   => Energetics <=

    Nuclear Repulsion Energy =            175.4266675863745775
    One-Electron Energy =                -609.2953873960234432
    Two-Electron Energy =                 238.6759017990878249
    Total Energy =                       -195.1928180105610124
  Basis Set: (AUG-CC-PVTZ AUX)
    Blend: AUG-CC-PVTZ-RI
    Molecular point group: c1

    Geometry (in Angstrom), charge = 0, multiplicity = 1:

       Center              X                  Y                   Z               Mass
    ------------   -----------------  -----------------  -----------------  -----------------
         C            0.845424518672    -0.419788794114     0.537760858326    12.000000000000
         C           -0.574316481328    -0.032234494114     0.209466058326    12.000000000000
         C            1.924599518672     0.083970205886    -0.426089141674    12.000000000000
         C           -0.941882481328     1.342610205886    -0.000141141674    12.000000000000
         C           -1.412647481328    -1.086200794114    -0.263699141674    12.000000000000
         H            1.006669518672     0.033039205886     1.525615858326     1.007825032230
         H            0.950156518672    -1.502940794114     0.666562858326     1.007825032230
         H            1.907721518672     1.173229205886    -0.515737141674     1.007825032230
         H            2.920673518672    -0.205149794114    -0.078068141674     1.007825032230
         H            1.774095518672    -0.341396794114    -1.422484141674     1.007825032230
         H           -1.994802481328     1.458072205886    -0.270349141674     1.007825032230
         H           -0.778086481328     1.836406205886     0.964816858326     1.007825032230
         H           -0.342100481328     1.880996205886    -0.741540141674     1.007825032230
         H           -1.131988481328    -2.134067794114    -0.207496141674     1.007825032230
         H           -2.421267481328    -0.868865794114    -0.603552141674     1.007825032230

  Basis Set: AUG-CC-PVTZ
    Blend: AUG-CC-PVTZ
  Basis Set: (AUG-CC-PVTZ AUX)
    Blend: AUG-CC-PVTZ-JKFIT
	 Reference Energy          =    -195.1928180105610124 [Eh]
	 Singles Energy            =      -0.0000000000000000 [Eh]
	 Same-Spin Energy          =      -0.2080177658662893 [Eh]
	 Opposite-Spin Energy      =      -0.7659219410622811 [Eh]
	 Correlation Energy        =      -0.9739397069285703 [Eh]
	 Total Energy              =    -196.1667577174895882 [Eh]

	 ================> DF-SCS-MP2 Energies <==================
	-----------------------------------------------------------
	 SCS Same-Spin Scale       =       0.3333333333333333 [-]
	 SCS Opposite-Spin Scale   =       1.2000000000000000 [-]
	 SCS Same-Spin Energy      =      -0.0693392552887631 [Eh]
	 SCS Opposite-Spin Energy  =      -0.9191063292747372 [Eh]
	 SCS Correlation Energy    =      -0.9884455845635003 [Eh]
	 SCS Total Energy          =    -196.1812635951245056 [Eh]
	-----------------------------------------------------------

  Dipole Moment: [D]
     X:     0.4033      Y:     0.4036      Z:    -0.0301     Total:     0.5713

*** Psi4 exiting successfully. Buy a developer a beer!
