                               Psi4 1.3.2 release

  ==> Input File <==

--------------------------------------------------------------------------
#psi4
#
memory 32 gb

molecule  {
0 1
  C        0.8191550    -0.4245250     0.5665810
  C       -0.5860146    -0.1019912     0.1248675
  C        1.8983300     0.0792340    -0.3972690
  C       -0.9681520     1.3378740     0.0286790
  C       -1.4389170    -1.0909370    -0.2348790
  H        0.9804000     0.0283030     1.5544360
  H        0.9238870    -1.5076770     0.6953830
  H        1.8814520     1.1684930    -0.4869170
  H        2.8944040    -0.2098860    -0.0492480
  H        1.7478260    -0.3461330    -1.3936640
  H       -2.0210720     1.4533360    -0.2415290
  H       -0.8043560     1.8316700     0.9936370
  H       -0.3683700     1.8762600    -0.7127200
  H       -1.1582580    -2.1388040    -0.1786760
  H       -2.4475370    -0.8736020    -0.5747320
units angstrom
no_reorient  #important for SAPT in psi4, default
symmetry c1  #important for SAPT in psi4, default
}

set PROPERTIES_ORIGIN ["COM"]
properties('MP2/aug-cc-pvtz', properties = ['dipole'])
--------------------------------------------------------------------------

    Molecular point group: c1
  Charge       = 0
  Multiplicity = 1
  Basis Set: AUG-CC-PVTZ
    Blend: AUG-CC-PVTZ
  Basis Set: (AUG-CC-PVTZ AUX)
    Blend: AUG-CC-PVTZ-JKFIT

    Orbital Energies [Eh]
    ---------------------

    Doubly Occupied:

       1A    -11.238739     2A    -11.224714     3A    -11.219558
       4A    -11.216038     5A    -11.211295     6A     -1.096999
       7A     -0.997549     8A     -0.929937     9A     -0.852946
      10A     -0.715322    11A     -0.627001    12A     -0.624795
      13A     -0.583374    14A     -0.565422    15A     -0.541836
      16A     -0.515063    17A     -0.509291    18A     -0.480050
      19A     -0.466989    20A     -0.340981

  @DF-RHF Final Energy:  -195.21378545633604

   => Energetics <=

    Nuclear Repulsion Energy =            175.7582653544743607
    One-Electron Energy =                -610.0283027065122496
    Two-Electron Energy =                 239.0562518957018483
    Total Energy =                       -195.2137854563360406
  Basis Set: (AUG-CC-PVTZ AUX)
    Blend: AUG-CC-PVTZ-RI
    Molecular point group: c1

    Geometry (in Angstrom), charge = 0, multiplicity = 1:

       Center              X                  Y                   Z               Mass
    ------------   -----------------  -----------------  -----------------  -----------------
         C            0.842929353635    -0.408654868874     0.557182353494    12.000000000000
         C           -0.562240246365    -0.086121068874     0.115468853494    12.000000000000
         C            1.922104353635     0.095104131126    -0.406667646506    12.000000000000
         C           -0.944377646365     1.353744131126     0.019280353494    12.000000000000
         C           -1.415142646365    -1.075066868874    -0.244277646506    12.000000000000
         H            1.004174353635     0.044173131126     1.545037353494     1.007825032230
         H            0.947661353635    -1.491806868874     0.685984353494     1.007825032230
         H            1.905226353635     1.184363131126    -0.496315646506     1.007825032230
         H            2.918178353635    -0.194015868874    -0.058646646506     1.007825032230
         H            1.771600353635    -0.330262868874    -1.403062646506     1.007825032230
         H           -1.997297646365     1.469206131126    -0.250927646506     1.007825032230
         H           -0.780581646365     1.847540131126     0.984238353494     1.007825032230
         H           -0.344595646365     1.892130131126    -0.722118646506     1.007825032230
         H           -1.134483646365    -2.122933868874    -0.188074646506     1.007825032230
         H           -2.423762646365    -0.857731868874    -0.584130646506     1.007825032230

  Basis Set: AUG-CC-PVTZ
    Blend: AUG-CC-PVTZ
  Basis Set: (AUG-CC-PVTZ AUX)
    Blend: AUG-CC-PVTZ-JKFIT
	 Reference Energy          =    -195.2137854563360406 [Eh]
	 Singles Energy            =      -0.0000000000000000 [Eh]
	 Same-Spin Energy          =      -0.2063420564680871 [Eh]
	 Opposite-Spin Energy      =      -0.7624458976298804 [Eh]
	 Correlation Energy        =      -0.9687879540979675 [Eh]
	 Total Energy              =    -196.1825734104340029 [Eh]

	 ================> DF-SCS-MP2 Energies <==================
	-----------------------------------------------------------
	 SCS Same-Spin Scale       =       0.3333333333333333 [-]
	 SCS Opposite-Spin Scale   =       1.2000000000000000 [-]
	 SCS Same-Spin Energy      =      -0.0687806854893624 [Eh]
	 SCS Opposite-Spin Energy  =      -0.9149350771558564 [Eh]
	 SCS Correlation Energy    =      -0.9837157626452188 [Eh]
	 SCS Total Energy          =    -196.1975012189812730 [Eh]
	-----------------------------------------------------------

  Dipole Moment: [D]
     X:     0.3562      Y:     0.3463      Z:     0.0872     Total:     0.5044

*** Psi4 exiting successfully. Buy a developer a beer!
