                               Psi4 1.3.2 release

  ==> Input File <==

--------------------------------------------------------------------------
#psi4
#
memory 32 gb

molecule  {
0 1
  C        0.8349396    -0.3208995     0.5760437
  C       -0.5818120    -0.1153060     0.1025600
  C        1.8983300     0.0792340    -0.3972690
  C       -0.9681520     1.3378740     0.0286790
  C       -1.4389170    -1.0909370    -0.2348790
  H        0.9804000     0.0283030     1.5544360
  H        0.9238870    -1.5076770     0.6953830
  H        1.8814520     1.1684930    -0.4869170
  H        2.8944040    -0.2098860    -0.0492480
  H        1.7478260    -0.3461330    -1.3936640
  H       -2.0210720     1.4533360    -0.2415290
  H       -0.8043560     1.8316700     0.9936370
  H       -0.3683700     1.8762600    -0.7127200
  H       -1.1582580    -2.1388040    -0.1786760
  H       -2.4475370    -0.8736020    -0.5747320
units angstrom
no_reorient  #important for SAPT in psi4, default
symmetry c1  #important for SAPT in psi4, default
}

set PROPERTIES_ORIGIN ["COM"]
properties('MP2/aug-cc-pvtz', properties = ['dipole'])
--------------------------------------------------------------------------

    Molecular point group: c1
  Charge       = 0
  Multiplicity = 1
  Basis Set: AUG-CC-PVTZ
    Blend: AUG-CC-PVTZ
  Basis Set: (AUG-CC-PVTZ AUX)
    Blend: AUG-CC-PVTZ-JKFIT

    Orbital Energies [Eh]
    ---------------------

    Doubly Occupied:

       1A    -11.238437     2A    -11.227729     3A    -11.217782
       4A    -11.215526     5A    -11.212282     6A     -1.099246
       7A     -1.003383     8A     -0.929469     9A     -0.853429
      10A     -0.715507    11A     -0.630551    12A     -0.620314
      13A     -0.587455    14A     -0.567229    15A     -0.542203
      16A     -0.525806    17A     -0.513423    18A     -0.476944
      19A     -0.442521    20A     -0.347238

  @DF-RHF Final Energy:  -195.20277355188819

   => Energetics <=

    Nuclear Repulsion Energy =            176.1169503216909504
    One-Electron Energy =                -610.7065026698586507
    Two-Electron Energy =                 239.3867787962794864
    Total Energy =                       -195.2027735518881855
  Basis Set: (AUG-CC-PVTZ AUX)
    Blend: AUG-CC-PVTZ-RI
    Molecular point group: c1

    Geometry (in Angstrom), charge = 0, multiplicity = 1:

       Center              X                  Y                   Z               Mass
    ------------   -----------------  -----------------  -----------------  -----------------
         C            0.855291402432    -0.320493915934     0.568844560463    12.000000000000
         C           -0.561460197568    -0.114900415934     0.095360860463    12.000000000000
         C            1.918681802432     0.079639584066    -0.404468139537    12.000000000000
         C           -0.947800197568     1.338279584066     0.021479860463    12.000000000000
         C           -1.418565197568    -1.090531415934    -0.242078139537    12.000000000000
         H            1.000751802432     0.028708584066     1.547236860463     1.007825032230
         H            0.944238802432    -1.507271415934     0.688183860463     1.007825032230
         H            1.901803802432     1.168898584066    -0.494116139537     1.007825032230
         H            2.914755802432    -0.209480415934    -0.056447139537     1.007825032230
         H            1.768177802432    -0.345727415934    -1.400863139537     1.007825032230
         H           -2.000720197568     1.453741584066    -0.248728139537     1.007825032230
         H           -0.784004197568     1.832075584066     0.986437860463     1.007825032230
         H           -0.348018197568     1.876665584066    -0.719919139537     1.007825032230
         H           -1.137906197568    -2.138398415934    -0.185875139537     1.007825032230
         H           -2.427185197568    -0.873196415934    -0.581931139537     1.007825032230

  Basis Set: AUG-CC-PVTZ
    Blend: AUG-CC-PVTZ
  Basis Set: (AUG-CC-PVTZ AUX)
    Blend: AUG-CC-PVTZ-JKFIT
	 Reference Energy          =    -195.2027735518881855 [Eh]
	 Singles Energy            =      -0.0000000000000000 [Eh]
	 Same-Spin Energy          =      -0.2066102630238210 [Eh]
	 Opposite-Spin Energy      =      -0.7631853924738947 [Eh]
	 Correlation Energy        =      -0.9697956554977156 [Eh]
	 Total Energy              =    -196.1725692073858909 [Eh]

	 ================> DF-SCS-MP2 Energies <==================
	-----------------------------------------------------------
	 SCS Same-Spin Scale       =       0.3333333333333333 [-]
	 SCS Opposite-Spin Scale   =       1.2000000000000000 [-]
	 SCS Same-Spin Energy      =      -0.0688700876746070 [Eh]
	 SCS Opposite-Spin Energy  =      -0.9158224709686736 [Eh]
	 SCS Correlation Energy    =      -0.9846925586432806 [Eh]
	 SCS Total Energy          =    -196.1874661105314601 [Eh]
	-----------------------------------------------------------

  Dipole Moment: [D]
     X:     0.3389      Y:     0.3693      Z:     0.0963     Total:     0.5104

*** Psi4 exiting successfully. Buy a developer a beer!
