                               Psi4 1.3.2 release

  ==> Input File <==

--------------------------------------------------------------------------
#psi4
#
memory 32 gb

molecule  {
0 1
  C        0.8191550    -0.4245250     0.5665810
  C       -0.5818120    -0.1153060     0.1025600
  C        1.8983300     0.0792340    -0.3972690
  C       -1.0194767     1.5309269     0.0188640
  C       -1.4389170    -1.0909370    -0.2348790
  H        0.9804000     0.0283030     1.5544360
  H        0.9238870    -1.5076770     0.6953830
  H        1.8814520     1.1684930    -0.4869170
  H        2.8944040    -0.2098860    -0.0492480
  H        1.7478260    -0.3461330    -1.3936640
  H       -2.0210720     1.4533360    -0.2415290
  H       -0.8043560     1.8316700     0.9936370
  H       -0.3683700     1.8762600    -0.7127200
  H       -1.1582580    -2.1388040    -0.1786760
  H       -2.4475370    -0.8736020    -0.5747320
units angstrom
no_reorient  #important for SAPT in psi4, default
symmetry c1  #important for SAPT in psi4, default
}

set PROPERTIES_ORIGIN ["COM"]
properties('MP2/aug-cc-pvtz', properties = ['dipole'])
--------------------------------------------------------------------------

    Molecular point group: c1
  Charge       = 0
  Multiplicity = 1
  Basis Set: AUG-CC-PVTZ
    Blend: AUG-CC-PVTZ
  Basis Set: (AUG-CC-PVTZ AUX)
    Blend: AUG-CC-PVTZ-JKFIT

    Orbital Energies [Eh]
    ---------------------

    Doubly Occupied:

       1A    -11.244352     2A    -11.225179     3A    -11.218418
       4A    -11.216027     5A    -11.209325     6A     -1.082566
       7A     -0.991623     8A     -0.937528     9A     -0.851799
      10A     -0.706896    11A     -0.626245    12A     -0.620315
      13A     -0.595812    14A     -0.572182    15A     -0.559917
      16A     -0.513722    17A     -0.512887    18A     -0.479761
      19A     -0.427904    20A     -0.347035

  @DF-RHF Final Energy:  -195.18795267703672

   => Energetics <=

    Nuclear Repulsion Energy =            173.2919353541512919
    One-Electron Energy =                -605.0807924513234184
    Two-Electron Energy =                 236.6009044201354072
    Total Energy =                       -195.1879526770367193
  Basis Set: (AUG-CC-PVTZ AUX)
    Blend: AUG-CC-PVTZ-RI
    Molecular point group: c1

    Geometry (in Angstrom), charge = 0, multiplicity = 1:

       Center              X                  Y                   Z               Mass
    ------------   -----------------  -----------------  -----------------  -----------------
         C            0.850998407834    -0.439432709218     0.562682918908    12.000000000000
         C           -0.549968592166    -0.130213709218     0.098661918908    12.000000000000
         C            1.930173407834     0.064326290782    -0.401167081092    12.000000000000
         C           -0.987633292166     1.516019190782     0.014965918908    12.000000000000
         C           -1.407073592166    -1.105844709218    -0.238777081092    12.000000000000
         H            1.012243407834     0.013395290782     1.550537918908     1.007825032230
         H            0.955730407834    -1.522584709218     0.691484918908     1.007825032230
         H            1.913295407834     1.153585290782    -0.490815081092     1.007825032230
         H            2.926247407834    -0.224793709218    -0.053146081092     1.007825032230
         H            1.779669407834    -0.361040709218    -1.397562081092     1.007825032230
         H           -1.989228592166     1.438428290782    -0.245427081092     1.007825032230
         H           -0.772512592166     1.816762290782     0.989738918908     1.007825032230
         H           -0.336526592166     1.861352290782    -0.716618081092     1.007825032230
         H           -1.126414592166    -2.153711709218    -0.182574081092     1.007825032230
         H           -2.415693592166    -0.888509709218    -0.578630081092     1.007825032230

  Basis Set: AUG-CC-PVTZ
    Blend: AUG-CC-PVTZ
  Basis Set: (AUG-CC-PVTZ AUX)
    Blend: AUG-CC-PVTZ-JKFIT
	 Reference Energy          =    -195.1879526770367193 [Eh]
	 Singles Energy            =      -0.0000000000000000 [Eh]
	 Same-Spin Energy          =      -0.2058400704394889 [Eh]
	 Opposite-Spin Energy      =      -0.7630657679646671 [Eh]
	 Correlation Energy        =      -0.9689058384041560 [Eh]
	 Total Energy              =    -196.1568585154408879 [Eh]

	 ================> DF-SCS-MP2 Energies <==================
	-----------------------------------------------------------
	 SCS Same-Spin Scale       =       0.3333333333333333 [-]
	 SCS Opposite-Spin Scale   =       1.2000000000000000 [-]
	 SCS Same-Spin Energy      =      -0.0686133568131630 [Eh]
	 SCS Opposite-Spin Energy  =      -0.9156789215576004 [Eh]
	 SCS Correlation Energy    =      -0.9842922783707634 [Eh]
	 SCS Total Energy          =    -196.1722449554074785 [Eh]
	-----------------------------------------------------------

  Dipole Moment: [D]
     X:     0.3840      Y:     0.2211      Z:     0.1227     Total:     0.4598

*** Psi4 exiting successfully. Buy a developer a beer!
