                               Psi4 1.3.2 release

  ==> Input File <==

--------------------------------------------------------------------------
#psi4
#
memory 32 gb

molecule  {
0 1
  C        0.8191550    -0.4245250     0.5665810
  C       -0.6003537    -0.1389324     0.1457813
  C        1.8983300     0.0792340    -0.3972690
  C       -0.9681520     1.3378740     0.0286790
  C       -1.4389170    -1.0909370    -0.2348790
  H        0.9804000     0.0283030     1.5544360
  H        0.9238870    -1.5076770     0.6953830
  H        1.8814520     1.1684930    -0.4869170
  H        2.8944040    -0.2098860    -0.0492480
  H        1.7478260    -0.3461330    -1.3936640
  H       -2.0210720     1.4533360    -0.2415290
  H       -0.8043560     1.8316700     0.9936370
  H       -0.3683700     1.8762600    -0.7127200
  H       -1.1582580    -2.1388040    -0.1786760
  H       -2.4475370    -0.8736020    -0.5747320
units angstrom
no_reorient  #important for SAPT in psi4, default
symmetry c1  #important for SAPT in psi4, default
}

set PROPERTIES_ORIGIN ["COM"]
properties('MP2/aug-cc-pvtz', properties = ['dipole'])
--------------------------------------------------------------------------

    Molecular point group: c1
  Charge       = 0
  Multiplicity = 1
  Basis Set: AUG-CC-PVTZ
    Blend: AUG-CC-PVTZ
  Basis Set: (AUG-CC-PVTZ AUX)
    Blend: AUG-CC-PVTZ-JKFIT

    Orbital Energies [Eh]
    ---------------------

    Doubly Occupied:

       1A    -11.235628     2A    -11.224382     3A    -11.219748
       4A    -11.216566     5A    -11.208324     6A     -1.096519
       7A     -0.997627     8A     -0.930280     9A     -0.854275
      10A     -0.713181    11A     -0.627196    12A     -0.623849
      13A     -0.583384    14A     -0.565313    15A     -0.538296
      16A     -0.514250    17A     -0.511223    18A     -0.481449
      19A     -0.459651    20A     -0.349471

  @DF-RHF Final Energy:  -195.21418928454975

   => Energetics <=

    Nuclear Repulsion Energy =            175.7019809026236317
    One-Electron Energy =                -609.9311170044477421
    Two-Electron Energy =                 239.0149468172743639
    Total Energy =                       -195.2141892845497466
  Basis Set: (AUG-CC-PVTZ AUX)
    Blend: AUG-CC-PVTZ-RI
    Molecular point group: c1

    Geometry (in Angstrom), charge = 0, multiplicity = 1:

       Center              X                  Y                   Z               Mass
    ------------   -----------------  -----------------  -----------------  -----------------
         C            0.845384740281    -0.402329162996     0.553601133945    12.000000000000
         C           -0.574123959719    -0.116736562996     0.132801433945    12.000000000000
         C            1.924559740281     0.101429837004    -0.410248866055    12.000000000000
         C           -0.941922259719     1.360069837004     0.015699133945    12.000000000000
         C           -1.412687259719    -1.068741162996    -0.247858866055    12.000000000000
         H            1.006629740281     0.050498837004     1.541456133945     1.007825032230
         H            0.950116740281    -1.485481162996     0.682403133945     1.007825032230
         H            1.907681740281     1.190688837004    -0.499896866055     1.007825032230
         H            2.920633740281    -0.187690162996    -0.062227866055     1.007825032230
         H            1.774055740281    -0.323937162996    -1.406643866055     1.007825032230
         H           -1.994842259719     1.475531837004    -0.254508866055     1.007825032230
         H           -0.778126259719     1.853865837004     0.980657133945     1.007825032230
         H           -0.342140259719     1.898455837004    -0.725699866055     1.007825032230
         H           -1.132028259719    -2.116608162996    -0.191655866055     1.007825032230
         H           -2.421307259719    -0.851406162996    -0.587711866055     1.007825032230

  Basis Set: AUG-CC-PVTZ
    Blend: AUG-CC-PVTZ
  Basis Set: (AUG-CC-PVTZ AUX)
    Blend: AUG-CC-PVTZ-JKFIT
	 Reference Energy          =    -195.2141892845497466 [Eh]
	 Singles Energy            =      -0.0000000000000000 [Eh]
	 Same-Spin Energy          =      -0.2058793638941887 [Eh]
	 Opposite-Spin Energy      =      -0.7616905935600174 [Eh]
	 Correlation Energy        =      -0.9675699574542062 [Eh]
	 Total Energy              =    -196.1817592420039489 [Eh]

	 ================> DF-SCS-MP2 Energies <==================
	-----------------------------------------------------------
	 SCS Same-Spin Scale       =       0.3333333333333333 [-]
	 SCS Opposite-Spin Scale   =       1.2000000000000000 [-]
	 SCS Same-Spin Energy      =      -0.0686264546313962 [Eh]
	 SCS Opposite-Spin Energy  =      -0.9140287122720209 [Eh]
	 SCS Correlation Energy    =      -0.9826551669034171 [Eh]
	 SCS Total Energy          =    -196.1968444514531598 [Eh]
	-----------------------------------------------------------

  Dipole Moment: [D]
     X:     0.3579      Y:     0.3007      Z:     0.0509     Total:     0.4702

*** Psi4 exiting successfully. Buy a developer a beer!
