                               Psi4 1.3.2 release

  ==> Input File <==

--------------------------------------------------------------------------
#psi4
#
memory 32 gb

molecule  {
0 1
  C        0.8086971    -0.4758041     0.5609986
  C       -0.5818120    -0.1153060     0.1025600
  C        1.8983300     0.0792340    -0.3972690
  C       -0.9681520     1.3378740     0.0286790
  C       -1.4389170    -1.0909370    -0.2348790
  H        0.9804000     0.0283030     1.5544360
  H        0.9238870    -1.5076770     0.6953830
  H        1.8814520     1.1684930    -0.4869170
  H        2.8944040    -0.2098860    -0.0492480
  H        1.7478260    -0.3461330    -1.3936640
  H       -2.0210720     1.4533360    -0.2415290
  H       -0.8043560     1.8316700     0.9936370
  H       -0.3683700     1.8762600    -0.7127200
  H       -1.1582580    -2.1388040    -0.1786760
  H       -2.4475370    -0.8736020    -0.5747320
units angstrom
no_reorient  #important for SAPT in psi4, default
symmetry c1  #important for SAPT in psi4, default
}

set PROPERTIES_ORIGIN ["COM"]
properties('MP2/aug-cc-pvtz', properties = ['dipole'])
--------------------------------------------------------------------------

    Molecular point group: c1
  Charge       = 0
  Multiplicity = 1
  Basis Set: AUG-CC-PVTZ
    Blend: AUG-CC-PVTZ
  Basis Set: (AUG-CC-PVTZ AUX)
    Blend: AUG-CC-PVTZ-JKFIT

    Orbital Energies [Eh]
    ---------------------

    Doubly Occupied:

       1A    -11.237320     2A    -11.224248     3A    -11.220898
       4A    -11.216424     5A    -11.208774     6A     -1.096363
       7A     -0.994746     8A     -0.931088     9A     -0.853347
      10A     -0.717009    11A     -0.629392    12A     -0.623136
      13A     -0.582224    14A     -0.563389    15A     -0.540823
      16A     -0.517289    17A     -0.503933    18A     -0.484122
      19A     -0.466417    20A     -0.342805

  @DF-RHF Final Energy:  -195.21206758002853

   => Energetics <=

    Nuclear Repulsion Energy =            175.6474347009006465
    One-Electron Energy =                -609.8115095701307382
    Two-Electron Energy =                 238.9520072892015605
    Total Energy =                       -195.2120675800285312
  Basis Set: (AUG-CC-PVTZ AUX)
    Blend: AUG-CC-PVTZ-RI
    Molecular point group: c1

    Geometry (in Angstrom), charge = 0, multiplicity = 1:

       Center              X                  Y                   Z               Mass
    ------------   -----------------  -----------------  -----------------  -----------------
         C            0.833542593392    -0.448873093404     0.556375740538    12.000000000000
         C           -0.556966506608    -0.088374993404     0.097937140538    12.000000000000
         C            1.923175493392     0.106165006596    -0.401891859462    12.000000000000
         C           -0.943306506608     1.364805006596     0.024056140538    12.000000000000
         C           -1.414071506608    -1.064005993404    -0.239501859462    12.000000000000
         H            1.005245493392     0.055234006596     1.549813140538     1.007825032230
         H            0.948732493392    -1.480745993404     0.690760140538     1.007825032230
         H            1.906297493392     1.195424006596    -0.491539859462     1.007825032230
         H            2.919249493392    -0.182954993404    -0.053870859462     1.007825032230
         H            1.772671493392    -0.319201993404    -1.398286859462     1.007825032230
         H           -1.996226506608     1.480267006596    -0.246151859462     1.007825032230
         H           -0.779510506608     1.858601006596     0.989014140538     1.007825032230
         H           -0.343524506608     1.903191006596    -0.717342859462     1.007825032230
         H           -1.133412506608    -2.111872993404    -0.183298859462     1.007825032230
         H           -2.422691506608    -0.846670993404    -0.579354859462     1.007825032230

  Basis Set: AUG-CC-PVTZ
    Blend: AUG-CC-PVTZ
  Basis Set: (AUG-CC-PVTZ AUX)
    Blend: AUG-CC-PVTZ-JKFIT
	 Reference Energy          =    -195.2120675800285312 [Eh]
	 Singles Energy            =      -0.0000000000000000 [Eh]
	 Same-Spin Energy          =      -0.2060590279269901 [Eh]
	 Opposite-Spin Energy      =      -0.7620005042873446 [Eh]
	 Correlation Energy        =      -0.9680595322143346 [Eh]
	 Total Energy              =    -196.1801271122428716 [Eh]

	 ================> DF-SCS-MP2 Energies <==================
	-----------------------------------------------------------
	 SCS Same-Spin Scale       =       0.3333333333333333 [-]
	 SCS Opposite-Spin Scale   =       1.2000000000000000 [-]
	 SCS Same-Spin Energy      =      -0.0686863426423300 [Eh]
	 SCS Opposite-Spin Energy  =      -0.9144006051448135 [Eh]
	 SCS Correlation Energy    =      -0.9830869477871436 [Eh]
	 SCS Total Energy          =    -196.1951545278156743 [Eh]
	-----------------------------------------------------------

  Dipole Moment: [D]
     X:     0.3411      Y:     0.3212      Z:     0.1043     Total:     0.4800

*** Psi4 exiting successfully. Buy a developer a beer!
