                               Psi4 1.3.2 release

  ==> Input File <==

--------------------------------------------------------------------------
#psi4
#
memory 32 gb

molecule  {
0 1
  C        0.8191550    -0.4245250     0.5665810
  C       -0.5818120    -0.1153060     0.1025600
  C        1.8983300     0.0792340    -0.3972690
  C       -0.9919871     1.3308649     0.0201267
  C       -1.4389170    -1.0909370    -0.2348790
  H        0.9804000     0.0283030     1.5544360
  H        0.9238870    -1.5076770     0.6953830
  H        1.8814520     1.1684930    -0.4869170
  H        2.8944040    -0.2098860    -0.0492480
  H        1.7478260    -0.3461330    -1.3936640
  H       -2.0210720     1.4533360    -0.2415290
  H       -0.8043560     1.8316700     0.9936370
  H       -0.3683700     1.8762600    -0.7127200
  H       -1.1582580    -2.1388040    -0.1786760
  H       -2.4475370    -0.8736020    -0.5747320
units angstrom
no_reorient  #important for SAPT in psi4, default
symmetry c1  #important for SAPT in psi4, default
}

set PROPERTIES_ORIGIN ["COM"]
properties('MP2/aug-cc-pvtz', properties = ['dipole'])
--------------------------------------------------------------------------

    Molecular point group: c1
  Charge       = 0
  Multiplicity = 1
  Basis Set: AUG-CC-PVTZ
    Blend: AUG-CC-PVTZ
  Basis Set: (AUG-CC-PVTZ AUX)
    Blend: AUG-CC-PVTZ-JKFIT

    Orbital Energies [Eh]
    ---------------------

    Doubly Occupied:

       1A    -11.237279     2A    -11.225238     3A    -11.219881
       4A    -11.215879     5A    -11.209242     6A     -1.096954
       7A     -0.998193     8A     -0.929498     9A     -0.852969
      10A     -0.715265    11A     -0.627895    12A     -0.625358
      13A     -0.581843    14A     -0.561539    15A     -0.544572
      16A     -0.514761    17A     -0.508456    18A     -0.480447
      19A     -0.466576    20A     -0.343597

  @DF-RHF Final Energy:  -195.21426400671101

   => Energetics <=

    Nuclear Repulsion Energy =            175.7555115684559439
    One-Electron Energy =                -610.0286660046810994
    Two-Electron Energy =                 239.0588904295141219
    Total Energy =                       -195.2142640067110051
  Basis Set: (AUG-CC-PVTZ AUX)
    Blend: AUG-CC-PVTZ-RI
    Molecular point group: c1

    Geometry (in Angstrom), charge = 0, multiplicity = 1:

       Center              X                  Y                   Z               Mass
    ------------   -----------------  -----------------  -----------------  -----------------
         C            0.846291167021    -0.405174662121     0.562466697756    12.000000000000
         C           -0.554675832979    -0.095955662121     0.098445697756    12.000000000000
         C            1.925466167021     0.098584337879    -0.401383302244    12.000000000000
         C           -0.964850932979     1.350215237879     0.016012397756    12.000000000000
         C           -1.411780832979    -1.071586662121    -0.238993302244    12.000000000000
         H            1.007536167021     0.047653337879     1.550321697756     1.007825032230
         H            0.951023167021    -1.488326662121     0.691268697756     1.007825032230
         H            1.908588167021     1.187843337879    -0.491031302244     1.007825032230
         H            2.921540167021    -0.190535662121    -0.053362302244     1.007825032230
         H            1.774962167021    -0.326782662121    -1.397778302244     1.007825032230
         H           -1.993935832979     1.472686337879    -0.245643302244     1.007825032230
         H           -0.777219832979     1.851020337879     0.989522697756     1.007825032230
         H           -0.341233832979     1.895610337879    -0.716834302244     1.007825032230
         H           -1.131121832979    -2.119453662121    -0.182790302244     1.007825032230
         H           -2.420400832979    -0.854251662121    -0.578846302244     1.007825032230

  Basis Set: AUG-CC-PVTZ
    Blend: AUG-CC-PVTZ
  Basis Set: (AUG-CC-PVTZ AUX)
    Blend: AUG-CC-PVTZ-JKFIT
	 Reference Energy          =    -195.2142640067110051 [Eh]
	 Singles Energy            =      -0.0000000000000000 [Eh]
	 Same-Spin Energy          =      -0.2061147939192809 [Eh]
	 Opposite-Spin Energy      =      -0.7620218228618275 [Eh]
	 Correlation Energy        =      -0.9681366167811084 [Eh]
	 Total Energy              =    -196.1824006234921001 [Eh]

	 ================> DF-SCS-MP2 Energies <==================
	-----------------------------------------------------------
	 SCS Same-Spin Scale       =       0.3333333333333333 [-]
	 SCS Opposite-Spin Scale   =       1.2000000000000000 [-]
	 SCS Same-Spin Energy      =      -0.0687049313064270 [Eh]
	 SCS Opposite-Spin Energy  =      -0.9144261874341930 [Eh]
	 SCS Correlation Energy    =      -0.9831311187406200 [Eh]
	 SCS Total Energy          =    -196.1973951254516351 [Eh]
	-----------------------------------------------------------

  Dipole Moment: [D]
     X:     0.3449      Y:     0.3290      Z:     0.1065     Total:     0.4883

*** Psi4 exiting successfully. Buy a developer a beer!
