                               Psi4 1.4a3.dev225

  ==> Input File <==

--------------------------------------------------------------------------
#psi4
#
memory 32 gb

molecule  {
0 1
  C        0.8192070    -0.4243310     0.5666400
  C       -0.5817970    -0.1153230     0.1026030
  C        1.8983540     0.0792820    -0.3972980
  C       -0.9555408     1.2895301     0.0310781
  C       -1.4387520    -1.0910830    -0.2348580
  H        0.9804630     0.0287030     1.5544050
  H        0.9240160    -1.5074460     0.6957040
  H        1.8809490     1.1684740    -0.4876480
  H        2.8944990    -0.2091260    -0.0488830
  H        1.7482900    -0.3467700    -1.3934660
  H       -2.0213360     1.4530480    -0.2415340
  H       -0.8046150     1.8317440     0.9935000
  H       -0.3687290     1.8761680    -0.7128960
  H       -1.1579200    -2.1389110    -0.1787360
  H       -2.4474100    -0.8739030    -0.5746960
units angstrom
no_reorient  #important for SAPT in psi4, default
symmetry c1  #important for SAPT in psi4, default
}

set PROPERTIES_ORIGIN ["COM"]
properties('MP2/aug-cc-pvtz', properties = ['dipole'])
--------------------------------------------------------------------------

    Molecular point group: c1
  Charge       = 0
  Multiplicity = 1
  Basis Set: AUG-CC-PVTZ
    Blend: AUG-CC-PVTZ
  Basis Set: (AUG-CC-PVTZ AUX)
    Blend: AUG-CC-PVTZ-JKFIT

    Orbital Energies [Eh]
    ---------------------

    Doubly Occupied:

       1A    -11.234750     2A    -11.224551     3A    -11.221822
       4A    -11.215640     5A    -11.210275     6A     -1.102696
       7A     -0.999412     8A     -0.928828     9A     -0.853014
      10A     -0.717794    11A     -0.629025    12A     -0.626052
      13A     -0.583574    14A     -0.562847    15A     -0.539948
      16A     -0.511403    17A     -0.506984    18A     -0.481230
      19A     -0.467736    20A     -0.343084

  @DF-RHF Final Energy:  -195.21164091889526

   => Energetics <=

    Nuclear Repulsion Energy =            176.4834000677572305
    One-Electron Energy =                -611.4687524623490162
    Two-Electron Energy =                 239.7737114756965582
    Total Energy =                       -195.2116409188952559
  Basis Set: (AUG-CC-PVTZ AUX)
    Blend: AUG-CC-PVTZ-RI
    Molecular point group: c1

    Geometry (in Angstrom), charge = 0, multiplicity = 1:

       Center              X                  Y                   Z               Mass
    ------------   -----------------  -----------------  -----------------  -----------------
         C            0.840060800159    -0.397916438437     0.560637478831    12.000000000000
         C           -0.560943199841    -0.088908438437     0.096600478831    12.000000000000
         C            1.919207800159     0.105696561563    -0.403300521169    12.000000000000
         C           -0.934686999841     1.315944661563     0.025075578831    12.000000000000
         C           -1.417898199841    -1.064668438437    -0.240860521169    12.000000000000
         H            1.001316800159     0.055117561563     1.548402478831     1.007825032230
         H            0.944869800159    -1.481031438437     0.689701478831     1.007825032230
         H            1.901802800159     1.194888561563    -0.493650521169     1.007825032230
         H            2.915352800159    -0.182711438437    -0.054885521169     1.007825032230
         H            1.769143800159    -0.320355438437    -1.399468521169     1.007825032230
         H           -2.000482199841     1.479462561563    -0.247536521169     1.007825032230
         H           -0.783761199841     1.858158561563     0.987497478831     1.007825032230
         H           -0.347875199841     1.902582561563    -0.718898521169     1.007825032230
         H           -1.137066199841    -2.112496438437    -0.184738521169     1.007825032230
         H           -2.426556199841    -0.847488438437    -0.580698521169     1.007825032230

  Basis Set: AUG-CC-PVTZ
    Blend: AUG-CC-PVTZ
  Basis Set: (AUG-CC-PVTZ AUX)
    Blend: AUG-CC-PVTZ-JKFIT
	 Reference Energy          =    -195.2116409188952559 [Eh]
	 Singles Energy            =      -0.0000000000000000 [Eh]
	 Same-Spin Energy          =      -0.2066730688869304 [Eh]
	 Opposite-Spin Energy      =      -0.7626282507999089 [Eh]
	 Correlation Energy        =      -0.9693013196868394 [Eh]
	 Total Energy              =    -196.1809422385821051 [Eh]

	 ================> DF-SCS-MP2 Energies <==================
	-----------------------------------------------------------
	 SCS Same-Spin Scale       =       0.3333333333333333 [-]
	 SCS Opposite-Spin Scale   =       1.2000000000000000 [-]
	 SCS Same-Spin Energy      =      -0.0688910229623101 [Eh]
	 SCS Opposite-Spin Energy  =      -0.9151539009598907 [Eh]
	 SCS Correlation Energy    =      -0.9840449239222008 [Eh]
	 SCS Total Energy          =    -196.1956858428174542 [Eh]
	-----------------------------------------------------------

  Dipole Moment: [D]
     X:     0.3376      Y:     0.3405      Z:     0.1046     Total:     0.4908

*** Psi4 exiting successfully. Buy a developer a beer!
