                               Psi4 1.3.2 release

  ==> Input File <==

--------------------------------------------------------------------------
#psi4
#
memory 32 gb

molecule  {
0 1
  C        0.8191550    -0.4245250     0.5665810
  C       -0.5818120    -0.1153060     0.1025600
  C        1.8983300     0.0792340    -0.3972690
  C       -0.8717079     1.3614646     0.0630872
  C       -1.4389170    -1.0909370    -0.2348790
  H        0.9804000     0.0283030     1.5544360
  H        0.9238870    -1.5076770     0.6953830
  H        1.8814520     1.1684930    -0.4869170
  H        2.8944040    -0.2098860    -0.0492480
  H        1.7478260    -0.3461330    -1.3936640
  H       -2.0210720     1.4533360    -0.2415290
  H       -0.8043560     1.8316700     0.9936370
  H       -0.3683700     1.8762600    -0.7127200
  H       -1.1582580    -2.1388040    -0.1786760
  H       -2.4475370    -0.8736020    -0.5747320
units angstrom
no_reorient  #important for SAPT in psi4, default
symmetry c1  #important for SAPT in psi4, default
}

set PROPERTIES_ORIGIN ["COM"]
properties('MP2/aug-cc-pvtz', properties = ['dipole'])
--------------------------------------------------------------------------

    Molecular point group: c1
  Charge       = 0
  Multiplicity = 1
  Basis Set: AUG-CC-PVTZ
    Blend: AUG-CC-PVTZ
  Basis Set: (AUG-CC-PVTZ AUX)
    Blend: AUG-CC-PVTZ-JKFIT

    Orbital Energies [Eh]
    ---------------------

    Doubly Occupied:

       1A    -11.238392     2A    -11.222473     3A    -11.221192
       4A    -11.215342     5A    -11.212528     6A     -1.097764
       7A     -0.995286     8A     -0.934817     9A     -0.852061
      10A     -0.716202    11A     -0.627836    12A     -0.620379
      13A     -0.598911    14A     -0.573423    15A     -0.534733
      16A     -0.512108    17A     -0.504747    18A     -0.481070
      19A     -0.452540    20A     -0.347554

  @DF-RHF Final Energy:  -195.20343436214819

   => Energetics <=

    Nuclear Repulsion Energy =            176.0344141214836782
    One-Electron Energy =                -610.5569820001192056
    Two-Electron Energy =                 239.3191335164873408
    Total Energy =                       -195.2034343621481867
  Basis Set: (AUG-CC-PVTZ AUX)
    Blend: AUG-CC-PVTZ-RI
    Molecular point group: c1

    Geometry (in Angstrom), charge = 0, multiplicity = 1:

       Center              X                  Y                   Z               Mass
    ------------   -----------------  -----------------  -----------------  -----------------
         C            0.825694899373    -0.410414467600     0.555110264089    12.000000000000
         C           -0.575272100627    -0.101195467600     0.091089264089    12.000000000000
         C            1.904869899373     0.093344532400    -0.408739735911    12.000000000000
         C           -0.865168000627     1.375575132400     0.051616464089    12.000000000000
         C           -1.432377100627    -1.076826467600    -0.246349735911    12.000000000000
         H            0.986939899373     0.042413532400     1.542965264089     1.007825032230
         H            0.930426899373    -1.493566467600     0.683912264089     1.007825032230
         H            1.887991899373     1.182603532400    -0.498387735911     1.007825032230
         H            2.900943899373    -0.195775467600    -0.060718735911     1.007825032230
         H            1.754365899373    -0.332022467600    -1.405134735911     1.007825032230
         H           -2.014532100627     1.467446532400    -0.252999735911     1.007825032230
         H           -0.797816100627     1.845780532400     0.982166264089     1.007825032230
         H           -0.361830100627     1.890370532400    -0.724190735911     1.007825032230
         H           -1.151718100627    -2.124693467600    -0.190146735911     1.007825032230
         H           -2.440997100627    -0.859491467600    -0.586202735911     1.007825032230

  Basis Set: AUG-CC-PVTZ
    Blend: AUG-CC-PVTZ
  Basis Set: (AUG-CC-PVTZ AUX)
    Blend: AUG-CC-PVTZ-JKFIT
	 Reference Energy          =    -195.2034343621481867 [Eh]
	 Singles Energy            =      -0.0000000000000000 [Eh]
	 Same-Spin Energy          =      -0.2064442900703811 [Eh]
	 Opposite-Spin Energy      =      -0.7629759121037607 [Eh]
	 Correlation Energy        =      -0.9694202021741418 [Eh]
	 Total Energy              =    -196.1728545643223356 [Eh]

	 ================> DF-SCS-MP2 Energies <==================
	-----------------------------------------------------------
	 SCS Same-Spin Scale       =       0.3333333333333333 [-]
	 SCS Opposite-Spin Scale   =       1.2000000000000000 [-]
	 SCS Same-Spin Energy      =      -0.0688147633567937 [Eh]
	 SCS Opposite-Spin Energy  =      -0.9155710945245128 [Eh]
	 SCS Correlation Energy    =      -0.9843858578813065 [Eh]
	 SCS Total Energy          =    -196.1878202200294936 [Eh]
	-----------------------------------------------------------

  Dipole Moment: [D]
     X:     0.3580      Y:     0.3089      Z:     0.1175     Total:     0.4872

*** Psi4 exiting successfully. Buy a developer a beer!
