                               Psi4 1.3.2 release

  ==> Input File <==

--------------------------------------------------------------------------
#psi4
#
memory 32 gb

molecule  {
0 1
  C        0.7827137    -0.5769828     0.5481657
  C       -0.5818120    -0.1153060     0.1025600
  C        1.8983300     0.0792340    -0.3972690
  C       -0.9681520     1.3378740     0.0286790
  C       -1.4389170    -1.0909370    -0.2348790
  H        0.9804000     0.0283030     1.5544360
  H        0.9238870    -1.5076770     0.6953830
  H        1.8814520     1.1684930    -0.4869170
  H        2.8944040    -0.2098860    -0.0492480
  H        1.7478260    -0.3461330    -1.3936640
  H       -2.0210720     1.4533360    -0.2415290
  H       -0.8043560     1.8316700     0.9936370
  H       -0.3683700     1.8762600    -0.7127200
  H       -1.1582580    -2.1388040    -0.1786760
  H       -2.4475370    -0.8736020    -0.5747320
units angstrom
no_reorient  #important for SAPT in psi4, default
symmetry c1  #important for SAPT in psi4, default
}

set PROPERTIES_ORIGIN ["COM"]
properties('MP2/aug-cc-pvtz', properties = ['dipole'])
--------------------------------------------------------------------------

    Molecular point group: c1
  Charge       = 0
  Multiplicity = 1
  Basis Set: AUG-CC-PVTZ
    Blend: AUG-CC-PVTZ
  Basis Set: (AUG-CC-PVTZ AUX)
    Blend: AUG-CC-PVTZ-JKFIT

    Orbital Energies [Eh]
    ---------------------

    Doubly Occupied:

       1A    -11.238622     2A    -11.225970     3A    -11.223907
       4A    -11.218847     5A    -11.207079     6A     -1.096389
       7A     -0.990382     8A     -0.933142     9A     -0.857168
      10A     -0.726630    11A     -0.635510    12A     -0.618117
      13A     -0.580317    14A     -0.561694    15A     -0.541722
      16A     -0.528040    17A     -0.505283    18A     -0.475302
      19A     -0.460193    20A     -0.338943

  @DF-RHF Final Energy:  -195.18429742026822

   => Energetics <=

    Nuclear Repulsion Energy =            175.3507761361024961
    One-Electron Energy =                -609.1436334117138358
    Two-Electron Energy =                 238.6085598553431453
    Total Energy =                       -195.1842974202682228
  Basis Set: (AUG-CC-PVTZ AUX)
    Blend: AUG-CC-PVTZ-RI
    Molecular point group: c1

    Geometry (in Angstrom), charge = 0, multiplicity = 1:

       Center              X                  Y                   Z               Mass
    ------------   -----------------  -----------------  -----------------  -----------------
         C            0.812008516807    -0.532726240976     0.545740309786    12.000000000000
         C           -0.552517183193    -0.071049440976     0.100134609786    12.000000000000
         C            1.927624816807     0.123490559024    -0.399694390214    12.000000000000
         C           -0.938857183193     1.382130559024     0.026253609786    12.000000000000
         C           -1.409622183193    -1.046680440976    -0.237304390214    12.000000000000
         H            1.009694816807     0.072559559024     1.552010609786     1.007825032230
         H            0.953181816807    -1.463420440976     0.692957609786     1.007825032230
         H            1.910746816807     1.212749559024    -0.489342390214     1.007825032230
         H            2.923698816807    -0.165629440976    -0.051673390214     1.007825032230
         H            1.777120816807    -0.301876440976    -1.396089390214     1.007825032230
         H           -1.991777183193     1.497592559024    -0.243954390214     1.007825032230
         H           -0.775061183193     1.875926559024     0.991211609786     1.007825032230
         H           -0.339075183193     1.920516559024    -0.715145390214     1.007825032230
         H           -1.128963183193    -2.094547440976    -0.181101390214     1.007825032230
         H           -2.418242183193    -0.829345440976    -0.577157390214     1.007825032230

  Basis Set: AUG-CC-PVTZ
    Blend: AUG-CC-PVTZ
  Basis Set: (AUG-CC-PVTZ AUX)
    Blend: AUG-CC-PVTZ-JKFIT
	 Reference Energy          =    -195.1842974202682228 [Eh]
	 Singles Energy            =      -0.0000000000000000 [Eh]
	 Same-Spin Energy          =      -0.2063033907435145 [Eh]
	 Opposite-Spin Energy      =      -0.7629948048125604 [Eh]
	 Correlation Energy        =      -0.9692981955560749 [Eh]
	 Total Energy              =    -196.1535956158242868 [Eh]

	 ================> DF-SCS-MP2 Energies <==================
	-----------------------------------------------------------
	 SCS Same-Spin Scale       =       0.3333333333333333 [-]
	 SCS Opposite-Spin Scale   =       1.2000000000000000 [-]
	 SCS Same-Spin Energy      =      -0.0687677969145048 [Eh]
	 SCS Opposite-Spin Energy  =      -0.9155937657750725 [Eh]
	 SCS Correlation Energy    =      -0.9843615626895773 [Eh]
	 SCS Total Energy          =    -196.1686589829577940 [Eh]
	-----------------------------------------------------------

  Dipole Moment: [D]
     X:     0.3223      Y:     0.3295      Z:     0.0744     Total:     0.4669

*** Psi4 exiting successfully. Buy a developer a beer!
