                               Psi4 1.3.2 release

  ==> Input File <==

--------------------------------------------------------------------------
#psi4
#
memory 32 gb

molecule  {
0 1
  C        0.8191550    -0.4245250     0.5665810
  C       -0.5818120    -0.1153060     0.1025600
  C        1.8983300     0.0792340    -0.3972690
  C       -0.9168273     1.1448211     0.0384940
  C       -1.4389170    -1.0909370    -0.2348790
  H        0.9804000     0.0283030     1.5544360
  H        0.9238870    -1.5076770     0.6953830
  H        1.8814520     1.1684930    -0.4869170
  H        2.8944040    -0.2098860    -0.0492480
  H        1.7478260    -0.3461330    -1.3936640
  H       -2.0210720     1.4533360    -0.2415290
  H       -0.8043560     1.8316700     0.9936370
  H       -0.3683700     1.8762600    -0.7127200
  H       -1.1582580    -2.1388040    -0.1786760
  H       -2.4475370    -0.8736020    -0.5747320
units angstrom
no_reorient  #important for SAPT in psi4, default
symmetry c1  #important for SAPT in psi4, default
}

set PROPERTIES_ORIGIN ["COM"]
properties('MP2/aug-cc-pvtz', properties = ['dipole'])
--------------------------------------------------------------------------

    Molecular point group: c1
  Charge       = 0
  Multiplicity = 1
  Basis Set: AUG-CC-PVTZ
    Blend: AUG-CC-PVTZ
  Basis Set: (AUG-CC-PVTZ AUX)
    Blend: AUG-CC-PVTZ-JKFIT

    Orbital Energies [Eh]
    ---------------------

    Doubly Occupied:

       1A    -11.231370     2A    -11.225175     3A    -11.224393
       4A    -11.215474     5A    -11.212920     6A     -1.128138
       7A     -1.006172     8A     -0.926734     9A     -0.854217
      10A     -0.726193    11A     -0.638055    12A     -0.631295
      13A     -0.587629    14A     -0.566200    15A     -0.540220
      16A     -0.503479    17A     -0.497362    18A     -0.481658
      19A     -0.455754    20A     -0.335800

  @DF-RHF Final Energy:  -195.16271080608655

   => Energetics <=

    Nuclear Repulsion Energy =            178.7276850324774671
    One-Electron Energy =                -615.8043126281189643
    Two-Electron Energy =                 241.9139167895549747
    Total Energy =                       -195.1627108060865510
  Basis Set: (AUG-CC-PVTZ AUX)
    Blend: AUG-CC-PVTZ-RI
    Molecular point group: c1

    Geometry (in Angstrom), charge = 0, multiplicity = 1:

       Center              X                  Y                   Z               Mass
    ------------   -----------------  -----------------  -----------------  -----------------
         C            0.833421016927    -0.373317051668     0.559321533615    12.000000000000
         C           -0.567545983073    -0.064098051668     0.095300533615    12.000000000000
         C            1.912596016927     0.130441948332    -0.404528466385    12.000000000000
         C           -0.902561283073     1.196029048332     0.031234533615    12.000000000000
         C           -1.424650983073    -1.039729051668    -0.242138466385    12.000000000000
         H            0.994666016927     0.079510948332     1.547176533615     1.007825032230
         H            0.938153016927    -1.456469051668     0.688123533615     1.007825032230
         H            1.895718016927     1.219700948332    -0.494176466385     1.007825032230
         H            2.908670016927    -0.158678051668    -0.056507466385     1.007825032230
         H            1.762092016927    -0.294925051668    -1.400923466385     1.007825032230
         H           -2.006805983073     1.504543948332    -0.248788466385     1.007825032230
         H           -0.790089983073     1.882877948332     0.986377533615     1.007825032230
         H           -0.354103983073     1.927467948332    -0.719979466385     1.007825032230
         H           -1.143991983073    -2.087596051668    -0.185935466385     1.007825032230
         H           -2.433270983073    -0.822394051668    -0.581991466385     1.007825032230

  Basis Set: AUG-CC-PVTZ
    Blend: AUG-CC-PVTZ
  Basis Set: (AUG-CC-PVTZ AUX)
    Blend: AUG-CC-PVTZ-JKFIT
	 Reference Energy          =    -195.1627108060865510 [Eh]
	 Singles Energy            =      -0.0000000000000000 [Eh]
	 Same-Spin Energy          =      -0.2097542534353337 [Eh]
	 Opposite-Spin Energy      =      -0.7666890039540146 [Eh]
	 Correlation Energy        =      -0.9764432573893482 [Eh]
	 Total Energy              =    -196.1391540634758996 [Eh]

	 ================> DF-SCS-MP2 Energies <==================
	-----------------------------------------------------------
	 SCS Same-Spin Scale       =       0.3333333333333333 [-]
	 SCS Opposite-Spin Scale   =       1.2000000000000000 [-]
	 SCS Same-Spin Energy      =      -0.0699180844784446 [Eh]
	 SCS Opposite-Spin Energy  =      -0.9200268047448175 [Eh]
	 SCS Correlation Energy    =      -0.9899448892232621 [Eh]
	 SCS Total Energy          =    -196.1526556953098179 [Eh]
	-----------------------------------------------------------

  Dipole Moment: [D]
     X:     0.3342      Y:     0.3383      Z:     0.0929     Total:     0.4846

*** Psi4 exiting successfully. Buy a developer a beer!
