                               Psi4 1.3.2 release

  ==> Input File <==

--------------------------------------------------------------------------
#psi4
#
memory 32 gb

molecule  {
0 1
  C        0.8191550    -0.4245250     0.5665810
  C       -0.5912977    -0.1270739     0.1241032
  C        1.8983300     0.0792340    -0.3972690
  C       -0.9681520     1.3378740     0.0286790
  C       -1.4389170    -1.0909370    -0.2348790
  H        0.9804000     0.0283030     1.5544360
  H        0.9238870    -1.5076770     0.6953830
  H        1.8814520     1.1684930    -0.4869170
  H        2.8944040    -0.2098860    -0.0492480
  H        1.7478260    -0.3461330    -1.3936640
  H       -2.0210720     1.4533360    -0.2415290
  H       -0.8043560     1.8316700     0.9936370
  H       -0.3683700     1.8762600    -0.7127200
  H       -1.1582580    -2.1388040    -0.1786760
  H       -2.4475370    -0.8736020    -0.5747320
units angstrom
no_reorient  #important for SAPT in psi4, default
symmetry c1  #important for SAPT in psi4, default
}

set PROPERTIES_ORIGIN ["COM"]
properties('MP2/aug-cc-pvtz', properties = ['dipole'])
--------------------------------------------------------------------------

    Molecular point group: c1
  Charge       = 0
  Multiplicity = 1
  Basis Set: AUG-CC-PVTZ
    Blend: AUG-CC-PVTZ
  Basis Set: (AUG-CC-PVTZ AUX)
    Blend: AUG-CC-PVTZ-JKFIT

    Orbital Energies [Eh]
    ---------------------

    Doubly Occupied:

       1A    -11.236396     2A    -11.224467     3A    -11.219704
       4A    -11.216137     5A    -11.208977     6A     -1.096727
       7A     -0.997526     8A     -0.930405     9A     -0.853484
      10A     -0.714044    11A     -0.627005    12A     -0.624439
      13A     -0.583518    14A     -0.564923    15A     -0.539580
      16A     -0.514577    17A     -0.510394    18A     -0.481014
      19A     -0.462330    20A     -0.346999

  @DF-RHF Final Energy:  -195.21497510918883

   => Energetics <=

    Nuclear Repulsion Energy =            175.7581027726411378
    One-Electron Energy =                -610.0408712401058438
    Two-Electron Energy =                 239.0677933582759067
    Total Energy =                       -195.2149751091888277
  Basis Set: (AUG-CC-PVTZ AUX)
    Blend: AUG-CC-PVTZ-RI
    Molecular point group: c1

    Geometry (in Angstrom), charge = 0, multiplicity = 1:

       Center              X                  Y                   Z               Mass
    ------------   -----------------  -----------------  -----------------  -----------------
         C            0.843834016633    -0.404359778763     0.557313230049    12.000000000000
         C           -0.566618683367    -0.106908678763     0.114835430049    12.000000000000
         C            1.923009016633     0.099399221237    -0.406536769951    12.000000000000
         C           -0.943472983367     1.358039221237     0.019411230049    12.000000000000
         C           -1.414237983367    -1.070771778763    -0.244146769951    12.000000000000
         H            1.005079016633     0.048468221237     1.545168230049     1.007825032230
         H            0.948566016633    -1.487511778763     0.686115230049     1.007825032230
         H            1.906131016633     1.188658221237    -0.496184769951     1.007825032230
         H            2.919083016633    -0.189720778763    -0.058515769951     1.007825032230
         H            1.772505016633    -0.325967778763    -1.402931769951     1.007825032230
         H           -1.996392983367     1.473501221237    -0.250796769951     1.007825032230
         H           -0.779676983367     1.851835221237     0.984369230049     1.007825032230
         H           -0.343690983367     1.896425221237    -0.721987769951     1.007825032230
         H           -1.133578983367    -2.118638778763    -0.187943769951     1.007825032230
         H           -2.422857983367    -0.853436778763    -0.583999769951     1.007825032230

  Basis Set: AUG-CC-PVTZ
    Blend: AUG-CC-PVTZ
  Basis Set: (AUG-CC-PVTZ AUX)
    Blend: AUG-CC-PVTZ-JKFIT
	 Reference Energy          =    -195.2149751091888277 [Eh]
	 Singles Energy            =      -0.0000000000000000 [Eh]
	 Same-Spin Energy          =      -0.2059844955242736 [Eh]
	 Opposite-Spin Energy      =      -0.7618284974491005 [Eh]
	 Correlation Energy        =      -0.9678129929733742 [Eh]
	 Total Energy              =    -196.1827881021621920 [Eh]

	 ================> DF-SCS-MP2 Energies <==================
	-----------------------------------------------------------
	 SCS Same-Spin Scale       =       0.3333333333333333 [-]
	 SCS Opposite-Spin Scale   =       1.2000000000000000 [-]
	 SCS Same-Spin Energy      =      -0.0686614985080912 [Eh]
	 SCS Opposite-Spin Energy  =      -0.9141941969389206 [Eh]
	 SCS Correlation Energy    =      -0.9828556954470118 [Eh]
	 SCS Total Energy          =    -196.1978308046358279 [Eh]
	-----------------------------------------------------------

  Dipole Moment: [D]
     X:     0.3514      Y:     0.3158      Z:     0.0799     Total:     0.4792

*** Psi4 exiting successfully. Buy a developer a beer!
