                               Psi4 1.3.2 release

  ==> Input File <==

--------------------------------------------------------------------------
#psi4
#
memory 32 gb

molecule  {
0 1
  C        0.8237446    -0.3987402     0.5691606
  C       -0.5818120    -0.1153060     0.1025600
  C        1.8983300     0.0792340    -0.3972690
  C       -0.9681520     1.3378740     0.0286790
  C       -1.4389170    -1.0909370    -0.2348790
  H        0.9804000     0.0283030     1.5544360
  H        0.9238870    -1.5076770     0.6953830
  H        1.8814520     1.1684930    -0.4869170
  H        2.8944040    -0.2098860    -0.0492480
  H        1.7478260    -0.3461330    -1.3936640
  H       -2.0210720     1.4533360    -0.2415290
  H       -0.8043560     1.8316700     0.9936370
  H       -0.3683700     1.8762600    -0.7127200
  H       -1.1582580    -2.1388040    -0.1786760
  H       -2.4475370    -0.8736020    -0.5747320
units angstrom
no_reorient  #important for SAPT in psi4, default
symmetry c1  #important for SAPT in psi4, default
}

set PROPERTIES_ORIGIN ["COM"]
properties('MP2/aug-cc-pvtz', properties = ['dipole'])
--------------------------------------------------------------------------

    Molecular point group: c1
  Charge       = 0
  Multiplicity = 1
  Basis Set: AUG-CC-PVTZ
    Blend: AUG-CC-PVTZ
  Basis Set: (AUG-CC-PVTZ AUX)
    Blend: AUG-CC-PVTZ-JKFIT

    Orbital Energies [Eh]
    ---------------------

    Doubly Occupied:

       1A    -11.237443     2A    -11.225058     3A    -11.219117
       4A    -11.215510     5A    -11.210399     6A     -1.097386
       7A     -0.998919     8A     -0.930018     9A     -0.852643
      10A     -0.714575    11A     -0.627222    12A     -0.624238
      13A     -0.584545    14A     -0.565019    15A     -0.541098
      16A     -0.514760    17A     -0.513003    18A     -0.478896
      19A     -0.461085    20A     -0.345173

  @DF-RHF Final Energy:  -195.21397040432157

   => Energetics <=

    Nuclear Repulsion Energy =            175.8836746287557560
    One-Electron Energy =                -610.2830712601083860
    Two-Electron Energy =                 239.1854262270310301
    Total Energy =                       -195.2139704043215716
  Basis Set: (AUG-CC-PVTZ AUX)
    Blend: AUG-CC-PVTZ-RI
    Molecular point group: c1

    Geometry (in Angstrom), charge = 0, multiplicity = 1:

       Center              X                  Y                   Z               Mass
    ------------   -----------------  -----------------  -----------------  -----------------
         C            0.846013402348    -0.385005396159     0.563140102904    12.000000000000
         C           -0.559543197652    -0.101571196159     0.096539502904    12.000000000000
         C            1.920598802348     0.092968803841    -0.403289497096    12.000000000000
         C           -0.945883197652     1.351608803841     0.022658502904    12.000000000000
         C           -1.416648197652    -1.077202196159    -0.240899497096    12.000000000000
         H            1.002668802348     0.042037803841     1.548415502904     1.007825032230
         H            0.946155802348    -1.493942196159     0.689362502904     1.007825032230
         H            1.903720802348     1.182227803841    -0.492937497096     1.007825032230
         H            2.916672802348    -0.196151196159    -0.055268497096     1.007825032230
         H            1.770094802348    -0.332398196159    -1.399684497096     1.007825032230
         H           -1.998803197652     1.467070803841    -0.247549497096     1.007825032230
         H           -0.782087197652     1.845404803841     0.987616502904     1.007825032230
         H           -0.346101197652     1.889994803841    -0.718740497096     1.007825032230
         H           -1.135989197652    -2.125069196159    -0.184696497096     1.007825032230
         H           -2.425268197652    -0.859867196159    -0.580752497096     1.007825032230

  Basis Set: AUG-CC-PVTZ
    Blend: AUG-CC-PVTZ
  Basis Set: (AUG-CC-PVTZ AUX)
    Blend: AUG-CC-PVTZ-JKFIT
	 Reference Energy          =    -195.2139704043215716 [Eh]
	 Singles Energy            =      -0.0000000000000000 [Eh]
	 Same-Spin Energy          =      -0.2062050995924221 [Eh]
	 Opposite-Spin Energy      =      -0.7622254885670811 [Eh]
	 Correlation Energy        =      -0.9684305881595031 [Eh]
	 Total Energy              =    -196.1824009924810639 [Eh]

	 ================> DF-SCS-MP2 Energies <==================
	-----------------------------------------------------------
	 SCS Same-Spin Scale       =       0.3333333333333333 [-]
	 SCS Opposite-Spin Scale   =       1.2000000000000000 [-]
	 SCS Same-Spin Energy      =      -0.0687350331974740 [Eh]
	 SCS Opposite-Spin Energy  =      -0.9146705862804972 [Eh]
	 SCS Correlation Energy    =      -0.9834056194779712 [Eh]
	 SCS Total Energy          =    -196.1973760237995350 [Eh]
	-----------------------------------------------------------

  Dipole Moment: [D]
     X:     0.3438      Y:     0.3358      Z:     0.1080     Total:     0.4925

*** Psi4 exiting successfully. Buy a developer a beer!
