                               Psi4 1.4a3.dev225

  ==> Input File <==

--------------------------------------------------------------------------
#psi4
#
memory 32 gb

molecule  {
0 1
  C        0.8192070    -0.4243310     0.5666400
  C       -0.5817970    -0.1153230     0.1026030
  C        1.8983540     0.0792820    -0.3972980
  C       -0.9812192     1.3860519     0.0261639
  C       -1.4387520    -1.0910830    -0.2348580
  H        0.9804630     0.0287030     1.5544050
  H        0.9240160    -1.5074460     0.6957040
  H        1.8809490     1.1684740    -0.4876480
  H        2.8944990    -0.2091260    -0.0488830
  H        1.7482900    -0.3467700    -1.3934660
  H       -2.0213360     1.4530480    -0.2415340
  H       -0.8046150     1.8317440     0.9935000
  H       -0.3687290     1.8761680    -0.7128960
  H       -1.1579200    -2.1389110    -0.1787360
  H       -2.4474100    -0.8739030    -0.5746960
units angstrom
no_reorient  #important for SAPT in psi4, default
symmetry c1  #important for SAPT in psi4, default
}

set PROPERTIES_ORIGIN ["COM"]
properties('MP2/aug-cc-pvtz', properties = ['dipole'])
--------------------------------------------------------------------------

    Molecular point group: c1
  Charge       = 0
  Multiplicity = 1
  Basis Set: AUG-CC-PVTZ
    Blend: AUG-CC-PVTZ
  Basis Set: (AUG-CC-PVTZ AUX)
    Blend: AUG-CC-PVTZ-JKFIT

    Orbital Energies [Eh]
    ---------------------

    Doubly Occupied:

       1A    -11.239493     2A    -11.224667     3A    -11.218186
       4A    -11.215792     5A    -11.209525     6A     -1.092226
       7A     -0.995738     8A     -0.932022     9A     -0.852412
      10A     -0.712415    11A     -0.625647    12A     -0.623684
      13A     -0.585002    14A     -0.566706    15A     -0.544236
      16A     -0.516298    17A     -0.511293    18A     -0.480157
      19A     -0.458412    20A     -0.345395

  @DF-RHF Final Energy:  -195.21336829804824

   => Energetics <=

    Nuclear Repulsion Energy =            175.1497509676941604
    One-Electron Energy =                -608.8276254399113441
    Two-Electron Energy =                 238.4645061741689460
    Total Energy =                       -195.2133682980482376
  Basis Set: (AUG-CC-PVTZ AUX)
    Blend: AUG-CC-PVTZ-RI
    Molecular point group: c1

    Geometry (in Angstrom), charge = 0, multiplicity = 1:

       Center              X                  Y                   Z               Mass
    ------------   -----------------  -----------------  -----------------  -----------------
         C            0.844457896243    -0.414444556572     0.561478972443    12.000000000000
         C           -0.556546103757    -0.105436556572     0.097441972443    12.000000000000
         C            1.923604896243     0.089168443428    -0.402459027557    12.000000000000
         C           -0.955968303757     1.395938343428     0.021002872443    12.000000000000
         C           -1.413501103757    -1.081196556572    -0.240019027557    12.000000000000
         H            1.005713896243     0.038589443428     1.549243972443     1.007825032230
         H            0.949266896243    -1.497559556572     0.690542972443     1.007825032230
         H            1.906199896243     1.178360443428    -0.492809027557     1.007825032230
         H            2.919749896243    -0.199239556572    -0.054044027557     1.007825032230
         H            1.773540896243    -0.336883556572    -1.398627027557     1.007825032230
         H           -1.996085103757     1.462934443428    -0.246695027557     1.007825032230
         H           -0.779364103757     1.841630443428     0.988338972443     1.007825032230
         H           -0.343478103757     1.886054443428    -0.718057027557     1.007825032230
         H           -1.132669103757    -2.129024556572    -0.183897027557     1.007825032230
         H           -2.422159103757    -0.864016556572    -0.579857027557     1.007825032230

  Basis Set: AUG-CC-PVTZ
    Blend: AUG-CC-PVTZ
  Basis Set: (AUG-CC-PVTZ AUX)
    Blend: AUG-CC-PVTZ-JKFIT
	 Reference Energy          =    -195.2133682980482376 [Eh]
	 Singles Energy            =      -0.0000000000000000 [Eh]
	 Same-Spin Energy          =      -0.2057872393986646 [Eh]
	 Opposite-Spin Energy      =      -0.7618460704470353 [Eh]
	 Correlation Energy        =      -0.9676333098457000 [Eh]
	 Total Energy              =    -196.1810016078939327 [Eh]

	 ================> DF-SCS-MP2 Energies <==================
	-----------------------------------------------------------
	 SCS Same-Spin Scale       =       0.3333333333333333 [-]
	 SCS Opposite-Spin Scale   =       1.2000000000000000 [-]
	 SCS Same-Spin Energy      =      -0.0685957464662215 [Eh]
	 SCS Opposite-Spin Energy  =      -0.9142152845364424 [Eh]
	 SCS Correlation Energy    =      -0.9828110310026640 [Eh]
	 SCS Total Energy          =    -196.1961793290508922 [Eh]
	-----------------------------------------------------------

  Dipole Moment: [D]
     X:     0.3514      Y:     0.3121      Z:     0.1122     Total:     0.4832

*** Psi4 exiting successfully. Buy a developer a beer!
