                               Psi4 1.3.2 release

  ==> Input File <==

--------------------------------------------------------------------------
#psi4
#
memory 32 gb

molecule  {
0 1
  C        0.8191550    -0.4245250     0.5665810
  C       -0.5607489    -0.1694663     0.0148106
  C        1.8983300     0.0792340    -0.3972690
  C       -0.9681520     1.3378740     0.0286790
  C       -1.4389170    -1.0909370    -0.2348790
  H        0.9804000     0.0283030     1.5544360
  H        0.9238870    -1.5076770     0.6953830
  H        1.8814520     1.1684930    -0.4869170
  H        2.8944040    -0.2098860    -0.0492480
  H        1.7478260    -0.3461330    -1.3936640
  H       -2.0210720     1.4533360    -0.2415290
  H       -0.8043560     1.8316700     0.9936370
  H       -0.3683700     1.8762600    -0.7127200
  H       -1.1582580    -2.1388040    -0.1786760
  H       -2.4475370    -0.8736020    -0.5747320
units angstrom
no_reorient  #important for SAPT in psi4, default
symmetry c1  #important for SAPT in psi4, default
}

set PROPERTIES_ORIGIN ["COM"]
properties('MP2/aug-cc-pvtz', properties = ['dipole'])
--------------------------------------------------------------------------

    Molecular point group: c1
  Charge       = 0
  Multiplicity = 1
  Basis Set: AUG-CC-PVTZ
    Blend: AUG-CC-PVTZ
  Basis Set: (AUG-CC-PVTZ AUX)
    Blend: AUG-CC-PVTZ-JKFIT

    Orbital Energies [Eh]
    ---------------------

    Doubly Occupied:

       1A    -11.232836     2A    -11.224537     3A    -11.220037
       4A    -11.214417     5A    -11.205542     6A     -1.097547
       7A     -0.998557     8A     -0.929361     9A     -0.851709
      10A     -0.713903    11A     -0.628399    12A     -0.623559
      13A     -0.586305    14A     -0.559782    15A     -0.536927
      16A     -0.514072    17A     -0.510535    18A     -0.484806
      19A     -0.448878    20A     -0.357420

  @DF-RHF Final Energy:  -195.20953415468608

   => Energetics <=

    Nuclear Repulsion Energy =            175.9173718747244664
    One-Electron Energy =                -610.3755569935492531
    Two-Electron Energy =                 239.2486509641386760
    Total Energy =                       -195.2095341546860823
  Basis Set: (AUG-CC-PVTZ AUX)
    Blend: AUG-CC-PVTZ-RI
    Molecular point group: c1

    Geometry (in Angstrom), charge = 0, multiplicity = 1:

       Center              X                  Y                   Z               Mass
    ------------   -----------------  -----------------  -----------------  -----------------
         C            0.838602927125    -0.397100624922     0.576028183604    12.000000000000
         C           -0.541300972875    -0.142041924922     0.024257783604    12.000000000000
         C            1.917777927125     0.106658375078    -0.387821816396    12.000000000000
         C           -0.948704072875     1.365298375078     0.038126183604    12.000000000000
         C           -1.419469072875    -1.063512624922    -0.225431816396    12.000000000000
         H            0.999847927125     0.055727375078     1.563883183604     1.007825032230
         H            0.943334927125    -1.480252624922     0.704830183604     1.007825032230
         H            1.900899927125     1.195917375078    -0.477469816396     1.007825032230
         H            2.913851927125    -0.182461624922    -0.039800816396     1.007825032230
         H            1.767273927125    -0.318708624922    -1.384216816396     1.007825032230
         H           -2.001624072875     1.480760375078    -0.232081816396     1.007825032230
         H           -0.784908072875     1.859094375078     1.003084183604     1.007825032230
         H           -0.348922072875     1.903684375078    -0.703272816396     1.007825032230
         H           -1.138810072875    -2.111379624922    -0.169228816396     1.007825032230
         H           -2.428089072875    -0.846177624922    -0.565284816396     1.007825032230

  Basis Set: AUG-CC-PVTZ
    Blend: AUG-CC-PVTZ
  Basis Set: (AUG-CC-PVTZ AUX)
    Blend: AUG-CC-PVTZ-JKFIT
	 Reference Energy          =    -195.2095341546860823 [Eh]
	 Singles Energy            =      -0.0000000000000000 [Eh]
	 Same-Spin Energy          =      -0.2056788948688704 [Eh]
	 Opposite-Spin Energy      =      -0.7615657341669788 [Eh]
	 Correlation Energy        =      -0.9672446290358492 [Eh]
	 Total Energy              =    -196.1767787837219430 [Eh]

	 ================> DF-SCS-MP2 Energies <==================
	-----------------------------------------------------------
	 SCS Same-Spin Scale       =       0.3333333333333333 [-]
	 SCS Opposite-Spin Scale   =       1.2000000000000000 [-]
	 SCS Same-Spin Energy      =      -0.0685596316229568 [Eh]
	 SCS Opposite-Spin Energy  =      -0.9138788810003745 [Eh]
	 SCS Correlation Energy    =      -0.9824385126233313 [Eh]
	 SCS Total Energy          =    -196.1919726673094146 [Eh]
	-----------------------------------------------------------

  Dipole Moment: [D]
     X:     0.2872      Y:     0.2417      Z:     0.1870     Total:     0.4194

*** Psi4 exiting successfully. Buy a developer a beer!
