                               Psi4 1.3.2 release

  ==> Input File <==

--------------------------------------------------------------------------
#psi4
#
memory 32 gb

molecule  {
0 1
  C        0.8191550    -0.4245250     0.5665810
  C       -0.5818120    -0.1153060     0.1025600
  C        1.8983300     0.0792340    -0.3972690
  C       -0.9681520     1.3378740     0.0286790
  C       -1.4389170    -1.0909370    -0.2348790
  H        0.9804000     0.0283030     1.5544360
  H        0.9238870    -1.5076770     0.6953830
  H        1.8814520     1.1684930    -0.4869170
  H        2.8944040    -0.2098860    -0.0492480
  H        1.7478260    -0.3461330    -1.3936640
  H       -2.0210720     1.4533360    -0.2415290
  H       -0.8043560     1.8316700     0.9936370
  H       -0.3683700     1.8762600    -0.7127200
  H       -1.1582580    -2.1388040    -0.1786760
  H       -2.4475370    -0.8736020    -0.5747320
units angstrom
no_reorient  #important for SAPT in psi4, default
symmetry c1  #important for SAPT in psi4, default
}

set PROPERTIES_ORIGIN ["COM"]
properties('MP2/aug-cc-pvtz', properties = ['dipole'])
--------------------------------------------------------------------------

    Molecular point group: c1
  Charge       = 0
  Multiplicity = 1
  Basis Set: AUG-CC-PVTZ
    Blend: AUG-CC-PVTZ
  Basis Set: (AUG-CC-PVTZ AUX)
    Blend: AUG-CC-PVTZ-JKFIT

    Orbital Energies [Eh]
    ---------------------

    Doubly Occupied:

       1A    -11.237302     2A    -11.224585     3A    -11.219663
       4A    -11.215717     5A    -11.209827     6A     -1.096949
       7A     -0.997477     8A     -0.930321     9A     -0.852696
      10A     -0.714961    11A     -0.626845    12A     -0.624950
      13A     -0.583697    14A     -0.564426    15A     -0.540931
      16A     -0.514804    17A     -0.509703    18A     -0.480580
      19A     -0.464560    20A     -0.344422

  @DF-RHF Final Energy:  -195.21493279800146

   => Energetics <=

    Nuclear Repulsion Energy =            175.8045683653823517
    One-Electron Energy =                -610.1301712239289827
    Two-Electron Energy =                 239.1106700605451749
    Total Energy =                       -195.2149327980014561
  Basis Set: (AUG-CC-PVTZ AUX)
    Blend: AUG-CC-PVTZ-RI
    Molecular point group: c1

    Geometry (in Angstrom), charge = 0, multiplicity = 1:

       Center              X                  Y                   Z               Mass
    ------------   -----------------  -----------------  -----------------  -----------------
         C            0.842209712381    -0.406374880443     0.561002226261    12.000000000000
         C           -0.558757287619    -0.097155880443     0.096981226261    12.000000000000
         C            1.921384712381     0.097384119557    -0.402847773739    12.000000000000
         C           -0.945097287619     1.356024119557     0.023100226261    12.000000000000
         C           -1.415862287619    -1.072786880443    -0.240457773739    12.000000000000
         H            1.003454712381     0.046453119557     1.548857226261     1.007825032230
         H            0.946941712381    -1.489526880443     0.689804226261     1.007825032230
         H            1.904506712381     1.186643119557    -0.492495773739     1.007825032230
         H            2.917458712381    -0.191735880443    -0.054826773739     1.007825032230
         H            1.770880712381    -0.327982880443    -1.399242773739     1.007825032230
         H           -1.998017287619     1.471486119557    -0.247107773739     1.007825032230
         H           -0.781301287619     1.849820119557     0.988058226261     1.007825032230
         H           -0.345315287619     1.894410119557    -0.718298773739     1.007825032230
         H           -1.135203287619    -2.120653880443    -0.184254773739     1.007825032230
         H           -2.424482287619    -0.855451880443    -0.580310773739     1.007825032230

  Basis Set: AUG-CC-PVTZ
    Blend: AUG-CC-PVTZ
  Basis Set: (AUG-CC-PVTZ AUX)
    Blend: AUG-CC-PVTZ-JKFIT
	 Reference Energy          =    -195.2149327980014561 [Eh]
	 Singles Energy            =      -0.0000000000000000 [Eh]
	 Same-Spin Energy          =      -0.2061266178844497 [Eh]
	 Opposite-Spin Energy      =      -0.7620645643355610 [Eh]
	 Correlation Energy        =      -0.9681911822200107 [Eh]
	 Total Energy              =    -196.1831239802214668 [Eh]

	 ================> DF-SCS-MP2 Energies <==================
	-----------------------------------------------------------
	 SCS Same-Spin Scale       =       0.3333333333333333 [-]
	 SCS Opposite-Spin Scale   =       1.2000000000000000 [-]
	 SCS Same-Spin Energy      =      -0.0687088726281499 [Eh]
	 SCS Opposite-Spin Energy  =      -0.9144774772026731 [Eh]
	 SCS Correlation Energy    =      -0.9831863498308231 [Eh]
	 SCS Total Energy          =    -196.1981191478322728 [Eh]
	-----------------------------------------------------------

  Dipole Moment: [D]
     X:     0.3438      Y:     0.3288      Z:     0.1086     Total:     0.4880

*** Psi4 exiting successfully. Buy a developer a beer!
