                               Psi4 1.3.2 release

  ==> Input File <==

--------------------------------------------------------------------------
#psi4
#
memory 32 gb

molecule  {
0 1
  C        0.8191550    -0.4245250     0.5665810
  C       -0.5818120    -0.1153060     0.1025600
  C        1.8983300     0.0792340    -0.3972690
  C       -1.0627139     1.3072037    -0.0053692
  C       -1.4389170    -1.0909370    -0.2348790
  H        0.9804000     0.0283030     1.5544360
  H        0.9238870    -1.5076770     0.6953830
  H        1.8814520     1.1684930    -0.4869170
  H        2.8944040    -0.2098860    -0.0492480
  H        1.7478260    -0.3461330    -1.3936640
  H       -2.0210720     1.4533360    -0.2415290
  H       -0.8043560     1.8316700     0.9936370
  H       -0.3683700     1.8762600    -0.7127200
  H       -1.1582580    -2.1388040    -0.1786760
  H       -2.4475370    -0.8736020    -0.5747320
units angstrom
no_reorient  #important for SAPT in psi4, default
symmetry c1  #important for SAPT in psi4, default
}

set PROPERTIES_ORIGIN ["COM"]
properties('MP2/aug-cc-pvtz', properties = ['dipole'])
--------------------------------------------------------------------------

    Molecular point group: c1
  Charge       = 0
  Multiplicity = 1
  Basis Set: AUG-CC-PVTZ
    Blend: AUG-CC-PVTZ
  Basis Set: (AUG-CC-PVTZ AUX)
    Blend: AUG-CC-PVTZ-JKFIT

    Orbital Energies [Eh]
    ---------------------

    Doubly Occupied:

       1A    -11.237867     2A    -11.227493     3A    -11.221940
       4A    -11.216524     5A    -11.207741     6A     -1.097482
       7A     -1.000789     8A     -0.928130     9A     -0.854015
      10A     -0.718470    11A     -0.633801    12A     -0.624805
      13A     -0.579298    14A     -0.565544    15A     -0.543342
      16A     -0.513606    17A     -0.501725    18A     -0.480058
      19A     -0.470772    20A     -0.340974

  @DF-RHF Final Energy:  -195.20199844614649

   => Energetics <=

    Nuclear Repulsion Energy =            175.6337816302309704
    One-Electron Energy =                -609.7428136917391157
    Two-Electron Energy =                 238.9070336153616836
    Total Energy =                       -195.2019984461464901
  Basis Set: (AUG-CC-PVTZ AUX)
    Blend: AUG-CC-PVTZ-RI
    Molecular point group: c1

    Geometry (in Angstrom), charge = 0, multiplicity = 1:

       Center              X                  Y                   Z               Mass
    ------------   -----------------  -----------------  -----------------  -----------------
         C            0.858402222821    -0.401122985621     0.566832543059    12.000000000000
         C           -0.542564777179    -0.091903985621     0.102811543059    12.000000000000
         C            1.937577222821     0.102636014379    -0.397017456941    12.000000000000
         C           -1.023466677179     1.330605714379    -0.005117656941    12.000000000000
         C           -1.399669777179    -1.067534985621    -0.234627456941    12.000000000000
         H            1.019647222821     0.051705014379     1.554687543059     1.007825032230
         H            0.963134222821    -1.484274985621     0.695634543059     1.007825032230
         H            1.920699222821     1.191895014379    -0.486665456941     1.007825032230
         H            2.933651222821    -0.186483985621    -0.048996456941     1.007825032230
         H            1.787073222821    -0.322730985621    -1.393412456941     1.007825032230
         H           -1.981824777179     1.476738014379    -0.241277456941     1.007825032230
         H           -0.765108777179     1.855072014379     0.993888543059     1.007825032230
         H           -0.329122777179     1.899662014379    -0.712468456941     1.007825032230
         H           -1.119010777179    -2.115401985621    -0.178424456941     1.007825032230
         H           -2.408289777179    -0.850199985621    -0.574480456941     1.007825032230

  Basis Set: AUG-CC-PVTZ
    Blend: AUG-CC-PVTZ
  Basis Set: (AUG-CC-PVTZ AUX)
    Blend: AUG-CC-PVTZ-JKFIT
	 Reference Energy          =    -195.2019984461464901 [Eh]
	 Singles Energy            =      -0.0000000000000000 [Eh]
	 Same-Spin Energy          =      -0.2062472327879248 [Eh]
	 Opposite-Spin Energy      =      -0.7623743387290562 [Eh]
	 Correlation Energy        =      -0.9686215715169810 [Eh]
	 Total Energy              =    -196.1706200176634809 [Eh]

	 ================> DF-SCS-MP2 Energies <==================
	-----------------------------------------------------------
	 SCS Same-Spin Scale       =       0.3333333333333333 [-]
	 SCS Opposite-Spin Scale   =       1.2000000000000000 [-]
	 SCS Same-Spin Energy      =      -0.0687490775959749 [Eh]
	 SCS Opposite-Spin Energy  =      -0.9148492064748674 [Eh]
	 SCS Correlation Energy    =      -0.9835982840708424 [Eh]
	 SCS Total Energy          =    -196.1855967302173269 [Eh]
	-----------------------------------------------------------

  Dipole Moment: [D]
     X:     0.3597      Y:     0.3158      Z:     0.1009     Total:     0.4892

*** Psi4 exiting successfully. Buy a developer a beer!
