                               Psi4 1.3.2 release

  ==> Input File <==

--------------------------------------------------------------------------
#psi4
#
memory 32 gb

molecule  {
0 1
  C        0.8191550    -0.4245250     0.5665810
  C       -0.6322282    -0.1871999     0.2337086
  C        1.8983300     0.0792340    -0.3972690
  C       -0.9681520     1.3378740     0.0286790
  C       -1.4389170    -1.0909370    -0.2348790
  H        0.9804000     0.0283030     1.5544360
  H        0.9238870    -1.5076770     0.6953830
  H        1.8814520     1.1684930    -0.4869170
  H        2.8944040    -0.2098860    -0.0492480
  H        1.7478260    -0.3461330    -1.3936640
  H       -2.0210720     1.4533360    -0.2415290
  H       -0.8043560     1.8316700     0.9936370
  H       -0.3683700     1.8762600    -0.7127200
  H       -1.1582580    -2.1388040    -0.1786760
  H       -2.4475370    -0.8736020    -0.5747320
units angstrom
no_reorient  #important for SAPT in psi4, default
symmetry c1  #important for SAPT in psi4, default
}

set PROPERTIES_ORIGIN ["COM"]
properties('MP2/aug-cc-pvtz', properties = ['dipole'])
--------------------------------------------------------------------------

    Molecular point group: c1
  Charge       = 0
  Multiplicity = 1
  Basis Set: AUG-CC-PVTZ
    Blend: AUG-CC-PVTZ
  Basis Set: (AUG-CC-PVTZ AUX)
    Blend: AUG-CC-PVTZ-JKFIT

    Orbital Energies [Eh]
    ---------------------

    Doubly Occupied:

       1A    -11.234045     2A    -11.224392     3A    -11.219924
       4A    -11.218364     5A    -11.207803     6A     -1.095793
       7A     -0.998411     8A     -0.927876     9A     -0.857472
      10A     -0.710354    11A     -0.628101    12A     -0.620918
      13A     -0.583283    14A     -0.565824    15A     -0.533859
      16A     -0.515643    17A     -0.511887    18A     -0.482972
      19A     -0.445340    20A     -0.358066

  @DF-RHF Final Energy:  -195.20329518556559

   => Energetics <=

    Nuclear Repulsion Energy =            175.3780123845480716
    One-Electron Energy =                -609.2819623498504598
    Two-Electron Energy =                 238.7006547797367944
    Total Energy =                       -195.2032951855655938
  Basis Set: (AUG-CC-PVTZ AUX)
    Blend: AUG-CC-PVTZ-RI
    Molecular point group: c1

    Geometry (in Angstrom), charge = 0, multiplicity = 1:

       Center              X                  Y                   Z               Mass
    ------------   -----------------  -----------------  -----------------  -----------------
         C            0.850842838882    -0.394063973763     0.538544713513    12.000000000000
         C           -0.600540361118    -0.156738873763     0.205672313513    12.000000000000
         C            1.930017838882     0.109695026237    -0.425305286487    12.000000000000
         C           -0.936464161118     1.368335026237     0.000642713513    12.000000000000
         C           -1.407229161118    -1.060475973763    -0.262915286487    12.000000000000
         H            1.012087838882     0.058764026237     1.526399713513     1.007825032230
         H            0.955574838882    -1.477215973763     0.667346713513     1.007825032230
         H            1.913139838882     1.198954026237    -0.514953286487     1.007825032230
         H            2.926091838882    -0.179424973763    -0.077284286487     1.007825032230
         H            1.779513838882    -0.315671973763    -1.421700286487     1.007825032230
         H           -1.989384161118     1.483797026237    -0.269565286487     1.007825032230
         H           -0.772668161118     1.862131026237     0.965600713513     1.007825032230
         H           -0.336682161118     1.906721026237    -0.740756286487     1.007825032230
         H           -1.126570161118    -2.108342973763    -0.206712286487     1.007825032230
         H           -2.415849161118    -0.843140973763    -0.602768286487     1.007825032230

  Basis Set: AUG-CC-PVTZ
    Blend: AUG-CC-PVTZ
  Basis Set: (AUG-CC-PVTZ AUX)
    Blend: AUG-CC-PVTZ-JKFIT
	 Reference Energy          =    -195.2032951855655938 [Eh]
	 Singles Energy            =      -0.0000000000000000 [Eh]
	 Same-Spin Energy          =      -0.2058229411424966 [Eh]
	 Opposite-Spin Energy      =      -0.7620707190897161 [Eh]
	 Correlation Energy        =      -0.9678936602322127 [Eh]
	 Total Energy              =    -196.1711888457978148 [Eh]

	 ================> DF-SCS-MP2 Energies <==================
	-----------------------------------------------------------
	 SCS Same-Spin Scale       =       0.3333333333333333 [-]
	 SCS Opposite-Spin Scale   =       1.2000000000000000 [-]
	 SCS Same-Spin Energy      =      -0.0686076470474989 [Eh]
	 SCS Opposite-Spin Energy  =      -0.9144848629076593 [Eh]
	 SCS Correlation Energy    =      -0.9830925099551582 [Eh]
	 SCS Total Energy          =    -196.1863876955207502 [Eh]
	-----------------------------------------------------------

  Dipole Moment: [D]
     X:     0.3737      Y:     0.2215      Z:    -0.0664     Total:     0.4395

*** Psi4 exiting successfully. Buy a developer a beer!
