                               Psi4 1.3.2 release

  ==> Input File <==

--------------------------------------------------------------------------
#psi4
#
memory 32 gb

molecule  {
0 1
  C        0.8402470    -0.2686793     0.5799124
  C       -0.5818120    -0.1153060     0.1025600
  C        1.8983300     0.0792340    -0.3972690
  C       -0.9681520     1.3378740     0.0286790
  C       -1.4389170    -1.0909370    -0.2348790
  H        0.9804000     0.0283030     1.5544360
  H        0.9238870    -1.5076770     0.6953830
  H        1.8814520     1.1684930    -0.4869170
  H        2.8944040    -0.2098860    -0.0492480
  H        1.7478260    -0.3461330    -1.3936640
  H       -2.0210720     1.4533360    -0.2415290
  H       -0.8043560     1.8316700     0.9936370
  H       -0.3683700     1.8762600    -0.7127200
  H       -1.1582580    -2.1388040    -0.1786760
  H       -2.4475370    -0.8736020    -0.5747320
units angstrom
no_reorient  #important for SAPT in psi4, default
symmetry c1  #important for SAPT in psi4, default
}

set PROPERTIES_ORIGIN ["COM"]
properties('MP2/aug-cc-pvtz', properties = ['dipole'])
--------------------------------------------------------------------------

    Molecular point group: c1
  Charge       = 0
  Multiplicity = 1
  Basis Set: AUG-CC-PVTZ
    Blend: AUG-CC-PVTZ
  Basis Set: (AUG-CC-PVTZ AUX)
    Blend: AUG-CC-PVTZ-JKFIT

    Orbital Energies [Eh]
    ---------------------

    Doubly Occupied:

       1A    -11.239541     2A    -11.230571     3A    -11.217154
       4A    -11.216089     5A    -11.213656     6A     -1.100911
       7A     -1.006368     8A     -0.929417     9A     -0.854604
      10A     -0.717431    11A     -0.632951    12A     -0.618065
      13A     -0.589626    14A     -0.569177    15A     -0.543789
      16A     -0.532406    17A     -0.513828    18A     -0.476217
      19A     -0.427232    20A     -0.348474

  @DF-RHF Final Energy:  -195.18945440911074

   => Energetics <=

    Nuclear Repulsion Energy =            176.2638578199803874
    One-Electron Energy =                -610.9516143577397997
    Two-Electron Energy =                 239.4983021286486746
    Total Energy =                       -195.1894544091107377
  Basis Set: (AUG-CC-PVTZ AUX)
    Blend: AUG-CC-PVTZ-RI
    Molecular point group: c1

    Geometry (in Angstrom), charge = 0, multiplicity = 1:

       Center              X                  Y                   Z               Mass
    ------------   -----------------  -----------------  -----------------  -----------------
         C            0.859689978371    -0.277215754257     0.572050795294    12.000000000000
         C           -0.562369021629    -0.123842454257     0.094698395294    12.000000000000
         C            1.917772978371     0.070697545743    -0.405130604706    12.000000000000
         C           -0.948709021629     1.329337545743     0.020817395294    12.000000000000
         C           -1.419474021629    -1.099473454257    -0.242740604706    12.000000000000
         H            0.999842978371     0.019766545743     1.546574395294     1.007825032230
         H            0.943329978371    -1.516213454257     0.687521395294     1.007825032230
         H            1.900894978371     1.159956545743    -0.494778604706     1.007825032230
         H            2.913846978371    -0.218422454257    -0.057109604706     1.007825032230
         H            1.767268978371    -0.354669454257    -1.401525604706     1.007825032230
         H           -2.001629021629     1.444799545743    -0.249390604706     1.007825032230
         H           -0.784913021629     1.823133545743     0.985775395294     1.007825032230
         H           -0.348927021629     1.867723545743    -0.720581604706     1.007825032230
         H           -1.138815021629    -2.147340454257    -0.186537604706     1.007825032230
         H           -2.428094021629    -0.882138454257    -0.582593604706     1.007825032230

  Basis Set: AUG-CC-PVTZ
    Blend: AUG-CC-PVTZ
  Basis Set: (AUG-CC-PVTZ AUX)
    Blend: AUG-CC-PVTZ-JKFIT
	 Reference Energy          =    -195.1894544091107377 [Eh]
	 Singles Energy            =      -0.0000000000000000 [Eh]
	 Same-Spin Energy          =      -0.2070153221779907 [Eh]
	 Opposite-Spin Energy      =      -0.7641952541926840 [Eh]
	 Correlation Energy        =      -0.9712105763706746 [Eh]
	 Total Energy              =    -196.1606649854814179 [Eh]

	 ================> DF-SCS-MP2 Energies <==================
	-----------------------------------------------------------
	 SCS Same-Spin Scale       =       0.3333333333333333 [-]
	 SCS Opposite-Spin Scale   =       1.2000000000000000 [-]
	 SCS Same-Spin Energy      =      -0.0690051073926636 [Eh]
	 SCS Opposite-Spin Energy  =      -0.9170343050312207 [Eh]
	 SCS Correlation Energy    =      -0.9860394124238843 [Eh]
	 SCS Total Energy          =    -196.1754938215346158 [Eh]
	-----------------------------------------------------------

  Dipole Moment: [D]
     X:     0.3324      Y:     0.4017      Z:     0.0807     Total:     0.5277

*** Psi4 exiting successfully. Buy a developer a beer!
