                               Psi4 1.3.2 release

  ==> Input File <==

--------------------------------------------------------------------------
#psi4
#
memory 32 gb

molecule  {
0 1
  C        0.8191550    -0.4245250     0.5665810
  C       -0.5818120    -0.1153060     0.1025600
  C        1.8983300     0.0792340    -0.3972690
  C       -0.9938144     1.4344005     0.0237715
  C       -1.4389170    -1.0909370    -0.2348790
  H        0.9804000     0.0283030     1.5544360
  H        0.9238870    -1.5076770     0.6953830
  H        1.8814520     1.1684930    -0.4869170
  H        2.8944040    -0.2098860    -0.0492480
  H        1.7478260    -0.3461330    -1.3936640
  H       -2.0210720     1.4533360    -0.2415290
  H       -0.8043560     1.8316700     0.9936370
  H       -0.3683700     1.8762600    -0.7127200
  H       -1.1582580    -2.1388040    -0.1786760
  H       -2.4475370    -0.8736020    -0.5747320
units angstrom
no_reorient  #important for SAPT in psi4, default
symmetry c1  #important for SAPT in psi4, default
}

set PROPERTIES_ORIGIN ["COM"]
properties('MP2/aug-cc-pvtz', properties = ['dipole'])
--------------------------------------------------------------------------

    Molecular point group: c1
  Charge       = 0
  Multiplicity = 1
  Basis Set: AUG-CC-PVTZ
    Blend: AUG-CC-PVTZ
  Basis Set: (AUG-CC-PVTZ AUX)
    Blend: AUG-CC-PVTZ-JKFIT

    Orbital Energies [Eh]
    ---------------------

    Doubly Occupied:

       1A    -11.241355     2A    -11.224790     3A    -11.217468
       4A    -11.215867     5A    -11.209341     6A     -1.088349
       7A     -0.994182     8A     -0.933847     9A     -0.852160
      10A     -0.710213    11A     -0.625375    12A     -0.622304
      13A     -0.587695    14A     -0.568856    15A     -0.549429
      16A     -0.515769    17A     -0.512319    18A     -0.479931
      19A     -0.449832    20A     -0.346100

  @DF-RHF Final Energy:  -195.20781503817682

   => Energetics <=

    Nuclear Repulsion Energy =            174.5164694915027042
    One-Electron Energy =                -607.5582071549871443
    Two-Electron Energy =                 237.8339226253076504
    Total Energy =                       -195.2078150381768182
  Basis Set: (AUG-CC-PVTZ AUX)
    Blend: AUG-CC-PVTZ-RI
    Molecular point group: c1

    Geometry (in Angstrom), charge = 0, multiplicity = 1:

       Center              X                  Y                   Z               Mass
    ------------   -----------------  -----------------  -----------------  -----------------
         C            0.846604068669    -0.422903803392     0.561842572585    12.000000000000
         C           -0.554362931331    -0.113684803392     0.097821572585    12.000000000000
         C            1.925779068669     0.080855196608    -0.402007427415    12.000000000000
         C           -0.966365331331     1.436021696608     0.019033072585    12.000000000000
         C           -1.411467931331    -1.089315803392    -0.239617427415    12.000000000000
         H            1.007849068669     0.029924196608     1.549697572585     1.007825032230
         H            0.951336068669    -1.506055803392     0.690644572585     1.007825032230
         H            1.908901068669     1.170114196608    -0.491655427415     1.007825032230
         H            2.921853068669    -0.208264803392    -0.053986427415     1.007825032230
         H            1.775275068669    -0.344511803392    -1.398402427415     1.007825032230
         H           -1.993622931331     1.454957196608    -0.246267427415     1.007825032230
         H           -0.776906931331     1.833291196608     0.988898572585     1.007825032230
         H           -0.340920931331     1.877881196608    -0.717458427415     1.007825032230
         H           -1.130808931331    -2.137182803392    -0.183414427415     1.007825032230
         H           -2.420087931331    -0.871980803392    -0.579470427415     1.007825032230

  Basis Set: AUG-CC-PVTZ
    Blend: AUG-CC-PVTZ
  Basis Set: (AUG-CC-PVTZ AUX)
    Blend: AUG-CC-PVTZ-JKFIT
	 Reference Energy          =    -195.2078150381768182 [Eh]
	 Singles Energy            =      -0.0000000000000000 [Eh]
	 Same-Spin Energy          =      -0.2056373256762102 [Eh]
	 Opposite-Spin Energy      =      -0.7619510844383144 [Eh]
	 Correlation Energy        =      -0.9675884101145246 [Eh]
	 Total Energy              =    -196.1754034482913482 [Eh]

	 ================> DF-SCS-MP2 Energies <==================
	-----------------------------------------------------------
	 SCS Same-Spin Scale       =       0.3333333333333333 [-]
	 SCS Opposite-Spin Scale   =       1.2000000000000000 [-]
	 SCS Same-Spin Energy      =      -0.0685457752254034 [Eh]
	 SCS Opposite-Spin Energy  =      -0.9143413013259772 [Eh]
	 SCS Correlation Energy    =      -0.9828870765513806 [Eh]
	 SCS Total Energy          =    -196.1907021147281966 [Eh]
	-----------------------------------------------------------

  Dipole Moment: [D]
     X:     0.3604      Y:     0.2898      Z:     0.1158     Total:     0.4768

*** Psi4 exiting successfully. Buy a developer a beer!
