                               Psi4 1.3.2 release

  ==> Input File <==

--------------------------------------------------------------------------
#psi4
#
memory 32 gb

molecule  {
0 1
  C        0.8191550    -0.4245250     0.5665810
  C       -0.5960497    -0.0626522     0.1925701
  C        1.8983300     0.0792340    -0.3972690
  C       -0.9681520     1.3378740     0.0286790
  C       -1.4389170    -1.0909370    -0.2348790
  H        0.9804000     0.0283030     1.5544360
  H        0.9238870    -1.5076770     0.6953830
  H        1.8814520     1.1684930    -0.4869170
  H        2.8944040    -0.2098860    -0.0492480
  H        1.7478260    -0.3461330    -1.3936640
  H       -2.0210720     1.4533360    -0.2415290
  H       -0.8043560     1.8316700     0.9936370
  H       -0.3683700     1.8762600    -0.7127200
  H       -1.1582580    -2.1388040    -0.1786760
  H       -2.4475370    -0.8736020    -0.5747320
units angstrom
no_reorient  #important for SAPT in psi4, default
symmetry c1  #important for SAPT in psi4, default
}

set PROPERTIES_ORIGIN ["COM"]
properties('MP2/aug-cc-pvtz', properties = ['dipole'])
--------------------------------------------------------------------------

    Molecular point group: c1
  Charge       = 0
  Multiplicity = 1
  Basis Set: AUG-CC-PVTZ
    Blend: AUG-CC-PVTZ
  Basis Set: (AUG-CC-PVTZ AUX)
    Blend: AUG-CC-PVTZ-JKFIT

    Orbital Energies [Eh]
    ---------------------

    Doubly Occupied:

       1A    -11.243665     2A    -11.225336     3A    -11.219250
       4A    -11.216966     5A    -11.216502     6A     -1.097613
       7A     -0.998545     8A     -0.927400     9A     -0.853688
      10A     -0.716542    11A     -0.628253    12A     -0.623651
      13A     -0.583494    14A     -0.567693    15A     -0.544190
      16A     -0.516438    17A     -0.507326    18A     -0.483097
      19A     -0.466948    20A     -0.330472

  @DF-RHF Final Energy:  -195.20419793849410

   => Energetics <=

    Nuclear Repulsion Energy =            175.5788180183722886
    One-Electron Energy =                -609.6318933570427134
    Two-Electron Energy =                 238.8488774001762920
    Total Energy =                       -195.2041979384941044
  Basis Set: (AUG-CC-PVTZ AUX)
    Blend: AUG-CC-PVTZ-RI
    Molecular point group: c1

    Geometry (in Angstrom), charge = 0, multiplicity = 1:

       Center              X                  Y                   Z               Mass
    ------------   -----------------  -----------------  -----------------  -----------------
         C            0.844647735579    -0.415391167195     0.545589153089    12.000000000000
         C           -0.570556964421    -0.053518367195     0.171578253089    12.000000000000
         C            1.923822735579     0.088367832805    -0.418260846911    12.000000000000
         C           -0.942659264421     1.347007832805     0.007687153089    12.000000000000
         C           -1.413424264421    -1.081803167195    -0.255870846911    12.000000000000
         H            1.005892735579     0.037436832805     1.533444153089     1.007825032230
         H            0.949379735579    -1.498543167195     0.674391153089     1.007825032230
         H            1.906944735579     1.177626832805    -0.507908846911     1.007825032230
         H            2.919896735579    -0.200752167195    -0.070239846911     1.007825032230
         H            1.773318735579    -0.336999167195    -1.414655846911     1.007825032230
         H           -1.995579264421     1.462469832805    -0.262520846911     1.007825032230
         H           -0.778863264421     1.840803832805     0.972645153089     1.007825032230
         H           -0.342877264421     1.885393832805    -0.733711846911     1.007825032230
         H           -1.132765264421    -2.129670167195    -0.199667846911     1.007825032230
         H           -2.422044264421    -0.864468167195    -0.595723846911     1.007825032230

  Basis Set: AUG-CC-PVTZ
    Blend: AUG-CC-PVTZ
  Basis Set: (AUG-CC-PVTZ AUX)
    Blend: AUG-CC-PVTZ-JKFIT
	 Reference Energy          =    -195.2041979384941044 [Eh]
	 Singles Energy            =      -0.0000000000000000 [Eh]
	 Same-Spin Energy          =      -0.2072314401683427 [Eh]
	 Opposite-Spin Energy      =      -0.7642242999765551 [Eh]
	 Correlation Energy        =      -0.9714557401448978 [Eh]
	 Total Energy              =    -196.1756536786390086 [Eh]

	 ================> DF-SCS-MP2 Energies <==================
	-----------------------------------------------------------
	 SCS Same-Spin Scale       =       0.3333333333333333 [-]
	 SCS Opposite-Spin Scale   =       1.2000000000000000 [-]
	 SCS Same-Spin Energy      =      -0.0690771467227809 [Eh]
	 SCS Opposite-Spin Energy  =      -0.9170691599718660 [Eh]
	 SCS Correlation Energy    =      -0.9861463066946469 [Eh]
	 SCS Total Energy          =    -196.1903442451887543 [Eh]
	-----------------------------------------------------------

  Dipole Moment: [D]
     X:     0.3877      Y:     0.3868      Z:     0.0189     Total:     0.5480

*** Psi4 exiting successfully. Buy a developer a beer!
