                               Psi4 1.3.2 release

  ==> Input File <==

--------------------------------------------------------------------------
#psi4
#
memory 32 gb

molecule  {
0 1
  C        0.8191550    -0.4245250     0.5665810
  C       -0.5718996    -0.1036323     0.0811581
  C        1.8983300     0.0792340    -0.3972690
  C       -0.9681520     1.3378740     0.0286790
  C       -1.4389170    -1.0909370    -0.2348790
  H        0.9804000     0.0283030     1.5544360
  H        0.9238870    -1.5076770     0.6953830
  H        1.8814520     1.1684930    -0.4869170
  H        2.8944040    -0.2098860    -0.0492480
  H        1.7478260    -0.3461330    -1.3936640
  H       -2.0210720     1.4533360    -0.2415290
  H       -0.8043560     1.8316700     0.9936370
  H       -0.3683700     1.8762600    -0.7127200
  H       -1.1582580    -2.1388040    -0.1786760
  H       -2.4475370    -0.8736020    -0.5747320
units angstrom
no_reorient  #important for SAPT in psi4, default
symmetry c1  #important for SAPT in psi4, default
}

set PROPERTIES_ORIGIN ["COM"]
properties('MP2/aug-cc-pvtz', properties = ['dipole'])
--------------------------------------------------------------------------

    Molecular point group: c1
  Charge       = 0
  Multiplicity = 1
  Basis Set: AUG-CC-PVTZ
    Blend: AUG-CC-PVTZ
  Basis Set: (AUG-CC-PVTZ AUX)
    Blend: AUG-CC-PVTZ-JKFIT

    Orbital Energies [Eh]
    ---------------------

    Doubly Occupied:

       1A    -11.238342     2A    -11.224732     3A    -11.219627
       4A    -11.215307     5A    -11.210867     6A     -1.097185
       7A     -0.997482     8A     -0.930026     9A     -0.851912
      10A     -0.715928    11A     -0.626741    12A     -0.625356
      13A     -0.583920    14A     -0.563830    15A     -0.542345
      16A     -0.514930    17A     -0.509167    18A     -0.480178
      19A     -0.466282    20A     -0.341754

  @DF-RHF Final Energy:  -195.21404438618023

   => Energetics <=

    Nuclear Repulsion Energy =            175.8415584290173967
    One-Electron Energy =                -610.1993856152807894
    Two-Electron Energy =                 239.1437828000831871
    Total Energy =                       -195.2140443861802339
  Basis Set: (AUG-CC-PVTZ AUX)
    Blend: AUG-CC-PVTZ-RI
    Molecular point group: c1

    Geometry (in Angstrom), charge = 0, multiplicity = 1:

       Center              X                  Y                   Z               Mass
    ------------   -----------------  -----------------  -----------------  -----------------
         C            0.840512341235    -0.408373851584     0.564667026664    12.000000000000
         C           -0.550542258765    -0.087481151584     0.079244126664    12.000000000000
         C            1.919687341235     0.095385148416    -0.399182973336    12.000000000000
         C           -0.946794658765     1.354025148416     0.026765026664    12.000000000000
         C           -1.417559658765    -1.074785851584    -0.236792973336    12.000000000000
         H            1.001757341235     0.044454148416     1.552522026664     1.007825032230
         H            0.945244341235    -1.491525851584     0.693469026664     1.007825032230
         H            1.902809341235     1.184644148416    -0.488830973336     1.007825032230
         H            2.915761341235    -0.193734851584    -0.051161973336     1.007825032230
         H            1.769183341235    -0.329981851584    -1.395577973336     1.007825032230
         H           -1.999714658765     1.469487148416    -0.243442973336     1.007825032230
         H           -0.782998658765     1.847821148416     0.991723026664     1.007825032230
         H           -0.347012658765     1.892411148416    -0.714633973336     1.007825032230
         H           -1.136900658765    -2.122652851584    -0.180589973336     1.007825032230
         H           -2.426179658765    -0.857450851584    -0.576645973336     1.007825032230

  Basis Set: AUG-CC-PVTZ
    Blend: AUG-CC-PVTZ
  Basis Set: (AUG-CC-PVTZ AUX)
    Blend: AUG-CC-PVTZ-JKFIT
	 Reference Energy          =    -195.2140443861802339 [Eh]
	 Singles Energy            =      -0.0000000000000000 [Eh]
	 Same-Spin Energy          =      -0.2063058443887947 [Eh]
	 Opposite-Spin Energy      =      -0.7624011856655653 [Eh]
	 Correlation Energy        =      -0.9687070300543599 [Eh]
	 Total Energy              =    -196.1827514162345949 [Eh]

	 ================> DF-SCS-MP2 Energies <==================
	-----------------------------------------------------------
	 SCS Same-Spin Scale       =       0.3333333333333333 [-]
	 SCS Opposite-Spin Scale   =       1.2000000000000000 [-]
	 SCS Same-Spin Energy      =      -0.0687686147962649 [Eh]
	 SCS Opposite-Spin Energy  =      -0.9148814227986782 [Eh]
	 SCS Correlation Energy    =      -0.9836500375949431 [Eh]
	 SCS Total Energy          =    -196.1976944237751752 [Eh]
	-----------------------------------------------------------

  Dipole Moment: [D]
     X:     0.3350      Y:     0.3395      Z:     0.1370     Total:     0.4962

*** Psi4 exiting successfully. Buy a developer a beer!
