                               Psi4 1.3.2 release

  ==> Input File <==

--------------------------------------------------------------------------
#psi4
#
memory 32 gb

molecule  {
0 1
  C        0.8191550    -0.4245250     0.5665810
  C       -0.5476887    -0.1970292    -0.0280823
  C        1.8983300     0.0792340    -0.3972690
  C       -0.9681520     1.3378740     0.0286790
  C       -1.4389170    -1.0909370    -0.2348790
  H        0.9804000     0.0283030     1.5544360
  H        0.9238870    -1.5076770     0.6953830
  H        1.8814520     1.1684930    -0.4869170
  H        2.8944040    -0.2098860    -0.0492480
  H        1.7478260    -0.3461330    -1.3936640
  H       -2.0210720     1.4533360    -0.2415290
  H       -0.8043560     1.8316700     0.9936370
  H       -0.3683700     1.8762600    -0.7127200
  H       -1.1582580    -2.1388040    -0.1786760
  H       -2.4475370    -0.8736020    -0.5747320
units angstrom
no_reorient  #important for SAPT in psi4, default
symmetry c1  #important for SAPT in psi4, default
}

set PROPERTIES_ORIGIN ["COM"]
properties('MP2/aug-cc-pvtz', properties = ['dipole'])
--------------------------------------------------------------------------

    Molecular point group: c1
  Charge       = 0
  Multiplicity = 1
  Basis Set: AUG-CC-PVTZ
    Blend: AUG-CC-PVTZ
  Basis Set: (AUG-CC-PVTZ AUX)
    Blend: AUG-CC-PVTZ-JKFIT

    Orbital Energies [Eh]
    ---------------------

    Doubly Occupied:

       1A    -11.231484     2A    -11.224825     3A    -11.220159
       4A    -11.213776     5A    -11.204481     6A     -1.098267
       7A     -0.999752     8A     -0.927549     9A     -0.851240
      10A     -0.713685    11A     -0.629542    12A     -0.622594
      13A     -0.588114    14A     -0.557296    15A     -0.534831
      16A     -0.513565    17A     -0.510687    18A     -0.486828
      19A     -0.439140    20A     -0.363231

  @DF-RHF Final Energy:  -195.20128340076599

   => Energetics <=

    Nuclear Repulsion Energy =            175.9271807822408960
    One-Electron Energy =                -610.3948374522459517
    Two-Electron Energy =                 239.2663732692390681
    Total Energy =                       -195.2012834007659876
  Basis Set: (AUG-CC-PVTZ AUX)
    Blend: AUG-CC-PVTZ-RI
    Molecular point group: c1

    Geometry (in Angstrom), charge = 0, multiplicity = 1:

       Center              X                  Y                   Z               Mass
    ------------   -----------------  -----------------  -----------------  -----------------
         C            0.836366535673    -0.392380832426     0.583373041640    12.000000000000
         C           -0.530477164327    -0.164885032426    -0.011290258360    12.000000000000
         C            1.915541535673     0.111378167574    -0.380476958360    12.000000000000
         C           -0.950940464327     1.370018167574     0.045471041640    12.000000000000
         C           -1.421705464327    -1.058792832426    -0.218086958360    12.000000000000
         H            0.997611535673     0.060447167574     1.571228041640     1.007825032230
         H            0.941098535673    -1.475532832426     0.712175041640     1.007825032230
         H            1.898663535673     1.200637167574    -0.470124958360     1.007825032230
         H            2.911615535673    -0.177741832426    -0.032455958360     1.007825032230
         H            1.765037535673    -0.313988832426    -1.376871958360     1.007825032230
         H           -2.003860464327     1.485480167574    -0.224736958360     1.007825032230
         H           -0.787144464327     1.863814167574     1.010429041640     1.007825032230
         H           -0.351158464327     1.908404167574    -0.695927958360     1.007825032230
         H           -1.141046464327    -2.106659832426    -0.161883958360     1.007825032230
         H           -2.430325464327    -0.841457832426    -0.557939958360     1.007825032230

  Basis Set: AUG-CC-PVTZ
    Blend: AUG-CC-PVTZ
  Basis Set: (AUG-CC-PVTZ AUX)
    Blend: AUG-CC-PVTZ-JKFIT
	 Reference Energy          =    -195.2012834007659876 [Eh]
	 Singles Energy            =      -0.0000000000000000 [Eh]
	 Same-Spin Energy          =      -0.2057010149564916 [Eh]
	 Opposite-Spin Energy      =      -0.7618901796478688 [Eh]
	 Correlation Energy        =      -0.9675911946043603 [Eh]
	 Total Energy              =    -196.1688745953703403 [Eh]

	 ================> DF-SCS-MP2 Energies <==================
	-----------------------------------------------------------
	 SCS Same-Spin Scale       =       0.3333333333333333 [-]
	 SCS Opposite-Spin Scale   =       1.2000000000000000 [-]
	 SCS Same-Spin Energy      =      -0.0685670049854972 [Eh]
	 SCS Opposite-Spin Energy  =      -0.9142682155774424 [Eh]
	 SCS Correlation Energy    =      -0.9828352205629396 [Eh]
	 SCS Total Energy          =    -196.1841186213289348 [Eh]
	-----------------------------------------------------------

  Dipole Moment: [D]
     X:     0.2559      Y:     0.1894      Z:     0.2224     Total:     0.3883

*** Psi4 exiting successfully. Buy a developer a beer!
