                               Psi4 1.3.2 release

  ==> Input File <==

--------------------------------------------------------------------------
#psi4
#
memory 32 gb

molecule  {
0 1
  C        0.8279060    -0.3728691     0.5715981
  C       -0.5818120    -0.1153060     0.1025600
  C        1.8983300     0.0792340    -0.3972690
  C       -0.9681520     1.3378740     0.0286790
  C       -1.4389170    -1.0909370    -0.2348790
  H        0.9804000     0.0283030     1.5544360
  H        0.9238870    -1.5076770     0.6953830
  H        1.8814520     1.1684930    -0.4869170
  H        2.8944040    -0.2098860    -0.0492480
  H        1.7478260    -0.3461330    -1.3936640
  H       -2.0210720     1.4533360    -0.2415290
  H       -0.8043560     1.8316700     0.9936370
  H       -0.3683700     1.8762600    -0.7127200
  H       -1.1582580    -2.1388040    -0.1786760
  H       -2.4475370    -0.8736020    -0.5747320
units angstrom
no_reorient  #important for SAPT in psi4, default
symmetry c1  #important for SAPT in psi4, default
}

set PROPERTIES_ORIGIN ["COM"]
properties('MP2/aug-cc-pvtz', properties = ['dipole'])
--------------------------------------------------------------------------

    Molecular point group: c1
  Charge       = 0
  Multiplicity = 1
  Basis Set: AUG-CC-PVTZ
    Blend: AUG-CC-PVTZ
  Basis Set: (AUG-CC-PVTZ AUX)
    Blend: AUG-CC-PVTZ-JKFIT

    Orbital Energies [Eh]
    ---------------------

    Doubly Occupied:

       1A    -11.237682     2A    -11.225738     3A    -11.218621
       4A    -11.215408     5A    -11.211000     6A     -1.097917
       7A     -1.000391     8A     -0.929774     9A     -0.852757
      10A     -0.714566    11A     -0.628253    12A     -0.622925
      13A     -0.585459    14A     -0.565676    15A     -0.541352
      16A     -0.518024    17A     -0.513447    18A     -0.477897
      19A     -0.455920    20A     -0.345890

  @DF-RHF Final Energy:  -195.21155201236485

   => Energetics <=

    Nuclear Repulsion Energy =            175.9624569281986624
    One-Electron Energy =                -610.4306242903460316
    Two-Electron Energy =                 239.2566153497825212
    Total Energy =                       -195.2115520123648480
  Basis Set: (AUG-CC-PVTZ AUX)
    Blend: AUG-CC-PVTZ-RI
    Molecular point group: c1

    Geometry (in Angstrom), charge = 0, multiplicity = 1:

       Center              X                  Y                   Z               Mass
    ------------   -----------------  -----------------  -----------------  -----------------
         C            0.849462216064    -0.363564389641     0.565160212346    12.000000000000
         C           -0.560255783936    -0.106001289641     0.096122112346    12.000000000000
         C            1.919886216064     0.088538710359    -0.403706887654    12.000000000000
         C           -0.946595783936     1.347178710359     0.022241112346    12.000000000000
         C           -1.417360783936    -1.081632289641    -0.241316887654    12.000000000000
         H            1.001956216064     0.037607710359     1.547998112346     1.007825032230
         H            0.945443216064    -1.498372289641     0.688945112346     1.007825032230
         H            1.903008216064     1.177797710359    -0.493354887654     1.007825032230
         H            2.915960216064    -0.200581289641    -0.055685887654     1.007825032230
         H            1.769382216064    -0.336828289641    -1.400101887654     1.007825032230
         H           -1.999515783936     1.462640710359    -0.247966887654     1.007825032230
         H           -0.782799783936     1.840974710359     0.987199112346     1.007825032230
         H           -0.346813783936     1.885564710359    -0.719157887654     1.007825032230
         H           -1.136701783936    -2.129499289641    -0.185113887654     1.007825032230
         H           -2.425980783936    -0.864297289641    -0.581169887654     1.007825032230

  Basis Set: AUG-CC-PVTZ
    Blend: AUG-CC-PVTZ
  Basis Set: (AUG-CC-PVTZ AUX)
    Blend: AUG-CC-PVTZ-JKFIT
	 Reference Energy          =    -195.2115520123648480 [Eh]
	 Singles Energy            =      -0.0000000000000000 [Eh]
	 Same-Spin Energy          =      -0.2063123448791255 [Eh]
	 Opposite-Spin Energy      =      -0.7624679998522891 [Eh]
	 Correlation Energy        =      -0.9687803447314146 [Eh]
	 Total Energy              =    -196.1803323570962618 [Eh]

	 ================> DF-SCS-MP2 Energies <==================
	-----------------------------------------------------------
	 SCS Same-Spin Scale       =       0.3333333333333333 [-]
	 SCS Opposite-Spin Scale   =       1.2000000000000000 [-]
	 SCS Same-Spin Energy      =      -0.0687707816263752 [Eh]
	 SCS Opposite-Spin Energy  =      -0.9149615998227468 [Eh]
	 SCS Correlation Energy    =      -0.9837323814491220 [Eh]
	 SCS Total Energy          =    -196.1952843938139779 [Eh]
	-----------------------------------------------------------

  Dipole Moment: [D]
     X:     0.3429      Y:     0.3449      Z:     0.1058     Total:     0.4977

*** Psi4 exiting successfully. Buy a developer a beer!
