                               Psi4 1.3.2 release

  ==> Input File <==

--------------------------------------------------------------------------
#psi4
#
memory 32 gb

molecule  {
0 1
  C        0.7965451    -0.5266441     0.5548577
  C       -0.5818120    -0.1153060     0.1025600
  C        1.8983300     0.0792340    -0.3972690
  C       -0.9681520     1.3378740     0.0286790
  C       -1.4389170    -1.0909370    -0.2348790
  H        0.9804000     0.0283030     1.5544360
  H        0.9238870    -1.5076770     0.6953830
  H        1.8814520     1.1684930    -0.4869170
  H        2.8944040    -0.2098860    -0.0492480
  H        1.7478260    -0.3461330    -1.3936640
  H       -2.0210720     1.4533360    -0.2415290
  H       -0.8043560     1.8316700     0.9936370
  H       -0.3683700     1.8762600    -0.7127200
  H       -1.1582580    -2.1388040    -0.1786760
  H       -2.4475370    -0.8736020    -0.5747320
units angstrom
no_reorient  #important for SAPT in psi4, default
symmetry c1  #important for SAPT in psi4, default
}

set PROPERTIES_ORIGIN ["COM"]
properties('MP2/aug-cc-pvtz', properties = ['dipole'])
--------------------------------------------------------------------------

    Molecular point group: c1
  Charge       = 0
  Multiplicity = 1
  Basis Set: AUG-CC-PVTZ
    Blend: AUG-CC-PVTZ
  Basis Set: (AUG-CC-PVTZ AUX)
    Blend: AUG-CC-PVTZ-JKFIT

    Orbital Energies [Eh]
    ---------------------

    Doubly Occupied:

       1A    -11.237754     2A    -11.224709     3A    -11.222316
       4A    -11.217485     5A    -11.207855     6A     -1.096173
       7A     -0.992327     8A     -0.932044     9A     -0.854808
      10A     -0.720909    11A     -0.632493    12A     -0.620693
      13A     -0.581087    14A     -0.562494    15A     -0.541029
      16A     -0.521983    17A     -0.503348    18A     -0.481856
      19A     -0.464354    20A     -0.340997

  @DF-RHF Final Energy:  -195.20212331703598

   => Energetics <=

    Nuclear Repulsion Energy =            175.4949880679508851
    One-Electron Energy =                -609.4807954351676926
    Two-Electron Energy =                 238.7836840501808240
    Total Energy =                       -195.2021233170359835
  Basis Set: (AUG-CC-PVTZ AUX)
    Blend: AUG-CC-PVTZ-RI
    Molecular point group: c1

    Geometry (in Angstrom), charge = 0, multiplicity = 1:

       Center              X                  Y                   Z               Mass
    ------------   -----------------  -----------------  -----------------  -----------------
         C            0.823471467263    -0.491007396598     0.551286390765    12.000000000000
         C           -0.554885632737    -0.079669296598     0.098988690765    12.000000000000
         C            1.925256367263     0.114870703402    -0.400840309235    12.000000000000
         C           -0.941225632737     1.373510703402     0.025107690765    12.000000000000
         C           -1.411990632737    -1.055300296598    -0.238450309235    12.000000000000
         H            1.007326367263     0.063939703402     1.550864690765     1.007825032230
         H            0.950813367263    -1.472040296598     0.691811690765     1.007825032230
         H            1.908378367263     1.204129703402    -0.490488309235     1.007825032230
         H            2.921330367263    -0.174249296598    -0.052819309235     1.007825032230
         H            1.774752367263    -0.310496296598    -1.397235309235     1.007825032230
         H           -1.994145632737     1.488972703402    -0.245100309235     1.007825032230
         H           -0.777429632737     1.867306703402     0.990065690765     1.007825032230
         H           -0.341443632737     1.911896703402    -0.716291309235     1.007825032230
         H           -1.131331632737    -2.103167296598    -0.182247309235     1.007825032230
         H           -2.420610632737    -0.837965296598    -0.578303309235     1.007825032230

  Basis Set: AUG-CC-PVTZ
    Blend: AUG-CC-PVTZ
  Basis Set: (AUG-CC-PVTZ AUX)
    Blend: AUG-CC-PVTZ-JKFIT
	 Reference Energy          =    -195.2021233170359835 [Eh]
	 Singles Energy            =      -0.0000000000000000 [Eh]
	 Same-Spin Energy          =      -0.2061158524740702 [Eh]
	 Opposite-Spin Energy      =      -0.7623021102822379 [Eh]
	 Correlation Energy        =      -0.9684179627563081 [Eh]
	 Total Energy              =    -196.1705412797923032 [Eh]

	 ================> DF-SCS-MP2 Energies <==================
	-----------------------------------------------------------
	 SCS Same-Spin Scale       =       0.3333333333333333 [-]
	 SCS Opposite-Spin Scale   =       1.2000000000000000 [-]
	 SCS Same-Spin Energy      =      -0.0687052841580234 [Eh]
	 SCS Opposite-Spin Energy  =      -0.9147625323386854 [Eh]
	 SCS Correlation Energy    =      -0.9834678164967088 [Eh]
	 SCS Total Energy          =    -196.1855911335326823 [Eh]
	-----------------------------------------------------------

  Dipole Moment: [D]
     X:     0.3341      Y:     0.3216      Z:     0.0929     Total:     0.4730

*** Psi4 exiting successfully. Buy a developer a beer!
