                               Psi4 1.3.2 release

  ==> Input File <==

--------------------------------------------------------------------------
#psi4
#
memory 32 gb

molecule  {
0 1
  C        0.8191550    -0.4245250     0.5665810
  C       -0.5160465    -0.0468000    -0.0235047
  C        1.8983300     0.0792340    -0.3972690
  C       -0.9681520     1.3378740     0.0286790
  C       -1.4389170    -1.0909370    -0.2348790
  H        0.9804000     0.0283030     1.5544360
  H        0.9238870    -1.5076770     0.6953830
  H        1.8814520     1.1684930    -0.4869170
  H        2.8944040    -0.2098860    -0.0492480
  H        1.7478260    -0.3461330    -1.3936640
  H       -2.0210720     1.4533360    -0.2415290
  H       -0.8043560     1.8316700     0.9936370
  H       -0.3683700     1.8762600    -0.7127200
  H       -1.1582580    -2.1388040    -0.1786760
  H       -2.4475370    -0.8736020    -0.5747320
units angstrom
no_reorient  #important for SAPT in psi4, default
symmetry c1  #important for SAPT in psi4, default
}

set PROPERTIES_ORIGIN ["COM"]
properties('MP2/aug-cc-pvtz', properties = ['dipole'])
--------------------------------------------------------------------------

    Molecular point group: c1
  Charge       = 0
  Multiplicity = 1
  Basis Set: AUG-CC-PVTZ
    Blend: AUG-CC-PVTZ
  Basis Set: (AUG-CC-PVTZ AUX)
    Blend: AUG-CC-PVTZ-JKFIT

    Orbital Energies [Eh]
    ---------------------

    Doubly Occupied:

       1A    -11.245240     2A    -11.225786     3A    -11.219531
       4A    -11.218674     5A    -11.213410     6A     -1.098482
       7A     -0.998207     8A     -0.925629     9A     -0.848093
      10A     -0.721310    11A     -0.627392    12A     -0.625423
      13A     -0.585489    14A     -0.560034    15A     -0.549825
      16A     -0.514127    17A     -0.508605    18A     -0.479449
      19A     -0.466116    20A     -0.327594

  @DF-RHF Final Energy:  -195.19669070951301

   => Energetics <=

    Nuclear Repulsion Energy =            175.8916557089384014
    One-Electron Energy =                -610.2598567528367539
    Two-Electron Energy =                 239.1715103343853457
    Total Energy =                       -195.1966907095130068
  Basis Set: (AUG-CC-PVTZ AUX)
    Blend: AUG-CC-PVTZ-RI
    Molecular point group: c1

    Geometry (in Angstrom), charge = 0, multiplicity = 1:

       Center              X                  Y                   Z               Mass
    ------------   -----------------  -----------------  -----------------  -----------------
         C            0.830948215463    -0.418105652776     0.582589186453    12.000000000000
         C           -0.504253284537    -0.040380652776    -0.007496513547    12.000000000000
         C            1.910123215463     0.085653347224    -0.381260813547    12.000000000000
         C           -0.956358784537     1.344293347224     0.044687186453    12.000000000000
         C           -1.427123784537    -1.084517652776    -0.218870813547    12.000000000000
         H            0.992193215463     0.034722347224     1.570444186453     1.007825032230
         H            0.935680215463    -1.501257652776     0.711391186453     1.007825032230
         H            1.893245215463     1.174912347224    -0.470908813547     1.007825032230
         H            2.906197215463    -0.203466652776    -0.033239813547     1.007825032230
         H            1.759619215463    -0.339713652776    -1.377655813547     1.007825032230
         H           -2.009278784537     1.459755347224    -0.225520813547     1.007825032230
         H           -0.792562784537     1.838089347224     1.009645186453     1.007825032230
         H           -0.356576784537     1.882679347224    -0.696711813547     1.007825032230
         H           -1.146464784537    -2.132384652776    -0.162667813547     1.007825032230
         H           -2.435743784537    -0.867182652776    -0.558723813547     1.007825032230

  Basis Set: AUG-CC-PVTZ
    Blend: AUG-CC-PVTZ
  Basis Set: (AUG-CC-PVTZ AUX)
    Blend: AUG-CC-PVTZ-JKFIT
	 Reference Energy          =    -195.1966907095130068 [Eh]
	 Singles Energy            =      -0.0000000000000000 [Eh]
	 Same-Spin Energy          =      -0.2077545221879858 [Eh]
	 Opposite-Spin Energy      =      -0.7656188171167190 [Eh]
	 Correlation Energy        =      -0.9733733393047048 [Eh]
	 Total Energy              =    -196.1700640488177214 [Eh]

	 ================> DF-SCS-MP2 Energies <==================
	-----------------------------------------------------------
	 SCS Same-Spin Scale       =       0.3333333333333333 [-]
	 SCS Opposite-Spin Scale   =       1.2000000000000000 [-]
	 SCS Same-Spin Energy      =      -0.0692515073959953 [Eh]
	 SCS Opposite-Spin Energy  =      -0.9187425805400627 [Eh]
	 SCS Correlation Energy    =      -0.9879940879360580 [Eh]
	 SCS Total Energy          =    -196.1846847974490515 [Eh]
	-----------------------------------------------------------

  Dipole Moment: [D]
     X:     0.2697      Y:     0.3558      Z:     0.2737     Total:     0.5237

*** Psi4 exiting successfully. Buy a developer a beer!
