                               Psi4 1.3.2 release

  ==> Input File <==

--------------------------------------------------------------------------
#psi4
#
memory 32 gb

molecule  {
0 1
  C        0.8191550    -0.4245250     0.5665810
  C       -0.5897891    -0.0887746     0.1473096
  C        1.8983300     0.0792340    -0.3972690
  C       -0.9681520     1.3378740     0.0286790
  C       -1.4389170    -1.0909370    -0.2348790
  H        0.9804000     0.0283030     1.5544360
  H        0.9238870    -1.5076770     0.6953830
  H        1.8814520     1.1684930    -0.4869170
  H        2.8944040    -0.2098860    -0.0492480
  H        1.7478260    -0.3461330    -1.3936640
  H       -2.0210720     1.4533360    -0.2415290
  H       -0.8043560     1.8316700     0.9936370
  H       -0.3683700     1.8762600    -0.7127200
  H       -1.1582580    -2.1388040    -0.1786760
  H       -2.4475370    -0.8736020    -0.5747320
units angstrom
no_reorient  #important for SAPT in psi4, default
symmetry c1  #important for SAPT in psi4, default
}

set PROPERTIES_ORIGIN ["COM"]
properties('MP2/aug-cc-pvtz', properties = ['dipole'])
--------------------------------------------------------------------------

    Molecular point group: c1
  Charge       = 0
  Multiplicity = 1
  Basis Set: AUG-CC-PVTZ
    Blend: AUG-CC-PVTZ
  Basis Set: (AUG-CC-PVTZ AUX)
    Blend: AUG-CC-PVTZ-JKFIT

    Orbital Energies [Eh]
    ---------------------

    Doubly Occupied:

       1A    -11.240286     2A    -11.224885     3A    -11.219452
       4A    -11.216355     5A    -11.212904     6A     -1.097129
       7A     -0.997759     8A     -0.929310     9A     -0.853195
      10A     -0.715711    11A     -0.627356    12A     -0.624460
      13A     -0.583224    14A     -0.566308    15A     -0.542684
      16A     -0.515409    17A     -0.508762    18A     -0.480280
      19A     -0.468224    20A     -0.337497

  @DF-RHF Final Energy:  -195.21161100082728

   => Energetics <=

    Nuclear Repulsion Energy =            175.7051064793114961
    One-Electron Energy =                -609.9110540115434560
    Two-Electron Energy =                 238.9943365314046844
    Total Energy =                       -195.2116110008272756
  Basis Set: (AUG-CC-PVTZ AUX)
    Blend: AUG-CC-PVTZ-RI
    Molecular point group: c1

    Geometry (in Angstrom), charge = 0, multiplicity = 1:

       Center              X                  Y                   Z               Mass
    ------------   -----------------  -----------------  -----------------  -----------------
         C            0.843575688266    -0.410918041817     0.553339432206    12.000000000000
         C           -0.565368411734    -0.075167641817     0.134068032206    12.000000000000
         C            1.922750688266     0.092840958183    -0.410510567794    12.000000000000
         C           -0.943731311734     1.351480958183     0.015437432206    12.000000000000
         C           -1.414496311734    -1.077330041817    -0.248120567794    12.000000000000
         H            1.004820688266     0.041909958183     1.541194432206     1.007825032230
         H            0.948307688266    -1.494070041817     0.682141432206     1.007825032230
         H            1.905872688266     1.182099958183    -0.500158567794     1.007825032230
         H            2.918824688266    -0.196279041817    -0.062489567794     1.007825032230
         H            1.772246688266    -0.332526041817    -1.406905567794     1.007825032230
         H           -1.996651311734     1.466942958183    -0.254770567794     1.007825032230
         H           -0.779935311734     1.845276958183     0.980395432206     1.007825032230
         H           -0.343949311734     1.889866958183    -0.725961567794     1.007825032230
         H           -1.133837311734    -2.125197041817    -0.191917567794     1.007825032230
         H           -2.423116311734    -0.859995041817    -0.587973567794     1.007825032230

  Basis Set: AUG-CC-PVTZ
    Blend: AUG-CC-PVTZ
  Basis Set: (AUG-CC-PVTZ AUX)
    Blend: AUG-CC-PVTZ-JKFIT
	 Reference Energy          =    -195.2116110008272756 [Eh]
	 Singles Energy            =      -0.0000000000000000 [Eh]
	 Same-Spin Energy          =      -0.2065984474111556 [Eh]
	 Opposite-Spin Energy      =      -0.7629333450172469 [Eh]
	 Correlation Energy        =      -0.9695317924284025 [Eh]
	 Total Energy              =    -196.1811427932556740 [Eh]

	 ================> DF-SCS-MP2 Energies <==================
	-----------------------------------------------------------
	 SCS Same-Spin Scale       =       0.3333333333333333 [-]
	 SCS Opposite-Spin Scale   =       1.2000000000000000 [-]
	 SCS Same-Spin Energy      =      -0.0688661491370519 [Eh]
	 SCS Opposite-Spin Energy  =      -0.9155200140206962 [Eh]
	 SCS Correlation Energy    =      -0.9843861631577480 [Eh]
	 SCS Total Energy          =    -196.1959971639850266 [Eh]
	-----------------------------------------------------------

  Dipole Moment: [D]
     X:     0.3677      Y:     0.3618      Z:     0.0652     Total:     0.5199

*** Psi4 exiting successfully. Buy a developer a beer!
