                               Psi4 1.3.2 release

  ==> Input File <==

--------------------------------------------------------------------------
#psi4
#
memory 32 gb

molecule  {
0 1
  C        0.8191550    -0.4245250     0.5665810
  C       -0.5396327    -0.0692117     0.0178654
  C        1.8983300     0.0792340    -0.3972690
  C       -0.9681520     1.3378740     0.0286790
  C       -1.4389170    -1.0909370    -0.2348790
  H        0.9804000     0.0283030     1.5544360
  H        0.9238870    -1.5076770     0.6953830
  H        1.8814520     1.1684930    -0.4869170
  H        2.8944040    -0.2098860    -0.0492480
  H        1.7478260    -0.3461330    -1.3936640
  H       -2.0210720     1.4533360    -0.2415290
  H       -0.8043560     1.8316700     0.9936370
  H       -0.3683700     1.8762600    -0.7127200
  H       -1.1582580    -2.1388040    -0.1786760
  H       -2.4475370    -0.8736020    -0.5747320
units angstrom
no_reorient  #important for SAPT in psi4, default
symmetry c1  #important for SAPT in psi4, default
}

set PROPERTIES_ORIGIN ["COM"]
properties('MP2/aug-cc-pvtz', properties = ['dipole'])
--------------------------------------------------------------------------

    Molecular point group: c1
  Charge       = 0
  Multiplicity = 1
  Basis Set: AUG-CC-PVTZ
    Blend: AUG-CC-PVTZ
  Basis Set: (AUG-CC-PVTZ AUX)
    Blend: AUG-CC-PVTZ-JKFIT

    Orbital Energies [Eh]
    ---------------------

    Doubly Occupied:

       1A    -11.242179     2A    -11.225317     3A    -11.219551
       4A    -11.215059     5A    -11.214139     6A     -1.097956
       7A     -0.997803     8A     -0.927924     9A     -0.849596
      10A     -0.719071    11A     -0.627058    12A     -0.625637
      13A     -0.584800    14A     -0.561595    15A     -0.546845
      16A     -0.514704    17A     -0.508496    18A     -0.479518
      19A     -0.467894    20A     -0.333358

  @DF-RHF Final Energy:  -195.20620943352023

   => Energetics <=

    Nuclear Repulsion Energy =            175.8976990543442582
    One-Electron Energy =                -610.2908153534939402
    Two-Electron Energy =                 239.1869068656294814
    Total Energy =                       -195.2062094335202289
  Basis Set: (AUG-CC-PVTZ AUX)
    Blend: AUG-CC-PVTZ-RI
    Molecular point group: c1

    Geometry (in Angstrom), charge = 0, multiplicity = 1:

       Center              X                  Y                   Z               Mass
    ------------   -----------------  -----------------  -----------------  -----------------
         C            0.834987049177    -0.414267937097     0.575505088352    12.000000000000
         C           -0.523800650823    -0.058954637097     0.026789488352    12.000000000000
         C            1.914162049177     0.089491062903    -0.388344911648    12.000000000000
         C           -0.952319950823     1.348131062903     0.037603088352    12.000000000000
         C           -1.423084950823    -1.080679937097    -0.225954911648    12.000000000000
         H            0.996232049177     0.038560062903     1.563360088352     1.007825032230
         H            0.939719049177    -1.497419937097     0.704307088352     1.007825032230
         H            1.897284049177     1.178750062903    -0.477992911648     1.007825032230
         H            2.910236049177    -0.199628937097    -0.040323911648     1.007825032230
         H            1.763658049177    -0.335875937097    -1.384739911648     1.007825032230
         H           -2.005239950823     1.463593062903    -0.232604911648     1.007825032230
         H           -0.788523950823     1.841927062903     1.002561088352     1.007825032230
         H           -0.352537950823     1.886517062903    -0.703795911648     1.007825032230
         H           -1.142425950823    -2.128546937097    -0.169751911648     1.007825032230
         H           -2.431704950823    -0.863344937097    -0.565807911648     1.007825032230

  Basis Set: AUG-CC-PVTZ
    Blend: AUG-CC-PVTZ
  Basis Set: (AUG-CC-PVTZ AUX)
    Blend: AUG-CC-PVTZ-JKFIT
	 Reference Energy          =    -195.2062094335202289 [Eh]
	 Singles Energy            =      -0.0000000000000000 [Eh]
	 Same-Spin Energy          =      -0.2070656452938582 [Eh]
	 Opposite-Spin Energy      =      -0.7640270823374368 [Eh]
	 Correlation Energy        =      -0.9710927276312949 [Eh]
	 Total Energy              =    -196.1773021611515162 [Eh]

	 ================> DF-SCS-MP2 Energies <==================
	-----------------------------------------------------------
	 SCS Same-Spin Scale       =       0.3333333333333333 [-]
	 SCS Opposite-Spin Scale   =       1.2000000000000000 [-]
	 SCS Same-Spin Energy      =      -0.0690218817646194 [Eh]
	 SCS Opposite-Spin Energy  =      -0.9168324988049241 [Eh]
	 SCS Correlation Energy    =      -0.9858543805695434 [Eh]
	 SCS Total Energy          =    -196.1920638140897779 [Eh]
	-----------------------------------------------------------

  Dipole Moment: [D]
     X:     0.3002      Y:     0.3569      Z:     0.2203     Total:     0.5158

*** Psi4 exiting successfully. Buy a developer a beer!
