                               Psi4 1.3.2 release

  ==> Input File <==

--------------------------------------------------------------------------
#psi4
#
memory 32 gb

molecule  {
0 1
  C        0.8191550    -0.4245250     0.5665810
  C       -0.5818120    -0.1153060     0.1025600
  C        1.8983300     0.0792340    -0.3972690
  C       -1.0156973     1.3234153     0.0115995
  C       -1.4389170    -1.0909370    -0.2348790
  H        0.9804000     0.0283030     1.5544360
  H        0.9238870    -1.5076770     0.6953830
  H        1.8814520     1.1684930    -0.4869170
  H        2.8944040    -0.2098860    -0.0492480
  H        1.7478260    -0.3461330    -1.3936640
  H       -2.0210720     1.4533360    -0.2415290
  H       -0.8043560     1.8316700     0.9936370
  H       -0.3683700     1.8762600    -0.7127200
  H       -1.1582580    -2.1388040    -0.1786760
  H       -2.4475370    -0.8736020    -0.5747320
units angstrom
no_reorient  #important for SAPT in psi4, default
symmetry c1  #important for SAPT in psi4, default
}

set PROPERTIES_ORIGIN ["COM"]
properties('MP2/aug-cc-pvtz', properties = ['dipole'])
--------------------------------------------------------------------------

    Molecular point group: c1
  Charge       = 0
  Multiplicity = 1
  Basis Set: AUG-CC-PVTZ
    Blend: AUG-CC-PVTZ
  Basis Set: (AUG-CC-PVTZ AUX)
    Blend: AUG-CC-PVTZ-JKFIT

    Orbital Energies [Eh]
    ---------------------

    Doubly Occupied:

       1A    -11.237363     2A    -11.225941     3A    -11.220334
       4A    -11.216068     5A    -11.208697     6A     -1.097044
       7A     -0.998982     8A     -0.928842     9A     -0.853282
      10A     -0.715915    11A     -0.629645    12A     -0.625253
      13A     -0.580586    14A     -0.560211    15A     -0.546809
      16A     -0.514417    17A     -0.506705    18A     -0.480308
      19A     -0.468283    20A     -0.342749

  @DF-RHF Final Energy:  -195.21195491126758

   => Energetics <=

    Nuclear Repulsion Energy =            175.7104978146117560
    One-Electron Energy =                -609.9300371369112099
    Two-Electron Energy =                 239.0075844110318712
    Total Energy =                       -195.2119549112675827
  Basis Set: (AUG-CC-PVTZ AUX)
    Blend: AUG-CC-PVTZ-RI
    Molecular point group: c1

    Geometry (in Angstrom), charge = 0, multiplicity = 1:

       Center              X                  Y                   Z               Mass
    ------------   -----------------  -----------------  -----------------  -----------------
         C            0.850351234142    -0.403899013834     0.563926871198    12.000000000000
         C           -0.550615765858    -0.094680013834     0.099905871198    12.000000000000
         C            1.929526234142     0.099859986166    -0.399923128802    12.000000000000
         C           -0.984501065858     1.344041286166     0.008945371198    12.000000000000
         C           -1.407720765858    -1.070311013834    -0.237533128802    12.000000000000
         H            1.011596234142     0.048928986166     1.551781871198     1.007825032230
         H            0.955083234142    -1.487051013834     0.692728871198     1.007825032230
         H            1.912648234142     1.189118986166    -0.489571128802     1.007825032230
         H            2.925600234142    -0.189260013834    -0.051902128802     1.007825032230
         H            1.779022234142    -0.325507013834    -1.396318128802     1.007825032230
         H           -1.989875765858     1.473961986166    -0.244183128802     1.007825032230
         H           -0.773159765858     1.852295986166     0.990982871198     1.007825032230
         H           -0.337173765858     1.896885986166    -0.715374128802     1.007825032230
         H           -1.127061765858    -2.118178013834    -0.181330128802     1.007825032230
         H           -2.416340765858    -0.852976013834    -0.577386128802     1.007825032230

  Basis Set: AUG-CC-PVTZ
    Blend: AUG-CC-PVTZ
  Basis Set: (AUG-CC-PVTZ AUX)
    Blend: AUG-CC-PVTZ-JKFIT
	 Reference Energy          =    -195.2119549112675827 [Eh]
	 Singles Energy            =      -0.0000000000000000 [Eh]
	 Same-Spin Energy          =      -0.2061306823061851 [Eh]
	 Opposite-Spin Energy      =      -0.7620573893738352 [Eh]
	 Correlation Energy        =      -0.9681880716800202 [Eh]
	 Total Energy              =    -196.1801429829476149 [Eh]

	 ================> DF-SCS-MP2 Energies <==================
	-----------------------------------------------------------
	 SCS Same-Spin Scale       =       0.3333333333333333 [-]
	 SCS Opposite-Spin Scale   =       1.2000000000000000 [-]
	 SCS Same-Spin Energy      =      -0.0687102274353950 [Eh]
	 SCS Opposite-Spin Energy  =      -0.9144688672486021 [Eh]
	 SCS Correlation Energy    =      -0.9831790946839971 [Eh]
	 SCS Total Energy          =    -196.1951340059515871 [Eh]
	-----------------------------------------------------------

  Dipole Moment: [D]
     X:     0.3479      Y:     0.3269      Z:     0.1045     Total:     0.4887

*** Psi4 exiting successfully. Buy a developer a beer!
