                               Psi4 1.3.2 release

  ==> Input File <==

--------------------------------------------------------------------------
#psi4
#
memory 32 gb

molecule  {
0 1
  C        0.8191550    -0.4245250     0.5665810
  C       -0.5818120    -0.1153060     0.1025600
  C        1.8983300     0.0792340    -0.3972690
  C       -0.9201360     1.3505623     0.0458485
  C       -1.4389170    -1.0909370    -0.2348790
  H        0.9804000     0.0283030     1.5544360
  H        0.9238870    -1.5076770     0.6953830
  H        1.8814520     1.1684930    -0.4869170
  H        2.8944040    -0.2098860    -0.0492480
  H        1.7478260    -0.3461330    -1.3936640
  H       -2.0210720     1.4533360    -0.2415290
  H       -0.8043560     1.8316700     0.9936370
  H       -0.3683700     1.8762600    -0.7127200
  H       -1.1582580    -2.1388040    -0.1786760
  H       -2.4475370    -0.8736020    -0.5747320
units angstrom
no_reorient  #important for SAPT in psi4, default
symmetry c1  #important for SAPT in psi4, default
}

set PROPERTIES_ORIGIN ["COM"]
properties('MP2/aug-cc-pvtz', properties = ['dipole'])
--------------------------------------------------------------------------

    Molecular point group: c1
  Charge       = 0
  Multiplicity = 1
  Basis Set: AUG-CC-PVTZ
    Blend: AUG-CC-PVTZ
  Basis Set: (AUG-CC-PVTZ AUX)
    Blend: AUG-CC-PVTZ-JKFIT

    Orbital Energies [Eh]
    ---------------------

    Doubly Occupied:

       1A    -11.237656     2A    -11.223428     3A    -11.219944
       4A    -11.215475     5A    -11.211111     6A     -1.097191
       7A     -0.996254     8A     -0.932371     9A     -0.852283
      10A     -0.715179    11A     -0.627022    12A     -0.622502
      13A     -0.589858    14A     -0.569966    15A     -0.535361
      16A     -0.512473    17A     -0.510784    18A     -0.480827
      19A     -0.459450    20A     -0.346018

  @DF-RHF Final Energy:  -195.21178963808924

   => Energetics <=

    Nuclear Repulsion Energy =            175.9134826030817180
    One-Electron Energy =                -610.3402413176737582
    Two-Electron Energy =                 239.2149690765027970
    Total Energy =                       -195.2117896380892432
  Basis Set: (AUG-CC-PVTZ AUX)
    Blend: AUG-CC-PVTZ-RI
    Molecular point group: c1

    Geometry (in Angstrom), charge = 0, multiplicity = 1:

       Center              X                  Y                   Z               Mass
    ------------   -----------------  -----------------  -----------------  -----------------
         C            0.833987589292    -0.408547588798     0.558062169981    12.000000000000
         C           -0.566979410708    -0.099328588798     0.094041169981    12.000000000000
         C            1.913162589292     0.095211411202    -0.405787830019    12.000000000000
         C           -0.905303410708     1.366539711202     0.037329669981    12.000000000000
         C           -1.424084410708    -1.074959588798    -0.243397830019    12.000000000000
         H            0.995232589292     0.044280411202     1.545917169981     1.007825032230
         H            0.938719589292    -1.491699588798     0.686864169981     1.007825032230
         H            1.896284589292     1.184470411202    -0.495435830019     1.007825032230
         H            2.909236589292    -0.193908588798    -0.057766830019     1.007825032230
         H            1.762658589292    -0.330155588798    -1.402182830019     1.007825032230
         H           -2.006239410708     1.469313411202    -0.250047830019     1.007825032230
         H           -0.789523410708     1.847647411202     0.985118169981     1.007825032230
         H           -0.353537410708     1.892237411202    -0.721238830019     1.007825032230
         H           -1.143425410708    -2.122826588798    -0.187194830019     1.007825032230
         H           -2.432704410708    -0.857624588798    -0.583250830019     1.007825032230

  Basis Set: AUG-CC-PVTZ
    Blend: AUG-CC-PVTZ
  Basis Set: (AUG-CC-PVTZ AUX)
    Blend: AUG-CC-PVTZ-JKFIT
	 Reference Energy          =    -195.2117896380892432 [Eh]
	 Singles Energy            =      -0.0000000000000000 [Eh]
	 Same-Spin Energy          =      -0.2062319551031321 [Eh]
	 Opposite-Spin Energy      =      -0.7623760593147880 [Eh]
	 Correlation Energy        =      -0.9686080144179201 [Eh]
	 Total Energy              =    -196.1803976525071675 [Eh]

	 ================> DF-SCS-MP2 Energies <==================
	-----------------------------------------------------------
	 SCS Same-Spin Scale       =       0.3333333333333333 [-]
	 SCS Opposite-Spin Scale   =       1.2000000000000000 [-]
	 SCS Same-Spin Energy      =      -0.0687439850343774 [Eh]
	 SCS Opposite-Spin Energy  =      -0.9148512711777456 [Eh]
	 SCS Correlation Energy    =      -0.9835952562121230 [Eh]
	 SCS Total Energy          =    -196.1953848943013554 [Eh]
	-----------------------------------------------------------

  Dipole Moment: [D]
     X:     0.3475      Y:     0.3224      Z:     0.1129     Total:     0.4873

*** Psi4 exiting successfully. Buy a developer a beer!
