                               Psi4 1.3.2 release

  ==> Input File <==

--------------------------------------------------------------------------
#psi4
#
memory 32 gb

molecule  {
0 1
  C        0.8191550    -0.4245250     0.5665810
  C       -0.5818120    -0.1153060     0.1025600
  C        1.8983300     0.0792340    -0.3972690
  C       -0.9424896     1.2413475     0.0335865
  C       -1.4389170    -1.0909370    -0.2348790
  H        0.9804000     0.0283030     1.5544360
  H        0.9238870    -1.5076770     0.6953830
  H        1.8814520     1.1684930    -0.4869170
  H        2.8944040    -0.2098860    -0.0492480
  H        1.7478260    -0.3461330    -1.3936640
  H       -2.0210720     1.4533360    -0.2415290
  H       -0.8043560     1.8316700     0.9936370
  H       -0.3683700     1.8762600    -0.7127200
  H       -1.1582580    -2.1388040    -0.1786760
  H       -2.4475370    -0.8736020    -0.5747320
units angstrom
no_reorient  #important for SAPT in psi4, default
symmetry c1  #important for SAPT in psi4, default
}

set PROPERTIES_ORIGIN ["COM"]
properties('MP2/aug-cc-pvtz', properties = ['dipole'])
--------------------------------------------------------------------------

    Molecular point group: c1
  Charge       = 0
  Multiplicity = 1
  Basis Set: AUG-CC-PVTZ
    Blend: AUG-CC-PVTZ
  Basis Set: (AUG-CC-PVTZ AUX)
    Blend: AUG-CC-PVTZ-JKFIT

    Orbital Energies [Eh]
    ---------------------

    Doubly Occupied:

       1A    -11.231825     2A    -11.224597     3A    -11.224524
       4A    -11.215568     5A    -11.210899     6A     -1.109677
       7A     -1.001519     8A     -0.927662     9A     -0.853363
      10A     -0.720774    11A     -0.631765    12A     -0.627377
      13A     -0.584354    14A     -0.562706    15A     -0.539968
      16A     -0.508255    17A     -0.502736    18A     -0.481874
      19A     -0.467498    20A     -0.341277

  @DF-RHF Final Energy:  -195.20255571126557

   => Energetics <=

    Nuclear Repulsion Energy =            177.1938936703685670
    One-Electron Energy =                -612.8564638937114069
    Two-Electron Energy =                 240.4600145120772936
    Total Energy =                       -195.2025557112655747
  Basis Set: (AUG-CC-PVTZ AUX)
    Blend: AUG-CC-PVTZ-RI
    Molecular point group: c1

    Geometry (in Angstrom), charge = 0, multiplicity = 1:

       Center              X                  Y                   Z               Mass
    ------------   -----------------  -----------------  -----------------  -----------------
         C            0.837815356092    -0.389845957494     0.560161879938    12.000000000000
         C           -0.563151643908    -0.080626957494     0.096140879938    12.000000000000
         C            1.916990356092     0.113913042506    -0.403688120062    12.000000000000
         C           -0.923829243908     1.276026542506     0.027167379938    12.000000000000
         C           -1.420256643908    -1.056257957494    -0.241298120062    12.000000000000
         H            0.999060356092     0.062982042506     1.548016879938     1.007825032230
         H            0.942547356092    -1.472997957494     0.688963879938     1.007825032230
         H            1.900112356092     1.203172042506    -0.493336120062     1.007825032230
         H            2.913064356092    -0.175206957494    -0.055667120062     1.007825032230
         H            1.766486356092    -0.311453957494    -1.400083120062     1.007825032230
         H           -2.002411643908     1.488015042506    -0.247948120062     1.007825032230
         H           -0.785695643908     1.866349042506     0.987217879938     1.007825032230
         H           -0.349709643908     1.910939042506    -0.719139120062     1.007825032230
         H           -1.139597643908    -2.104124957494    -0.185095120062     1.007825032230
         H           -2.428876643908    -0.838922957494    -0.581151120062     1.007825032230

  Basis Set: AUG-CC-PVTZ
    Blend: AUG-CC-PVTZ
  Basis Set: (AUG-CC-PVTZ AUX)
    Blend: AUG-CC-PVTZ-JKFIT
	 Reference Energy          =    -195.2025557112655747 [Eh]
	 Singles Energy            =      -0.0000000000000000 [Eh]
	 Same-Spin Energy          =      -0.2074464161191761 [Eh]
	 Opposite-Spin Energy      =      -0.7635660605855910 [Eh]
	 Correlation Energy        =      -0.9710124767047670 [Eh]
	 Total Energy              =    -196.1735681879703463 [Eh]

	 ================> DF-SCS-MP2 Energies <==================
	-----------------------------------------------------------
	 SCS Same-Spin Scale       =       0.3333333333333333 [-]
	 SCS Opposite-Spin Scale   =       1.2000000000000000 [-]
	 SCS Same-Spin Energy      =      -0.0691488053730587 [Eh]
	 SCS Opposite-Spin Energy  =      -0.9162792727027091 [Eh]
	 SCS Correlation Energy    =      -0.9854280780757678 [Eh]
	 SCS Total Energy          =    -196.1879837893413310 [Eh]
	-----------------------------------------------------------

  Dipole Moment: [D]
     X:     0.3335      Y:     0.3470      Z:     0.1008     Total:     0.4917

*** Psi4 exiting successfully. Buy a developer a beer!
