                               Psi4 1.3.2 release

  ==> Input File <==

--------------------------------------------------------------------------
#psi4
#
memory 32 gb

molecule  {
0 1
  C        0.8191550    -0.4245250     0.5665810
  C       -0.5721280    -0.1422142     0.0583757
  C        1.8983300     0.0792340    -0.3972690
  C       -0.9681520     1.3378740     0.0286790
  C       -1.4389170    -1.0909370    -0.2348790
  H        0.9804000     0.0283030     1.5544360
  H        0.9238870    -1.5076770     0.6953830
  H        1.8814520     1.1684930    -0.4869170
  H        2.8944040    -0.2098860    -0.0492480
  H        1.7478260    -0.3461330    -1.3936640
  H       -2.0210720     1.4533360    -0.2415290
  H       -0.8043560     1.8316700     0.9936370
  H       -0.3683700     1.8762600    -0.7127200
  H       -1.1582580    -2.1388040    -0.1786760
  H       -2.4475370    -0.8736020    -0.5747320
units angstrom
no_reorient  #important for SAPT in psi4, default
symmetry c1  #important for SAPT in psi4, default
}

set PROPERTIES_ORIGIN ["COM"]
properties('MP2/aug-cc-pvtz', properties = ['dipole'])
--------------------------------------------------------------------------

    Molecular point group: c1
  Charge       = 0
  Multiplicity = 1
  Basis Set: AUG-CC-PVTZ
    Blend: AUG-CC-PVTZ
  Basis Set: (AUG-CC-PVTZ AUX)
    Blend: AUG-CC-PVTZ-JKFIT

    Orbital Energies [Eh]
    ---------------------

    Doubly Occupied:

       1A    -11.234795     2A    -11.224461     3A    -11.219865
       4A    -11.215067     5A    -11.207348     6A     -1.097093
       7A     -0.997757     8A     -0.930329     9A     -0.852198
      10A     -0.714343    11A     -0.627369    12A     -0.624474
      13A     -0.584781    14A     -0.562197    15A     -0.538988
      16A     -0.514435    17A     -0.510242    18A     -0.482596
      19A     -0.457541    20A     -0.351108

  @DF-RHF Final Energy:  -195.21418466324408

   => Energetics <=

    Nuclear Repulsion Energy =            175.8758748228210322
    One-Electron Energy =                -610.2861469540674761
    Two-Electron Energy =                 239.1960874680023323
    Total Energy =                       -195.2141846632440831
  Basis Set: (AUG-CC-PVTZ AUX)
    Blend: AUG-CC-PVTZ-RI
    Molecular point group: c1

    Geometry (in Angstrom), charge = 0, multiplicity = 1:

       Center              X                  Y                   Z               Mass
    ------------   -----------------  -----------------  -----------------  -----------------
         C            0.840551451801    -0.401767196911     0.568568219955    12.000000000000
         C           -0.550731548199    -0.119456396911     0.060362919955    12.000000000000
         C            1.919726451801     0.101991803089    -0.395281780045    12.000000000000
         C           -0.946755548199     1.360631803089     0.030666219955    12.000000000000
         C           -1.417520548199    -1.068179196911    -0.232891780045    12.000000000000
         H            1.001796451801     0.051060803089     1.556423219955     1.007825032230
         H            0.945283451801    -1.484919196911     0.697370219955     1.007825032230
         H            1.902848451801     1.191250803089    -0.484929780045     1.007825032230
         H            2.915800451801    -0.187128196911    -0.047260780045     1.007825032230
         H            1.769222451801    -0.323375196911    -1.391676780045     1.007825032230
         H           -1.999675548199     1.476093803089    -0.239541780045     1.007825032230
         H           -0.782959548199     1.854427803089     0.995624219955     1.007825032230
         H           -0.346973548199     1.899017803089    -0.710732780045     1.007825032230
         H           -1.136861548199    -2.116046196911    -0.176688780045     1.007825032230
         H           -2.426140548199    -0.850844196911    -0.572744780045     1.007825032230

  Basis Set: AUG-CC-PVTZ
    Blend: AUG-CC-PVTZ
  Basis Set: (AUG-CC-PVTZ AUX)
    Blend: AUG-CC-PVTZ-JKFIT
	 Reference Energy          =    -195.2141846632440831 [Eh]
	 Singles Energy            =      -0.0000000000000000 [Eh]
	 Same-Spin Energy          =      -0.2058199100775384 [Eh]
	 Opposite-Spin Energy      =      -0.7616151678799780 [Eh]
	 Correlation Energy        =      -0.9674350779575164 [Eh]
	 Total Energy              =    -196.1816197412015867 [Eh]

	 ================> DF-SCS-MP2 Energies <==================
	-----------------------------------------------------------
	 SCS Same-Spin Scale       =       0.3333333333333333 [-]
	 SCS Opposite-Spin Scale   =       1.2000000000000000 [-]
	 SCS Same-Spin Energy      =      -0.0686066366925128 [Eh]
	 SCS Opposite-Spin Energy  =      -0.9139382014559735 [Eh]
	 SCS Correlation Energy    =      -0.9825448381484863 [Eh]
	 SCS Total Energy          =    -196.1967295013925821 [Eh]
	-----------------------------------------------------------

  Dipole Moment: [D]
     X:     0.3168      Y:     0.2885      Z:     0.1491     Total:     0.4536

*** Psi4 exiting successfully. Buy a developer a beer!
