                               Psi4 1.3.2 release

  ==> Input File <==

--------------------------------------------------------------------------
#psi4
#
memory 32 gb

molecule  {
0 1
  C        0.8191550    -0.4245250     0.5665810
  C       -0.5818120    -0.1153060     0.1025600
  C        1.8983300     0.0792340    -0.3972690
  C       -0.9441992     1.3444405     0.0372538
  C       -1.4389170    -1.0909370    -0.2348790
  H        0.9804000     0.0283030     1.5544360
  H        0.9238870    -1.5076770     0.6953830
  H        1.8814520     1.1684930    -0.4869170
  H        2.8944040    -0.2098860    -0.0492480
  H        1.7478260    -0.3461330    -1.3936640
  H       -2.0210720     1.4533360    -0.2415290
  H       -0.8043560     1.8316700     0.9936370
  H       -0.3683700     1.8762600    -0.7127200
  H       -1.1582580    -2.1388040    -0.1786760
  H       -2.4475370    -0.8736020    -0.5747320
units angstrom
no_reorient  #important for SAPT in psi4, default
symmetry c1  #important for SAPT in psi4, default
}

set PROPERTIES_ORIGIN ["COM"]
properties('MP2/aug-cc-pvtz', properties = ['dipole'])
--------------------------------------------------------------------------

    Molecular point group: c1
  Charge       = 0
  Multiplicity = 1
  Basis Set: AUG-CC-PVTZ
    Blend: AUG-CC-PVTZ
  Basis Set: (AUG-CC-PVTZ AUX)
    Blend: AUG-CC-PVTZ-JKFIT

    Orbital Energies [Eh]
    ---------------------

    Doubly Occupied:

       1A    -11.237429     2A    -11.223981     3A    -11.219683
       4A    -11.215582     5A    -11.210451     6A     -1.097028
       7A     -0.996832     8A     -0.931286     9A     -0.852466
      10A     -0.714949    11A     -0.626763    12A     -0.623784
      13A     -0.586339    14A     -0.567428    15A     -0.537563
      16A     -0.514116    17A     -0.510514    18A     -0.480706
      19A     -0.462201    20A     -0.345228

  @DF-RHF Final Energy:  -195.21407054108613

   => Energetics <=

    Nuclear Repulsion Energy =            175.8573407489049885
    One-Electron Energy =                -610.2341644904381610
    Two-Electron Energy =                 239.1627532004470140
    Total Energy =                       -195.2140705410861301
  Basis Set: (AUG-CC-PVTZ AUX)
    Blend: AUG-CC-PVTZ-RI
    Molecular point group: c1

    Geometry (in Angstrom), charge = 0, multiplicity = 1:

       Center              X                  Y                   Z               Mass
    ------------   -----------------  -----------------  -----------------  -----------------
         C            0.838108103127    -0.407499309202     0.559533901931    12.000000000000
         C           -0.562858896873    -0.098280309202     0.095512901931    12.000000000000
         C            1.917283103127     0.096259690798    -0.404316098069    12.000000000000
         C           -0.925246096873     1.361466190798     0.030206701931    12.000000000000
         C           -1.419963896873    -1.073911309202    -0.241926098069    12.000000000000
         H            0.999353103127     0.045328690798     1.547388901931     1.007825032230
         H            0.942840103127    -1.490651309202     0.688335901931     1.007825032230
         H            1.900405103127     1.185518690798    -0.493964098069     1.007825032230
         H            2.913357103127    -0.192860309202    -0.056295098069     1.007825032230
         H            1.766779103127    -0.329107309202    -1.400711098069     1.007825032230
         H           -2.002118896873     1.470361690798    -0.248576098069     1.007825032230
         H           -0.785402896873     1.848695690798     0.986589901931     1.007825032230
         H           -0.349416896873     1.893285690798    -0.719767098069     1.007825032230
         H           -1.139304896873    -2.121778309202    -0.185723098069     1.007825032230
         H           -2.428583896873    -0.856576309202    -0.581779098069     1.007825032230

  Basis Set: AUG-CC-PVTZ
    Blend: AUG-CC-PVTZ
  Basis Set: (AUG-CC-PVTZ AUX)
    Blend: AUG-CC-PVTZ-JKFIT
	 Reference Energy          =    -195.2140705410861301 [Eh]
	 Singles Energy            =      -0.0000000000000000 [Eh]
	 Same-Spin Energy          =      -0.2061657819856187 [Eh]
	 Opposite-Spin Energy      =      -0.7621833313131773 [Eh]
	 Correlation Energy        =      -0.9683491132987960 [Eh]
	 Total Energy              =    -196.1824196543849155 [Eh]

	 ================> DF-SCS-MP2 Energies <==================
	-----------------------------------------------------------
	 SCS Same-Spin Scale       =       0.3333333333333333 [-]
	 SCS Opposite-Spin Scale   =       1.2000000000000000 [-]
	 SCS Same-Spin Energy      =      -0.0687219273285396 [Eh]
	 SCS Opposite-Spin Energy  =      -0.9146199975758127 [Eh]
	 SCS Correlation Energy    =      -0.9833419249043522 [Eh]
	 SCS Total Energy          =    -196.1974124659904817 [Eh]
	-----------------------------------------------------------

  Dipole Moment: [D]
     X:     0.3447      Y:     0.3266      Z:     0.1107     Total:     0.4876

*** Psi4 exiting successfully. Buy a developer a beer!
