                               Psi4 1.3.2 release

  ==> Input File <==

--------------------------------------------------------------------------
#psi4
#
memory 32 gb

molecule  {
0 1
  C        0.8141387    -0.4502156     0.5638601
  C       -0.5818120    -0.1153060     0.1025600
  C        1.8983300     0.0792340    -0.3972690
  C       -0.9681520     1.3378740     0.0286790
  C       -1.4389170    -1.0909370    -0.2348790
  H        0.9804000     0.0283030     1.5544360
  H        0.9238870    -1.5076770     0.6953830
  H        1.8814520     1.1684930    -0.4869170
  H        2.8944040    -0.2098860    -0.0492480
  H        1.7478260    -0.3461330    -1.3936640
  H       -2.0210720     1.4533360    -0.2415290
  H       -0.8043560     1.8316700     0.9936370
  H       -0.3683700     1.8762600    -0.7127200
  H       -1.1582580    -2.1388040    -0.1786760
  H       -2.4475370    -0.8736020    -0.5747320
units angstrom
no_reorient  #important for SAPT in psi4, default
symmetry c1  #important for SAPT in psi4, default
}

set PROPERTIES_ORIGIN ["COM"]
properties('MP2/aug-cc-pvtz', properties = ['dipole'])
--------------------------------------------------------------------------

    Molecular point group: c1
  Charge       = 0
  Multiplicity = 1
  Basis Set: AUG-CC-PVTZ
    Blend: AUG-CC-PVTZ
  Basis Set: (AUG-CC-PVTZ AUX)
    Blend: AUG-CC-PVTZ-JKFIT

    Orbital Energies [Eh]
    ---------------------

    Doubly Occupied:

       1A    -11.237260     2A    -11.224315     3A    -11.220257
       4A    -11.216023     5A    -11.209285     6A     -1.096607
       7A     -0.996081     8A     -0.930679     9A     -0.852926
      10A     -0.715762    11A     -0.627912    12A     -0.624247
      13A     -0.582921    14A     -0.563886    15A     -0.540841
      16A     -0.515778    17A     -0.506341    18A     -0.482673
      19A     -0.466197    20A     -0.343635

  @DF-RHF Final Energy:  -195.21433346633182

   => Energetics <=

    Nuclear Repulsion Energy =            175.7256535122650973
    One-Electron Energy =                -609.9727209569923616
    Two-Electron Energy =                 239.0327339783954130
    Total Energy =                       -195.2143334663318228
  Basis Set: (AUG-CC-PVTZ AUX)
    Blend: AUG-CC-PVTZ-RI
    Molecular point group: c1

    Geometry (in Angstrom), charge = 0, multiplicity = 1:

       Center              X                  Y                   Z               Mass
    ------------   -----------------  -----------------  -----------------  -----------------
         C            0.838052389306    -0.427666295267     0.558747245428    12.000000000000
         C           -0.557898310694    -0.092756695267     0.097447145428    12.000000000000
         C            1.922243689306     0.101783304733    -0.402381854572    12.000000000000
         C           -0.944238310694     1.360423304733     0.023566145428    12.000000000000
         C           -1.415003310694    -1.068387695267    -0.239991854572    12.000000000000
         H            1.004313689306     0.050852304733     1.549323145428     1.007825032230
         H            0.947800689306    -1.485127695267     0.690270145428     1.007825032230
         H            1.905365689306     1.191042304733    -0.492029854572     1.007825032230
         H            2.918317689306    -0.187336695267    -0.054360854572     1.007825032230
         H            1.771739689306    -0.323583695267    -1.398776854572     1.007825032230
         H           -1.997158310694     1.475885304733    -0.246641854572     1.007825032230
         H           -0.780442310694     1.854219304733     0.988524145428     1.007825032230
         H           -0.344456310694     1.898809304733    -0.717832854572     1.007825032230
         H           -1.134344310694    -2.116254695267    -0.183788854572     1.007825032230
         H           -2.423623310694    -0.851052695267    -0.579844854572     1.007825032230

  Basis Set: AUG-CC-PVTZ
    Blend: AUG-CC-PVTZ
  Basis Set: (AUG-CC-PVTZ AUX)
    Blend: AUG-CC-PVTZ-JKFIT
	 Reference Energy          =    -195.2143334663318228 [Eh]
	 Singles Energy            =      -0.0000000000000000 [Eh]
	 Same-Spin Energy          =      -0.2060776653649214 [Eh]
	 Opposite-Spin Energy      =      -0.7619884744588974 [Eh]
	 Correlation Energy        =      -0.9680661398238188 [Eh]
	 Total Energy              =    -196.1823996061556556 [Eh]

	 ================> DF-SCS-MP2 Energies <==================
	-----------------------------------------------------------
	 SCS Same-Spin Scale       =       0.3333333333333333 [-]
	 SCS Opposite-Spin Scale   =       1.2000000000000000 [-]
	 SCS Same-Spin Energy      =      -0.0686925551216405 [Eh]
	 SCS Opposite-Spin Energy  =      -0.9143861693506768 [Eh]
	 SCS Correlation Energy    =      -0.9830787244723174 [Eh]
	 SCS Total Energy          =    -196.1974121908041298 [Eh]
	-----------------------------------------------------------

  Dipole Moment: [D]
     X:     0.3429      Y:     0.3239      Z:     0.1073     Total:     0.4838

*** Psi4 exiting successfully. Buy a developer a beer!
