                               Psi4 1.3.2 release

  ==> Input File <==

--------------------------------------------------------------------------
#psi4
#
memory 32 gb

molecule  {
0 1
  C        0.8191550    -0.4245250     0.5665810
  C       -0.5615635    -0.0920563     0.0599041
  C        1.8983300     0.0792340    -0.3972690
  C       -0.9681520     1.3378740     0.0286790
  C       -1.4389170    -1.0909370    -0.2348790
  H        0.9804000     0.0283030     1.5544360
  H        0.9238870    -1.5076770     0.6953830
  H        1.8814520     1.1684930    -0.4869170
  H        2.8944040    -0.2098860    -0.0492480
  H        1.7478260    -0.3461330    -1.3936640
  H       -2.0210720     1.4533360    -0.2415290
  H       -0.8043560     1.8316700     0.9936370
  H       -0.3683700     1.8762600    -0.7127200
  H       -1.1582580    -2.1388040    -0.1786760
  H       -2.4475370    -0.8736020    -0.5747320
units angstrom
no_reorient  #important for SAPT in psi4, default
symmetry c1  #important for SAPT in psi4, default
}

set PROPERTIES_ORIGIN ["COM"]
properties('MP2/aug-cc-pvtz', properties = ['dipole'])
--------------------------------------------------------------------------

    Molecular point group: c1
  Charge       = 0
  Multiplicity = 1
  Basis Set: AUG-CC-PVTZ
    Blend: AUG-CC-PVTZ
  Basis Set: (AUG-CC-PVTZ AUX)
    Blend: AUG-CC-PVTZ-JKFIT

    Orbital Energies [Eh]
    ---------------------

    Doubly Occupied:

       1A    -11.239507     2A    -11.224905     3A    -11.219595
       4A    -11.214908     5A    -11.212090     6A     -1.097433
       7A     -0.997541     8A     -0.929523     9A     -0.851134
      10A     -0.716939    11A     -0.626741    12A     -0.625609
      13A     -0.584182    14A     -0.563147    15A     -0.543811
      16A     -0.514953    17A     -0.508792    18A     -0.479848
      19A     -0.467436    20A     -0.339010

  @DF-RHF Final Energy:  -195.21229756801660

   => Energetics <=

    Nuclear Repulsion Energy =            175.8692689442046628
    One-Electron Energy =                -610.2489247907508343
    Two-Electron Energy =                 239.1673582785295480
    Total Energy =                       -195.2122975680165951
  Basis Set: (AUG-CC-PVTZ AUX)
    Blend: AUG-CC-PVTZ-RI
    Molecular point group: c1

    Geometry (in Angstrom), charge = 0, multiplicity = 1:

       Center              X                  Y                   Z               Mass
    ------------   -----------------  -----------------  -----------------  -----------------
         C            0.838742416909    -0.410356092855     0.568306501092    12.000000000000
         C           -0.541976083091    -0.077887392855     0.061629601092    12.000000000000
         C            1.917917416909     0.093402907145    -0.395543498908    12.000000000000
         C           -0.948564583091     1.352042907145     0.030404501092    12.000000000000
         C           -1.419329583091    -1.076768092855    -0.233153498908    12.000000000000
         H            0.999987416909     0.042471907145     1.556161501092     1.007825032230
         H            0.943474416909    -1.493508092855     0.697108501092     1.007825032230
         H            1.901039416909     1.182661907145    -0.485191498908     1.007825032230
         H            2.913991416909    -0.195717092855    -0.047522498908     1.007825032230
         H            1.767413416909    -0.331964092855    -1.391938498908     1.007825032230
         H           -2.001484583091     1.467504907145    -0.239803498908     1.007825032230
         H           -0.784768583091     1.845838907145     0.995362501092     1.007825032230
         H           -0.348782583091     1.890428907145    -0.710994498908     1.007825032230
         H           -1.138670583091    -2.124635092855    -0.176950498908     1.007825032230
         H           -2.427949583091    -0.859433092855    -0.573006498908     1.007825032230

  Basis Set: AUG-CC-PVTZ
    Blend: AUG-CC-PVTZ
  Basis Set: (AUG-CC-PVTZ AUX)
    Blend: AUG-CC-PVTZ-JKFIT
	 Reference Energy          =    -195.2122975680165951 [Eh]
	 Singles Energy            =      -0.0000000000000000 [Eh]
	 Same-Spin Energy          =      -0.2065221839080967 [Eh]
	 Opposite-Spin Energy      =      -0.7628401337091583 [Eh]
	 Correlation Energy        =      -0.9693623176172550 [Eh]
	 Total Energy              =    -196.1816598856338487 [Eh]

	 ================> DF-SCS-MP2 Energies <==================
	-----------------------------------------------------------
	 SCS Same-Spin Scale       =       0.3333333333333333 [-]
	 SCS Opposite-Spin Scale   =       1.2000000000000000 [-]
	 SCS Same-Spin Energy      =      -0.0688407279693656 [Eh]
	 SCS Opposite-Spin Energy  =      -0.9154081604509898 [Eh]
	 SCS Correlation Energy    =      -0.9842488884203554 [Eh]
	 SCS Total Energy          =    -196.1965464564369483 [Eh]
	-----------------------------------------------------------

  Dipole Moment: [D]
     X:     0.3248      Y:     0.3478      Z:     0.1651     Total:     0.5037

*** Psi4 exiting successfully. Buy a developer a beer!
