                               Psi4 1.4a3.dev225

  ==> Input File <==

--------------------------------------------------------------------------
#psi4
#
memory 32 gb

molecule  {
0 1
  C        0.8192070    -0.4243310     0.5666400
  C       -0.5817970    -0.1153230     0.1026030
  C        1.8983540     0.0792820    -0.3972980
  C       -0.9735157     1.3570954     0.0276382
  C       -1.4387520    -1.0910830    -0.2348580
  H        0.9804630     0.0287030     1.5544050
  H        0.9240160    -1.5074460     0.6957040
  H        1.8809490     1.1684740    -0.4876480
  H        2.8944990    -0.2091260    -0.0488830
  H        1.7482900    -0.3467700    -1.3934660
  H       -2.0213360     1.4530480    -0.2415340
  H       -0.8046150     1.8317440     0.9935000
  H       -0.3687290     1.8761680    -0.7128960
  H       -1.1579200    -2.1389110    -0.1787360
  H       -2.4474100    -0.8739030    -0.5746960
units angstrom
no_reorient  #important for SAPT in psi4, default
symmetry c1  #important for SAPT in psi4, default
}

set PROPERTIES_ORIGIN ["COM"]
properties('MP2/aug-cc-pvtz', properties = ['dipole'])
--------------------------------------------------------------------------

    Molecular point group: c1
  Charge       = 0
  Multiplicity = 1
  Basis Set: AUG-CC-PVTZ
    Blend: AUG-CC-PVTZ
  Basis Set: (AUG-CC-PVTZ AUX)
    Blend: AUG-CC-PVTZ-JKFIT

    Orbital Energies [Eh]
    ---------------------

    Doubly Occupied:

       1A    -11.238221     2A    -11.224613     3A    -11.218985
       4A    -11.215747     5A    -11.209692     6A     -1.094947
       7A     -0.996760     8A     -0.930980     9A     -0.852579
      10A     -0.713905    11A     -0.626227    12A     -0.624484
      13A     -0.584055    14A     -0.565308    15A     -0.541950
      16A     -0.515702    17A     -0.510433    18A     -0.480378
      19A     -0.462432    20A     -0.344849

  @DF-RHF Final Energy:  -195.21483989115049

   => Energetics <=

    Nuclear Repulsion Energy =            175.5395330330547665
    One-Electron Energy =                -609.6042519120754832
    Two-Electron Energy =                 238.8498789878701984
    Total Energy =                       -195.2148398911504898
  Basis Set: (AUG-CC-PVTZ AUX)
    Blend: AUG-CC-PVTZ-RI
    Molecular point group: c1

    Geometry (in Angstrom), charge = 0, multiplicity = 1:

       Center              X                  Y                   Z               Mass
    ------------   -----------------  -----------------  -----------------  -----------------
         C            0.843138770842    -0.409486127981     0.561226517510    12.000000000000
         C           -0.557865229158    -0.100478127981     0.097189517510    12.000000000000
         C            1.922285770842     0.094126872019    -0.402711482490    12.000000000000
         C           -0.949583929158     1.371940272019     0.022224717510    12.000000000000
         C           -1.414820229158    -1.076238127981    -0.240271482490    12.000000000000
         H            1.004394770842     0.043547872019     1.548991517510     1.007825032230
         H            0.947947770842    -1.492601127981     0.690290517510     1.007825032230
         H            1.904880770842     1.183318872019    -0.493061482490     1.007825032230
         H            2.918430770842    -0.194281127981    -0.054296482490     1.007825032230
         H            1.772221770842    -0.331925127981    -1.398879482490     1.007825032230
         H           -1.997404229158     1.467892872019    -0.246947482490     1.007825032230
         H           -0.780683229158     1.846588872019     0.988086517510     1.007825032230
         H           -0.344797229158     1.891012872019    -0.718309482490     1.007825032230
         H           -1.133988229158    -2.124066127981    -0.184149482490     1.007825032230
         H           -2.423478229158    -0.859058127981    -0.580109482490     1.007825032230

  Basis Set: AUG-CC-PVTZ
    Blend: AUG-CC-PVTZ
  Basis Set: (AUG-CC-PVTZ AUX)
    Blend: AUG-CC-PVTZ-JKFIT
	 Reference Energy          =    -195.2148398911504898 [Eh]
	 Singles Energy            =      -0.0000000000000000 [Eh]
	 Same-Spin Energy          =      -0.2059669591236023 [Eh]
	 Opposite-Spin Energy      =      -0.7619368867681244 [Eh]
	 Correlation Energy        =      -0.9679038458917267 [Eh]
	 Total Energy              =    -196.1827437370422160 [Eh]

	 ================> DF-SCS-MP2 Energies <==================
	-----------------------------------------------------------
	 SCS Same-Spin Scale       =       0.3333333333333333 [-]
	 SCS Opposite-Spin Scale   =       1.2000000000000000 [-]
	 SCS Same-Spin Energy      =      -0.0686556530412008 [Eh]
	 SCS Opposite-Spin Energy  =      -0.9143242641217493 [Eh]
	 SCS Correlation Energy    =      -0.9829799171629501 [Eh]
	 SCS Total Energy          =    -196.1978198083134259 [Eh]
	-----------------------------------------------------------

  Dipole Moment: [D]
     X:     0.3466      Y:     0.3227      Z:     0.1100     Total:     0.4862

*** Psi4 exiting successfully. Buy a developer a beer!
