                               Psi4 1.4a3.dev225

  ==> Input File <==

--------------------------------------------------------------------------
#psi4
#
memory 32 gb

molecule  {
0 1
  C        0.8192070    -0.4243310     0.5666400
  C       -0.5817970    -0.1153230     0.1026030
  C        1.8983540     0.0792820    -0.3972980
  C       -0.9632443     1.3184866     0.0296038
  C       -1.4387520    -1.0910830    -0.2348580
  H        0.9804630     0.0287030     1.5544050
  H        0.9240160    -1.5074460     0.6957040
  H        1.8809490     1.1684740    -0.4876480
  H        2.8944990    -0.2091260    -0.0488830
  H        1.7482900    -0.3467700    -1.3934660
  H       -2.0213360     1.4530480    -0.2415340
  H       -0.8046150     1.8317440     0.9935000
  H       -0.3687290     1.8761680    -0.7128960
  H       -1.1579200    -2.1389110    -0.1787360
  H       -2.4474100    -0.8739030    -0.5746960
units angstrom
no_reorient  #important for SAPT in psi4, default
symmetry c1  #important for SAPT in psi4, default
}

set PROPERTIES_ORIGIN ["COM"]
properties('MP2/aug-cc-pvtz', properties = ['dipole'])
--------------------------------------------------------------------------

    Molecular point group: c1
  Charge       = 0
  Multiplicity = 1
  Basis Set: AUG-CC-PVTZ
    Blend: AUG-CC-PVTZ
  Basis Set: (AUG-CC-PVTZ AUX)
    Blend: AUG-CC-PVTZ-JKFIT

    Orbital Energies [Eh]
    ---------------------

    Doubly Occupied:

       1A    -11.236327     2A    -11.224565     3A    -11.220451
       4A    -11.215686     5A    -11.209988     6A     -1.099113
       7A     -0.998231     8A     -0.929691     9A     -0.852820
      10A     -0.716066    11A     -0.627625    12A     -0.625385
      13A     -0.583519    14A     -0.563658    15A     -0.540314
      16A     -0.513558    17A     -0.508812    18A     -0.480811
      19A     -0.466217    20A     -0.343936

  @DF-RHF Final Energy:  -195.21424946029697

   => Energetics <=

    Nuclear Repulsion Energy =            176.0724272232071428
    One-Electron Energy =                -610.6598081605039852
    Two-Electron Energy =                 239.3731314769999017
    Total Energy =                       -195.2142494602969691
  Basis Set: (AUG-CC-PVTZ AUX)
    Blend: AUG-CC-PVTZ-RI
    Molecular point group: c1

    Geometry (in Angstrom), charge = 0, multiplicity = 1:

       Center              X                  Y                   Z               Mass
    ------------   -----------------  -----------------  -----------------  -----------------
         C            0.841379925560    -0.402874867028     0.560889933764    12.000000000000
         C           -0.559624074440    -0.093866867028     0.096852933764    12.000000000000
         C            1.920526925560     0.100738132972    -0.403048066236    12.000000000000
         C           -0.941071374440     1.339942732972     0.023853733764    12.000000000000
         C           -1.416579074440    -1.069626867028    -0.240608066236    12.000000000000
         H            1.002635925560     0.050159132972     1.548654933764     1.007825032230
         H            0.946188925560    -1.485989867028     0.689953933764     1.007825032230
         H            1.903121925560     1.189930132972    -0.493398066236     1.007825032230
         H            2.916671925560    -0.187669867028    -0.054633066236     1.007825032230
         H            1.770462925560    -0.325313867028    -1.399216066236     1.007825032230
         H           -1.999163074440     1.474504132972    -0.247284066236     1.007825032230
         H           -0.782442074440     1.853200132972     0.987749933764     1.007825032230
         H           -0.346556074440     1.897624132972    -0.718646066236     1.007825032230
         H           -1.135747074440    -2.117454867028    -0.184486066236     1.007825032230
         H           -2.425237074440    -0.852446867028    -0.580446066236     1.007825032230

  Basis Set: AUG-CC-PVTZ
    Blend: AUG-CC-PVTZ
  Basis Set: (AUG-CC-PVTZ AUX)
    Blend: AUG-CC-PVTZ-JKFIT
	 Reference Energy          =    -195.2142494602969691 [Eh]
	 Singles Energy            =      -0.0000000000000000 [Eh]
	 Same-Spin Energy          =      -0.2063191950486486 [Eh]
	 Opposite-Spin Energy      =      -0.7622469143704254 [Eh]
	 Correlation Energy        =      -0.9685661094190740 [Eh]
	 Total Energy              =    -196.1828155697160412 [Eh]

	 ================> DF-SCS-MP2 Energies <==================
	-----------------------------------------------------------
	 SCS Same-Spin Scale       =       0.3333333333333333 [-]
	 SCS Opposite-Spin Scale   =       1.2000000000000000 [-]
	 SCS Same-Spin Energy      =      -0.0687730650162162 [Eh]
	 SCS Opposite-Spin Energy  =      -0.9146962972445104 [Eh]
	 SCS Correlation Energy    =      -0.9834693622607266 [Eh]
	 SCS Total Energy          =    -196.1977188225577038 [Eh]
	-----------------------------------------------------------

  Dipole Moment: [D]
     X:     0.3411      Y:     0.3341      Z:     0.1070     Total:     0.4893

*** Psi4 exiting successfully. Buy a developer a beer!
