                               Psi4 1.3.2 release

  ==> Input File <==

--------------------------------------------------------------------------
#psi4
#
memory 32 gb

molecule  {
0 1
  C        0.8191550    -0.4245250     0.5665810
  C       -0.5771827    -0.1287150     0.0803938
  C        1.8983300     0.0792340    -0.3972690
  C       -0.9681520     1.3378740     0.0286790
  C       -1.4389170    -1.0909370    -0.2348790
  H        0.9804000     0.0283030     1.5544360
  H        0.9238870    -1.5076770     0.6953830
  H        1.8814520     1.1684930    -0.4869170
  H        2.8944040    -0.2098860    -0.0492480
  H        1.7478260    -0.3461330    -1.3936640
  H       -2.0210720     1.4533360    -0.2415290
  H       -0.8043560     1.8316700     0.9936370
  H       -0.3683700     1.8762600    -0.7127200
  H       -1.1582580    -2.1388040    -0.1786760
  H       -2.4475370    -0.8736020    -0.5747320
units angstrom
no_reorient  #important for SAPT in psi4, default
symmetry c1  #important for SAPT in psi4, default
}

set PROPERTIES_ORIGIN ["COM"]
properties('MP2/aug-cc-pvtz', properties = ['dipole'])
--------------------------------------------------------------------------

    Molecular point group: c1
  Charge       = 0
  Multiplicity = 1
  Basis Set: AUG-CC-PVTZ
    Blend: AUG-CC-PVTZ
  Basis Set: (AUG-CC-PVTZ AUX)
    Blend: AUG-CC-PVTZ-JKFIT

    Orbital Energies [Eh]
    ---------------------

    Doubly Occupied:

       1A    -11.235984     2A    -11.224499     3A    -11.219766
       4A    -11.215393     5A    -11.208508     6A     -1.096980
       7A     -0.997547     8A     -0.930452     9A     -0.852446
      10A     -0.714632    11A     -0.626992    12A     -0.624819
      13A     -0.584174    14A     -0.563344    15A     -0.539979
      16A     -0.514605    17A     -0.510013    18A     -0.481511
      19A     -0.461320    20A     -0.347803

  @DF-RHF Final Energy:  -195.21506035573671

   => Energetics <=

    Nuclear Repulsion Energy =            175.8438375957832704
    One-Electron Energy =                -610.2162595961046918
    Two-Electron Energy =                 239.1573616445847108
    Total Energy =                       -195.2150603557367106
  Basis Set: (AUG-CC-PVTZ AUX)
    Blend: AUG-CC-PVTZ-RI
    Molecular point group: c1

    Geometry (in Angstrom), charge = 0, multiplicity = 1:

       Center              X                  Y                   Z               Mass
    ------------   -----------------  -----------------  -----------------  -----------------
         C            0.841417004233    -0.404078761472     0.564797903219    12.000000000000
         C           -0.554920695767    -0.108268761472     0.078610703219    12.000000000000
         C            1.920592004233     0.099680238528    -0.399052096781    12.000000000000
         C           -0.945889995767     1.358320238528     0.026895903219    12.000000000000
         C           -1.416654995767    -1.070490761472    -0.236662096781    12.000000000000
         H            1.002662004233     0.048749238528     1.552652903219     1.007825032230
         H            0.946149004233    -1.487230761472     0.693599903219     1.007825032230
         H            1.903714004233     1.188939238528    -0.488700096781     1.007825032230
         H            2.916666004233    -0.189439761472    -0.051031096781     1.007825032230
         H            1.770088004233    -0.325686761472    -1.395447096781     1.007825032230
         H           -1.998809995767     1.473782238528    -0.243312096781     1.007825032230
         H           -0.782093995767     1.852116238528     0.991853903219     1.007825032230
         H           -0.346107995767     1.896706238528    -0.714503096781     1.007825032230
         H           -1.135995995767    -2.118357761472    -0.180459096781     1.007825032230
         H           -2.425274995767    -0.853155761472    -0.576515096781     1.007825032230

  Basis Set: AUG-CC-PVTZ
    Blend: AUG-CC-PVTZ
  Basis Set: (AUG-CC-PVTZ AUX)
    Blend: AUG-CC-PVTZ-JKFIT
	 Reference Energy          =    -195.2150603557367106 [Eh]
	 Singles Energy            =      -0.0000000000000000 [Eh]
	 Same-Spin Energy          =      -0.2059525113667674 [Eh]
	 Opposite-Spin Energy      =      -0.7617883550022622 [Eh]
	 Correlation Energy        =      -0.9677408663690296 [Eh]
	 Total Energy              =    -196.1828012221057520 [Eh]

	 ================> DF-SCS-MP2 Energies <==================
	-----------------------------------------------------------
	 SCS Same-Spin Scale       =       0.3333333333333333 [-]
	 SCS Opposite-Spin Scale   =       1.2000000000000000 [-]
	 SCS Same-Spin Energy      =      -0.0686508371222558 [Eh]
	 SCS Opposite-Spin Energy  =      -0.9141460260027146 [Eh]
	 SCS Correlation Energy    =      -0.9827968631249704 [Eh]
	 SCS Total Energy          =    -196.1978572188616852 [Eh]
	-----------------------------------------------------------

  Dipole Moment: [D]
     X:     0.3307      Y:     0.3095      Z:     0.1292     Total:     0.4710

*** Psi4 exiting successfully. Buy a developer a beer!
