                               Psi4 1.3.2 release

  ==> Input File <==

--------------------------------------------------------------------------
#psi4
#
memory 32 gb

molecule  {
0 1
  C        0.8191550    -0.4245250     0.5665810
  C       -0.6171659    -0.1629068     0.1895152
  C        1.8983300     0.0792340    -0.3972690
  C       -0.9681520     1.3378740     0.0286790
  C       -1.4389170    -1.0909370    -0.2348790
  H        0.9804000     0.0283030     1.5544360
  H        0.9238870    -1.5076770     0.6953830
  H        1.8814520     1.1684930    -0.4869170
  H        2.8944040    -0.2098860    -0.0492480
  H        1.7478260    -0.3461330    -1.3936640
  H       -2.0210720     1.4533360    -0.2415290
  H       -0.8043560     1.8316700     0.9936370
  H       -0.3683700     1.8762600    -0.7127200
  H       -1.1582580    -2.1388040    -0.1786760
  H       -2.4475370    -0.8736020    -0.5747320
units angstrom
no_reorient  #important for SAPT in psi4, default
symmetry c1  #important for SAPT in psi4, default
}

set PROPERTIES_ORIGIN ["COM"]
properties('MP2/aug-cc-pvtz', properties = ['dipole'])
--------------------------------------------------------------------------

    Molecular point group: c1
  Charge       = 0
  Multiplicity = 1
  Basis Set: AUG-CC-PVTZ
    Blend: AUG-CC-PVTZ
  Basis Set: (AUG-CC-PVTZ AUX)
    Blend: AUG-CC-PVTZ-JKFIT

    Orbital Energies [Eh]
    ---------------------

    Doubly Occupied:

       1A    -11.234533     2A    -11.224314     3A    -11.219840
       4A    -11.217450     5A    -11.207634     6A     -1.096141
       7A     -0.997960     8A     -0.929434     9A     -0.855868
      10A     -0.711635    11A     -0.627629    12A     -0.622485
      13A     -0.583253    14A     -0.565771    15A     -0.535940
      16A     -0.513527    17A     -0.512998    18A     -0.482263
      19A     -0.453138    20A     -0.354049

  @DF-RHF Final Energy:  -195.21023082587928

   => Energetics <=

    Nuclear Repulsion Energy =            175.5601390134932274
    One-Electron Energy =                -609.6490165955960947
    Two-Electron Energy =                 238.8786467562236169
    Total Energy =                       -195.2102308258792789
  Basis Set: (AUG-CC-PVTZ AUX)
    Blend: AUG-CC-PVTZ-RI
    Molecular point group: c1

    Geometry (in Angstrom), charge = 0, multiplicity = 1:

       Center              X                  Y                   Z               Mass
    ------------   -----------------  -----------------  -----------------  -----------------
         C            0.848263613528    -0.398223855020     0.546112265465    12.000000000000
         C           -0.588057286472    -0.136605655020     0.169046465465    12.000000000000
         C            1.927438613528     0.105535144980    -0.417737734535    12.000000000000
         C           -0.939043386472     1.364175144980     0.008210265465    12.000000000000
         C           -1.409808386472    -1.064635855020    -0.255347734535    12.000000000000
         H            1.009508613528     0.054604144980     1.533967265465     1.007825032230
         H            0.952995613528    -1.481375855020     0.674914265465     1.007825032230
         H            1.910560613528     1.194794144980    -0.507385734535     1.007825032230
         H            2.923512613528    -0.183584855020    -0.069716734535     1.007825032230
         H            1.776934613528    -0.319831855020    -1.414132734535     1.007825032230
         H           -1.991963386472     1.479637144980    -0.261997734535     1.007825032230
         H           -0.775247386472     1.857971144980     0.973168265465     1.007825032230
         H           -0.339261386472     1.902561144980    -0.733188734535     1.007825032230
         H           -1.129149386472    -2.112502855020    -0.199144734535     1.007825032230
         H           -2.418428386472    -0.847300855020    -0.595200734535     1.007825032230

  Basis Set: AUG-CC-PVTZ
    Blend: AUG-CC-PVTZ
  Basis Set: (AUG-CC-PVTZ AUX)
    Blend: AUG-CC-PVTZ-JKFIT
	 Reference Energy          =    -195.2102308258792789 [Eh]
	 Singles Energy            =      -0.0000000000000000 [Eh]
	 Same-Spin Energy          =      -0.2057790924664637 [Eh]
	 Opposite-Spin Energy      =      -0.7616988370313306 [Eh]
	 Correlation Energy        =      -0.9674779294977942 [Eh]
	 Total Energy              =    -196.1777087553770684 [Eh]

	 ================> DF-SCS-MP2 Energies <==================
	-----------------------------------------------------------
	 SCS Same-Spin Scale       =       0.3333333333333333 [-]
	 SCS Opposite-Spin Scale   =       1.2000000000000000 [-]
	 SCS Same-Spin Energy      =      -0.0685930308221546 [Eh]
	 SCS Opposite-Spin Energy  =      -0.9140386044375967 [Eh]
	 SCS Correlation Energy    =      -0.9826316352597512 [Eh]
	 SCS Total Energy          =    -196.1928624611390433 [Eh]
	-----------------------------------------------------------

  Dipole Moment: [D]
     X:     0.3676      Y:     0.2646      Z:    -0.0074     Total:     0.4530

*** Psi4 exiting successfully. Buy a developer a beer!
