                               Psi4 1.3.2 release

  ==> Input File <==

--------------------------------------------------------------------------
#psi4
#
memory 32 gb

molecule  {
0 1
  C        0.8191550    -0.4245250     0.5665810
  C       -0.5818120    -0.1153060     0.1025600
  C        1.8983300     0.0792340    -0.3972690
  C       -1.1091447     1.2892589    -0.0222064
  C       -1.4389170    -1.0909370    -0.2348790
  H        0.9804000     0.0283030     1.5544360
  H        0.9238870    -1.5076770     0.6953830
  H        1.8814520     1.1684930    -0.4869170
  H        2.8944040    -0.2098860    -0.0492480
  H        1.7478260    -0.3461330    -1.3936640
  H       -2.0210720     1.4533360    -0.2415290
  H       -0.8043560     1.8316700     0.9936370
  H       -0.3683700     1.8762600    -0.7127200
  H       -1.1582580    -2.1388040    -0.1786760
  H       -2.4475370    -0.8736020    -0.5747320
units angstrom
no_reorient  #important for SAPT in psi4, default
symmetry c1  #important for SAPT in psi4, default
}

set PROPERTIES_ORIGIN ["COM"]
properties('MP2/aug-cc-pvtz', properties = ['dipole'])
--------------------------------------------------------------------------

    Molecular point group: c1
  Charge       = 0
  Multiplicity = 1
  Basis Set: AUG-CC-PVTZ
    Blend: AUG-CC-PVTZ
  Basis Set: (AUG-CC-PVTZ AUX)
    Blend: AUG-CC-PVTZ-JKFIT

    Orbital Energies [Eh]
    ---------------------

    Doubly Occupied:

       1A    -11.238837     2A    -11.229232     3A    -11.224471
       4A    -11.217079     5A    -11.206976     6A     -1.098267
       7A     -1.002922     8A     -0.928389     9A     -0.854858
      10A     -0.723005    11A     -0.638199    12A     -0.624320
      13A     -0.579788    14A     -0.572663    15A     -0.537339
      16A     -0.512819    17A     -0.495275    18A     -0.480080
      19A     -0.471711    20A     -0.339065

  @DF-RHF Final Energy:  -195.18428127305859

   => Energetics <=

    Nuclear Repulsion Energy =            175.5764470413497520
    One-Electron Energy =                -609.5708656682440960
    Two-Electron Energy =                 238.8101373538357564
    Total Energy =                       -195.1842812730585877
  Basis Set: (AUG-CC-PVTZ AUX)
    Blend: AUG-CC-PVTZ-RI
    Molecular point group: c1

    Geometry (in Angstrom), charge = 0, multiplicity = 1:

       Center              X                  Y                   Z               Mass
    ------------   -----------------  -----------------  -----------------  -----------------
         C            0.866352900777    -0.398050169177     0.569715697234    12.000000000000
         C           -0.534614099223    -0.088831169177     0.105694697234    12.000000000000
         C            1.945527900777     0.105708830823    -0.394134302766    12.000000000000
         C           -1.061946799223     1.315733730823    -0.019071702766    12.000000000000
         C           -1.391719099223    -1.064462169177    -0.231744302766    12.000000000000
         H            1.027597900777     0.054777830823     1.557570697234     1.007825032230
         H            0.971084900777    -1.481202169177     0.698517697234     1.007825032230
         H            1.928649900777     1.194967830823    -0.483782302766     1.007825032230
         H            2.941601900777    -0.183411169177    -0.046113302766     1.007825032230
         H            1.795023900777    -0.319658169177    -1.390529302766     1.007825032230
         H           -1.973874099223     1.479810830823    -0.238394302766     1.007825032230
         H           -0.757158099223     1.858144830823     0.996771697234     1.007825032230
         H           -0.321172099223     1.902734830823    -0.709585302766     1.007825032230
         H           -1.111060099223    -2.112329169177    -0.175541302766     1.007825032230
         H           -2.400339099223    -0.847127169177    -0.571597302766     1.007825032230

  Basis Set: AUG-CC-PVTZ
    Blend: AUG-CC-PVTZ
  Basis Set: (AUG-CC-PVTZ AUX)
    Blend: AUG-CC-PVTZ-JKFIT
	 Reference Energy          =    -195.1842812730585877 [Eh]
	 Singles Energy            =      -0.0000000000000000 [Eh]
	 Same-Spin Energy          =      -0.2064797615184838 [Eh]
	 Opposite-Spin Energy      =      -0.7630408879185523 [Eh]
	 Correlation Energy        =      -0.9695206494370361 [Eh]
	 Total Energy              =    -196.1538019224956315 [Eh]

	 ================> DF-SCS-MP2 Energies <==================
	-----------------------------------------------------------
	 SCS Same-Spin Scale       =       0.3333333333333333 [-]
	 SCS Opposite-Spin Scale   =       1.2000000000000000 [-]
	 SCS Same-Spin Energy      =      -0.0688265871728279 [Eh]
	 SCS Opposite-Spin Energy  =      -0.9156490655022627 [Eh]
	 SCS Correlation Energy    =      -0.9844756526750906 [Eh]
	 SCS Total Energy          =    -196.1687569257336747 [Eh]
	-----------------------------------------------------------

  Dipole Moment: [D]
     X:     0.3791      Y:     0.2945      Z:     0.0979     Total:     0.4899

*** Psi4 exiting successfully. Buy a developer a beer!
