                               Psi4 1.3.2 release

  ==> Input File <==

--------------------------------------------------------------------------
#psi4
#
memory 32 gb

molecule  {
0 1
  C        0.8191550    -0.4245250     0.5665810
  C       -0.5818120    -0.1153060     0.1025600
  C        1.8983300     0.0792340    -0.3972690
  C       -0.8229265     1.3705677     0.0803739
  C       -1.4389170    -1.0909370    -0.2348790
  H        0.9804000     0.0283030     1.5544360
  H        0.9238870    -1.5076770     0.6953830
  H        1.8814520     1.1684930    -0.4869170
  H        2.8944040    -0.2098860    -0.0492480
  H        1.7478260    -0.3461330    -1.3936640
  H       -2.0210720     1.4533360    -0.2415290
  H       -0.8043560     1.8316700     0.9936370
  H       -0.3683700     1.8762600    -0.7127200
  H       -1.1582580    -2.1388040    -0.1786760
  H       -2.4475370    -0.8736020    -0.5747320
units angstrom
no_reorient  #important for SAPT in psi4, default
symmetry c1  #important for SAPT in psi4, default
}

set PROPERTIES_ORIGIN ["COM"]
properties('MP2/aug-cc-pvtz', properties = ['dipole'])
--------------------------------------------------------------------------

    Molecular point group: c1
  Charge       = 0
  Multiplicity = 1
  Basis Set: AUG-CC-PVTZ
    Blend: AUG-CC-PVTZ
  Basis Set: (AUG-CC-PVTZ AUX)
    Blend: AUG-CC-PVTZ-JKFIT

    Orbital Energies [Eh]
    ---------------------

    Doubly Occupied:

       1A    -11.239472     2A    -11.223407     3A    -11.221722
       4A    -11.215316     5A    -11.214053     6A     -1.098657
       7A     -0.994548     8A     -0.937506     9A     -0.852037
      10A     -0.717751    11A     -0.628939    12A     -0.619275
      13A     -0.608688    14A     -0.575580    15A     -0.536652
      16A     -0.512585    17A     -0.496565    18A     -0.481335
      19A     -0.443489    20A     -0.349037

  @DF-RHF Final Energy:  -195.19080976363864

   => Energetics <=

    Nuclear Repulsion Energy =            176.1643831248321419
    One-Electron Energy =                -610.7771588583423181
    Two-Electron Energy =                 239.4219659698715077
    Total Energy =                       -195.1908097636386401
  Basis Set: (AUG-CC-PVTZ AUX)
    Blend: AUG-CC-PVTZ-RI
    Molecular point group: c1

    Geometry (in Angstrom), charge = 0, multiplicity = 1:

       Center              X                  Y                   Z               Mass
    ------------   -----------------  -----------------  -----------------  -----------------
         C            0.817341711368    -0.411973256518     0.552150138814    12.000000000000
         C           -0.583625288632    -0.102754256518     0.088129138814    12.000000000000
         C            1.896516711368     0.091785743482    -0.411699861186    12.000000000000
         C           -0.824739788632     1.383119443482     0.065943038814    12.000000000000
         C           -1.440730288632    -1.078385256518    -0.249309861186    12.000000000000
         H            0.978586711368     0.040854743482     1.540005138814     1.007825032230
         H            0.922073711368    -1.495125256518     0.680952138814     1.007825032230
         H            1.879638711368     1.181044743482    -0.501347861186     1.007825032230
         H            2.892590711368    -0.197334256518    -0.063678861186     1.007825032230
         H            1.746012711368    -0.333581256518    -1.408094861186     1.007825032230
         H           -2.022885288632     1.465887743482    -0.255959861186     1.007825032230
         H           -0.806169288632     1.844221743482     0.979206138814     1.007825032230
         H           -0.370183288632     1.888811743482    -0.727150861186     1.007825032230
         H           -1.160071288632    -2.126252256518    -0.193106861186     1.007825032230
         H           -2.449350288632    -0.861050256518    -0.589162861186     1.007825032230

  Basis Set: AUG-CC-PVTZ
    Blend: AUG-CC-PVTZ
  Basis Set: (AUG-CC-PVTZ AUX)
    Blend: AUG-CC-PVTZ-JKFIT
	 Reference Energy          =    -195.1908097636386401 [Eh]
	 Singles Energy            =      -0.0000000000000000 [Eh]
	 Same-Spin Energy          =      -0.2067624108977725 [Eh]
	 Opposite-Spin Energy      =      -0.7638517981634620 [Eh]
	 Correlation Energy        =      -0.9706142090612346 [Eh]
	 Total Energy              =    -196.1614239726998790 [Eh]

	 ================> DF-SCS-MP2 Energies <==================
	-----------------------------------------------------------
	 SCS Same-Spin Scale       =       0.3333333333333333 [-]
	 SCS Opposite-Spin Scale   =       1.2000000000000000 [-]
	 SCS Same-Spin Energy      =      -0.0689208036325908 [Eh]
	 SCS Opposite-Spin Energy  =      -0.9166221577961544 [Eh]
	 SCS Correlation Energy    =      -0.9855429614287452 [Eh]
	 SCS Total Energy          =    -196.1763527250673746 [Eh]
	-----------------------------------------------------------

  Dipole Moment: [D]
     X:     0.3740      Y:     0.2896      Z:     0.1220     Total:     0.4885

*** Psi4 exiting successfully. Buy a developer a beer!
