                               Psi4 1.4a3.dev225

  ==> Input File <==

--------------------------------------------------------------------------
#psi4
#
memory 32 gb

molecule  {
0 1
 Cl        1.7654610    -0.0000070     0.7971140
 Cl       -0.0521700     1.4508740    -0.9288370
 Cl       -0.0521790    -1.4508660    -0.9288460
  C       -0.8960030    -0.0000010     1.2134950
  C        0.0967137    -0.0000000     0.1230848
  C       -2.3512950     0.0000000     0.7642590
  H       -0.6844720    -0.8822810     1.8254550
  H       -0.6844710     0.8822780     1.8254570
  H       -2.5870190    -0.8871070     0.1737250
  H       -2.9943960    -0.0000020     1.6481200
  H       -2.5870190     0.8871090     0.1737290
units angstrom
no_reorient  #important for SAPT in psi4, default
symmetry c1  #important for SAPT in psi4, default
}

set PROPERTIES_ORIGIN ["COM"]
properties('MP2/aug-cc-pvtz', properties = ['dipole'])
--------------------------------------------------------------------------

    Molecular point group: c1
  Charge       = 0
  Multiplicity = 1
  Basis Set: AUG-CC-PVTZ
    Blend: AUG-CC-PVTZ
  Basis Set: (AUG-CC-PVTZ AUX)
    Blend: AUG-CC-PVTZ-JKFIT

    Orbital Energies [Eh]
    ---------------------

    Doubly Occupied:

       1A   -104.856318     2A   -104.856317     3A   -104.855908
       4A    -11.436737     5A    -11.263453     6A    -11.235539
       7A    -10.580682     8A    -10.580674     9A    -10.580218
      10A     -8.047391    11A     -8.047391    12A     -8.046921
      13A     -8.045379    14A     -8.045379    15A     -8.045357
      16A     -8.045356    17A     -8.044906    18A     -8.044883
      19A     -1.242142    20A     -1.102817    21A     -1.102294
      22A     -1.066916    23A     -0.919622    24A     -0.784605
      25A     -0.671014    26A     -0.658068    27A     -0.624624
      28A     -0.592403    29A     -0.549359    30A     -0.534910
      31A     -0.511953    32A     -0.493700    33A     -0.488325
      34A     -0.468652    35A     -0.453232    36A     -0.452531
      37A     -0.441506

  @DF-RHF Final Energy: -1495.09875877193031

   => Energetics <=

    Nuclear Repulsion Energy =            457.4049529526355400
    One-Electron Energy =               -2973.3724558535859614
    Two-Electron Energy =                1020.8687441290200013
    Total Energy =                      -1495.0987587719305338
  Basis Set: (AUG-CC-PVTZ AUX)
    Blend: AUG-CC-PVTZ-RI
    Molecular point group: c1

    Geometry (in Angstrom), charge = 0, multiplicity = 1:

       Center              X                  Y                   Z               Mass
    ------------   -----------------  -----------------  -----------------  -----------------
         CL           1.692364203305    -0.000007136663     0.839500629390    34.968852682000
         CL          -0.125266796695     1.450873863337    -0.886450370610    34.968852682000
         CL          -0.125275796695    -1.450866136663    -0.886459370610    34.968852682000
         C           -0.969099796695    -0.000001136663     1.255881629390    12.000000000000
         C            0.023616903305    -0.000000136663     0.165471429390    12.000000000000
         C           -2.424391796695    -0.000000136663     0.806645629390    12.000000000000
         H           -0.757568796695    -0.882281136663     1.867841629390     1.007825032230
         H           -0.757567796695     0.882277863337     1.867843629390     1.007825032230
         H           -2.660115796695    -0.887107136663     0.216111629390     1.007825032230
         H           -3.067492796695    -0.000002136663     1.690506629390     1.007825032230
         H           -2.660115796695     0.887108863337     0.216115629390     1.007825032230

  Basis Set: AUG-CC-PVTZ
    Blend: AUG-CC-PVTZ
  Basis Set: (AUG-CC-PVTZ AUX)
    Blend: AUG-CC-PVTZ-JKFIT
	 Reference Energy          =   -1495.0987587719303065 [Eh]
	 Singles Energy            =      -0.0000000000000000 [Eh]
	 Same-Spin Energy          =      -0.3178666677789659 [Eh]
	 Opposite-Spin Energy      =      -0.9707173920741271 [Eh]
	 Correlation Energy        =      -1.2885840598530929 [Eh]
	 Total Energy              =   -1496.3873428317833714 [Eh]

	 ================> DF-SCS-MP2 Energies <==================
	-----------------------------------------------------------
	 SCS Same-Spin Scale       =       0.3333333333333333 [-]
	 SCS Opposite-Spin Scale   =       1.2000000000000000 [-]
	 SCS Same-Spin Energy      =      -0.1059555559263220 [Eh]
	 SCS Opposite-Spin Energy  =      -1.1648608704889525 [Eh]
	 SCS Correlation Energy    =      -1.2708164264152744 [Eh]
	 SCS Total Energy          =   -1496.3695751983455011 [Eh]
	-----------------------------------------------------------

  Dipole Moment: [D]
     X:    -1.5605      Y:    -0.0000      Z:     1.3673     Total:     2.0747

*** Psi4 exiting successfully. Buy a developer a beer!
