                               Psi4 1.3.2 release

  ==> Input File <==

--------------------------------------------------------------------------
#psi4
#
memory 32 gb

molecule  {
0 1
 Cl        1.7654610    -0.0000070     0.7971140
 Cl       -0.0521700     1.4508740    -0.9288370
 Cl       -0.0521790    -1.4508660    -0.9288460
  C       -0.8960030    -0.0000010     1.2134950
  C        0.1105421     0.0000000     0.0683710
  C       -2.3512950     0.0000000     0.7642590
  H       -0.6844720    -0.8822810     1.8254550
  H       -0.6844710     0.8822780     1.8254570
  H       -2.5870190    -0.8871070     0.1737250
  H       -2.9943960    -0.0000020     1.6481200
  H       -2.5870190     0.8871090     0.1737290
units angstrom
no_reorient  #important for SAPT in psi4, default
symmetry c1  #important for SAPT in psi4, default
}

set PROPERTIES_ORIGIN ["COM"]
properties('MP2/aug-cc-pvtz', properties = ['dipole'])
--------------------------------------------------------------------------

    Molecular point group: c1
  Charge       = 0
  Multiplicity = 1
  Basis Set: AUG-CC-PVTZ
    Blend: AUG-CC-PVTZ
  Basis Set: (AUG-CC-PVTZ AUX)
    Blend: AUG-CC-PVTZ-JKFIT

    Orbital Energies [Eh]
    ---------------------

    Doubly Occupied:

       1A   -104.859129     2A   -104.859128     3A   -104.852601
       4A    -11.434251     5A    -11.264526     6A    -11.233592
       7A    -10.583863     8A    -10.583854     9A    -10.576918
      10A     -8.050635    11A     -8.050635    12A     -8.048555
      13A     -8.048555    14A     -8.048524    15A     -8.048523
      16A     -8.043607    17A     -8.041622    18A     -8.041596
      19A     -1.244305    20A     -1.110652    21A     -1.101618
      22A     -1.060194    23A     -0.909968    24A     -0.787040
      25A     -0.667513    26A     -0.653952    27A     -0.624478
      28A     -0.597567    29A     -0.549341    30A     -0.535596
      31A     -0.512316    32A     -0.496408    33A     -0.487864
      34A     -0.458975    35A     -0.457844    36A     -0.453150
      37A     -0.442505

  @DF-RHF Final Energy: -1495.10024778762090

   => Energetics <=

    Nuclear Repulsion Energy =            457.6904336934588287
    One-Electron Energy =               -2973.9385649292780727
    Two-Electron Energy =                1021.1478834481981721
    Total Energy =                      -1495.1002477876209014
  Basis Set: (AUG-CC-PVTZ AUX)
    Blend: AUG-CC-PVTZ-RI
    Molecular point group: c1

    Geometry (in Angstrom), charge = 0, multiplicity = 1:

       Center              X                  Y                   Z               Mass
    ------------   -----------------  -----------------  -----------------  -----------------
         CL           1.691227199480    -0.000007136663     0.843999327711    34.968852682000
         CL          -0.126403800520     1.450873863337    -0.881951672289    34.968852682000
         CL          -0.126412800520    -1.450866136663    -0.881960672289    34.968852682000
         C           -0.970236800520    -0.000001136663     1.260380327711    12.000000000000
         C            0.036308299480    -0.000000136663     0.115256327711    12.000000000000
         C           -2.425528800520    -0.000000136663     0.811144327711    12.000000000000
         H           -0.758705800520    -0.882281136663     1.872340327711     1.007825032230
         H           -0.758704800520     0.882277863337     1.872342327711     1.007825032230
         H           -2.661252800520    -0.887107136663     0.220610327711     1.007825032230
         H           -3.068629800520    -0.000002136663     1.695005327711     1.007825032230
         H           -2.661252800520     0.887108863337     0.220614327711     1.007825032230

  Basis Set: AUG-CC-PVTZ
    Blend: AUG-CC-PVTZ
  Basis Set: (AUG-CC-PVTZ AUX)
    Blend: AUG-CC-PVTZ-JKFIT
	 Reference Energy          =   -1495.1002477876209014 [Eh]
	 Singles Energy            =      -0.0000000000000000 [Eh]
	 Same-Spin Energy          =      -0.3177040882807911 [Eh]
	 Opposite-Spin Energy      =      -0.9702564820855903 [Eh]
	 Correlation Energy        =      -1.2879605703663815 [Eh]
	 Total Energy              =   -1496.3882083579871960 [Eh]

	 ================> DF-SCS-MP2 Energies <==================
	-----------------------------------------------------------
	 SCS Same-Spin Scale       =       0.3333333333333333 [-]
	 SCS Opposite-Spin Scale   =       1.2000000000000000 [-]
	 SCS Same-Spin Energy      =      -0.1059013627602637 [Eh]
	 SCS Opposite-Spin Energy  =      -1.1643077785027083 [Eh]
	 SCS Correlation Energy    =      -1.2702091412629719 [Eh]
	 SCS Total Energy          =   -1496.3704569288838684 [Eh]
	-----------------------------------------------------------

  Dipole Moment: [D]
     X:    -1.5771      Y:    -0.0000      Z:     1.1773     Total:     1.9681

*** Psi4 exiting successfully. Buy a developer a beer!
