                               Psi4 1.3.2 release

  ==> Input File <==

--------------------------------------------------------------------------
#psi4
#
memory 32 gb

molecule  {
0 1
 Cl        1.7892786    -0.0000069     0.7396172
 Cl       -0.0521700     1.4508740    -0.9288370
 Cl       -0.0521790    -1.4508660    -0.9288460
  C       -0.8960030    -0.0000010     1.2134950
  C        0.1303740     0.0000000     0.0861120
  C       -2.3512950     0.0000000     0.7642590
  H       -0.6844720    -0.8822810     1.8254550
  H       -0.6844710     0.8822780     1.8254570
  H       -2.5870190    -0.8871070     0.1737250
  H       -2.9943960    -0.0000020     1.6481200
  H       -2.5870190     0.8871090     0.1737290
units angstrom
no_reorient  #important for SAPT in psi4, default
symmetry c1  #important for SAPT in psi4, default
}

set PROPERTIES_ORIGIN ["COM"]
properties('MP2/aug-cc-pvtz', properties = ['dipole'])
--------------------------------------------------------------------------

    Molecular point group: c1
  Charge       = 0
  Multiplicity = 1
  Basis Set: AUG-CC-PVTZ
    Blend: AUG-CC-PVTZ
  Basis Set: (AUG-CC-PVTZ AUX)
    Blend: AUG-CC-PVTZ-JKFIT

    Orbital Energies [Eh]
    ---------------------

    Doubly Occupied:

       1A   -104.856387     2A   -104.856306     3A   -104.856306
       4A    -11.434287     5A    -11.265508     6A    -11.234447
       7A    -10.580999     8A    -10.580991     9A    -10.580926
      10A     -8.047743    11A     -8.047743    12A     -8.047664
      13A     -8.045696    14A     -8.045696    15A     -8.045668
      16A     -8.045667    17A     -8.045612    18A     -8.045585
      19A     -1.244153    20A     -1.106442    21A     -1.104571
      22A     -1.060581    23A     -0.911443    24A     -0.786215
      25A     -0.666692    26A     -0.655538    27A     -0.623873
      28A     -0.597201    29A     -0.551100    30A     -0.534039
      31A     -0.512268    32A     -0.495440    33A     -0.489624
      34A     -0.461283    35A     -0.455063    36A     -0.453251
      37A     -0.441469

  @DF-RHF Final Energy: -1495.10055783888151

   => Energetics <=

    Nuclear Repulsion Energy =            457.9009986922688995
    One-Electron Energy =               -2974.3761611451268436
    Two-Electron Energy =                1021.3746046139765440
    Total Energy =                      -1495.1005578388815138
  Basis Set: (AUG-CC-PVTZ AUX)
    Blend: AUG-CC-PVTZ-RI
    Molecular point group: c1

    Geometry (in Angstrom), charge = 0, multiplicity = 1:

       Center              X                  Y                   Z               Mass
    ------------   -----------------  -----------------  -----------------  -----------------
         CL           1.707707433125    -0.000007060623     0.798820159102    34.968852682000
         CL          -0.133741166875     1.450873839377    -0.869634040898    34.968852682000
         CL          -0.133750166875    -1.450866160623    -0.869643040898    34.968852682000
         C           -0.977574166875    -0.000001160623     1.272697959102    12.000000000000
         C            0.048802833125    -0.000000160623     0.145314959102    12.000000000000
         C           -2.432866166875    -0.000000160623     0.823461959102    12.000000000000
         H           -0.766043166875    -0.882281160623     1.884657959102     1.007825032230
         H           -0.766042166875     0.882277839377     1.884659959102     1.007825032230
         H           -2.668590166875    -0.887107160623     0.232927959102     1.007825032230
         H           -3.075967166875    -0.000002160623     1.707322959102     1.007825032230
         H           -2.668590166875     0.887108839377     0.232931959102     1.007825032230

  Basis Set: AUG-CC-PVTZ
    Blend: AUG-CC-PVTZ
  Basis Set: (AUG-CC-PVTZ AUX)
    Blend: AUG-CC-PVTZ-JKFIT
	 Reference Energy          =   -1495.1005578388815138 [Eh]
	 Singles Energy            =      -0.0000000000000000 [Eh]
	 Same-Spin Energy          =      -0.3176717695537442 [Eh]
	 Opposite-Spin Energy      =      -0.9701278773000263 [Eh]
	 Correlation Energy        =      -1.2877996468537705 [Eh]
	 Total Energy              =   -1496.3883574857352414 [Eh]

	 ================> DF-SCS-MP2 Energies <==================
	-----------------------------------------------------------
	 SCS Same-Spin Scale       =       0.3333333333333333 [-]
	 SCS Opposite-Spin Scale   =       1.2000000000000000 [-]
	 SCS Same-Spin Energy      =      -0.1058905898512481 [Eh]
	 SCS Opposite-Spin Energy  =      -1.1641534527600315 [Eh]
	 SCS Correlation Energy    =      -1.2700440426112796 [Eh]
	 SCS Total Energy          =   -1496.3706018814928029 [Eh]
	-----------------------------------------------------------

  Dipole Moment: [D]
     X:    -1.4846      Y:    -0.0000      Z:     1.3123     Total:     1.9814

*** Psi4 exiting successfully. Buy a developer a beer!
