                               Psi4 1.3.2 release

  ==> Input File <==

--------------------------------------------------------------------------
#psi4
#
memory 32 gb

molecule  {
0 1
 Cl        1.8110750    -0.0000067     0.6813241
 Cl       -0.0521700     1.4508740    -0.9288370
 Cl       -0.0521790    -1.4508660    -0.9288460
  C       -0.8960030    -0.0000010     1.2134950
  C        0.1303740     0.0000000     0.0861120
  C       -2.3512950     0.0000000     0.7642590
  H       -0.6844720    -0.8822810     1.8254550
  H       -0.6844710     0.8822780     1.8254570
  H       -2.5870190    -0.8871070     0.1737250
  H       -2.9943960    -0.0000020     1.6481200
  H       -2.5870190     0.8871090     0.1737290
units angstrom
no_reorient  #important for SAPT in psi4, default
symmetry c1  #important for SAPT in psi4, default
}

set PROPERTIES_ORIGIN ["COM"]
properties('MP2/aug-cc-pvtz', properties = ['dipole'])
--------------------------------------------------------------------------

    Molecular point group: c1
  Charge       = 0
  Multiplicity = 1
  Basis Set: AUG-CC-PVTZ
    Blend: AUG-CC-PVTZ
  Basis Set: (AUG-CC-PVTZ AUX)
    Blend: AUG-CC-PVTZ-JKFIT

    Orbital Energies [Eh]
    ---------------------

    Doubly Occupied:

       1A   -104.856190     2A   -104.855398     3A   -104.855398
       4A    -11.434391     5A    -11.266506     6A    -11.235255
       7A    -10.580739     8A    -10.580171     9A    -10.580162
      10A     -8.047474    11A     -8.046911    12A     -8.046911
      13A     -8.045415    14A     -8.045391    15A     -8.044865
      16A     -8.044865    17A     -8.044838    18A     -8.044837
      19A     -1.244420    20A     -1.106090    21A     -1.103332
      22A     -1.061374    23A     -0.912142    24A     -0.786202
      25A     -0.666706    26A     -0.656582    27A     -0.622821
      28A     -0.597783    29A     -0.551497    30A     -0.534056
      31A     -0.513024    32A     -0.495954    33A     -0.489716
      34A     -0.462694    35A     -0.454141    36A     -0.451320
      37A     -0.440003

  @DF-RHF Final Energy: -1495.09988390586818

   => Energetics <=

    Nuclear Repulsion Energy =            458.1993249919312916
    One-Electron Energy =               -2974.9872665947559653
    Two-Electron Energy =                1021.6880576969562071
    Total Energy =                      -1495.0998839058684098
  Basis Set: (AUG-CC-PVTZ AUX)
    Blend: AUG-CC-PVTZ-RI
    Molecular point group: c1

    Geometry (in Angstrom), charge = 0, multiplicity = 1:

       Center              X                  Y                   Z               Mass
    ------------   -----------------  -----------------  -----------------  -----------------
         CL           1.724281375812    -0.000006908544     0.754494192501    34.968852682000
         CL          -0.138963624188     1.450873791456    -0.855666907499    34.968852682000
         CL          -0.138972624188    -1.450866208544    -0.855675907499    34.968852682000
         C           -0.982796624188    -0.000001208544     1.286665092501    12.000000000000
         C            0.043580375812    -0.000000208544     0.159282092501    12.000000000000
         C           -2.438088624188    -0.000000208544     0.837429092501    12.000000000000
         H           -0.771265624188    -0.882281208544     1.898625092501     1.007825032230
         H           -0.771264624188     0.882277791456     1.898627092501     1.007825032230
         H           -2.673812624188    -0.887107208544     0.246895092501     1.007825032230
         H           -3.081189624188    -0.000002208544     1.721290092501     1.007825032230
         H           -2.673812624188     0.887108791456     0.246899092501     1.007825032230

  Basis Set: AUG-CC-PVTZ
    Blend: AUG-CC-PVTZ
  Basis Set: (AUG-CC-PVTZ AUX)
    Blend: AUG-CC-PVTZ-JKFIT
	 Reference Energy          =   -1495.0998839058681824 [Eh]
	 Singles Energy            =      -0.0000000000000000 [Eh]
	 Same-Spin Energy          =      -0.3176954995775185 [Eh]
	 Opposite-Spin Energy      =      -0.9701020600354489 [Eh]
	 Correlation Energy        =      -1.2877975596129674 [Eh]
	 Total Energy              =   -1496.3876814654811369 [Eh]

	 ================> DF-SCS-MP2 Energies <==================
	-----------------------------------------------------------
	 SCS Same-Spin Scale       =       0.3333333333333333 [-]
	 SCS Opposite-Spin Scale   =       1.2000000000000000 [-]
	 SCS Same-Spin Energy      =      -0.1058984998591728 [Eh]
	 SCS Opposite-Spin Energy  =      -1.1641224720425385 [Eh]
	 SCS Correlation Energy    =      -1.2700209719017113 [Eh]
	 SCS Total Energy          =   -1496.3699048777698408 [Eh]
	-----------------------------------------------------------

  Dipole Moment: [D]
     X:    -1.4995      Y:    -0.0000      Z:     1.3481     Total:     2.0164

*** Psi4 exiting successfully. Buy a developer a beer!
