                               Psi4 1.3.2 release

  ==> Input File <==

--------------------------------------------------------------------------
#psi4
#
memory 32 gb

molecule  {
0 1
 Cl        1.7654610    -0.0000070     0.7971140
 Cl       -0.0521700     1.4508740    -0.9288370
 Cl       -0.0521790    -1.4508660    -0.9288460
  C       -0.8960030    -0.0000010     1.2134950
  C        0.0069078     0.0000002    -0.0149977
  C       -2.3512950     0.0000000     0.7642590
  H       -0.6844720    -0.8822810     1.8254550
  H       -0.6844710     0.8822780     1.8254570
  H       -2.5870190    -0.8871070     0.1737250
  H       -2.9943960    -0.0000020     1.6481200
  H       -2.5870190     0.8871090     0.1737290
units angstrom
no_reorient  #important for SAPT in psi4, default
symmetry c1  #important for SAPT in psi4, default
}

set PROPERTIES_ORIGIN ["COM"]
properties('MP2/aug-cc-pvtz', properties = ['dipole'])
--------------------------------------------------------------------------

    Molecular point group: c1
  Charge       = 0
  Multiplicity = 1
  Basis Set: AUG-CC-PVTZ
    Blend: AUG-CC-PVTZ
  Basis Set: (AUG-CC-PVTZ AUX)
    Blend: AUG-CC-PVTZ-JKFIT

    Orbital Energies [Eh]
    ---------------------

    Doubly Occupied:

       1A   -104.868982     2A   -104.868981     3A   -104.830204
       4A    -11.437790     5A    -11.266150     6A    -11.234528
       7A    -10.594287     8A    -10.594277     9A    -10.554052
      10A     -8.061171    11A     -8.061171    12A     -8.058929
      13A     -8.058928    14A     -8.058879    15A     -8.058878
      16A     -8.020542    17A     -8.018814    18A     -8.018800
      19A     -1.253020    20A     -1.129983    21A     -1.079912
      22A     -1.060831    23A     -0.907169    24A     -0.792978
      25A     -0.673859    26A     -0.658363    27A     -0.620942
      28A     -0.604624    29A     -0.544840    30A     -0.542962
      31A     -0.519433    32A     -0.500960    33A     -0.486342
      34A     -0.468318    35A     -0.444662    36A     -0.439098
      37A     -0.434892

  @DF-RHF Final Energy: -1495.08770764960445

   => Energetics <=

    Nuclear Repulsion Energy =            457.8353544211386179
    One-Electron Energy =               -2974.1890156994159042
    Two-Electron Energy =                1021.2659536286728326
    Total Energy =                      -1495.0877076496044538
  Basis Set: (AUG-CC-PVTZ AUX)
    Blend: AUG-CC-PVTZ-RI
    Molecular point group: c1

    Geometry (in Angstrom), charge = 0, multiplicity = 1:

       Center              X                  Y                   Z               Mass
    ------------   -----------------  -----------------  -----------------  -----------------
         CL           1.699748257265    -0.000007153107     0.850854099829    34.968852682000
         CL          -0.117882742735     1.450873846893    -0.875096900171    34.968852682000
         CL          -0.117891742735    -1.450866153107    -0.875105900171    34.968852682000
         C           -0.961715742735    -0.000001153107     1.267235099829    12.000000000000
         C           -0.058804942735     0.000000046893     0.038742399829    12.000000000000
         C           -2.417007742735    -0.000000153107     0.817999099829    12.000000000000
         H           -0.750184742735    -0.882281153107     1.879195099829     1.007825032230
         H           -0.750183742735     0.882277846893     1.879197099829     1.007825032230
         H           -2.652731742735    -0.887107153107     0.227465099829     1.007825032230
         H           -3.060108742735    -0.000002153107     1.701860099829     1.007825032230
         H           -2.652731742735     0.887108846893     0.227469099829     1.007825032230

  Basis Set: AUG-CC-PVTZ
    Blend: AUG-CC-PVTZ
  Basis Set: (AUG-CC-PVTZ AUX)
    Blend: AUG-CC-PVTZ-JKFIT
	 Reference Energy          =   -1495.0877076496044538 [Eh]
	 Singles Energy            =      -0.0000000000000000 [Eh]
	 Same-Spin Energy          =      -0.3184586740502375 [Eh]
	 Opposite-Spin Energy      =      -0.9713312248395150 [Eh]
	 Correlation Energy        =      -1.2897898988897525 [Eh]
	 Total Energy              =   -1496.3774975484941478 [Eh]

	 ================> DF-SCS-MP2 Energies <==================
	-----------------------------------------------------------
	 SCS Same-Spin Scale       =       0.3333333333333333 [-]
	 SCS Opposite-Spin Scale   =       1.2000000000000000 [-]
	 SCS Same-Spin Energy      =      -0.1061528913500792 [Eh]
	 SCS Opposite-Spin Energy  =      -1.1655974698074179 [Eh]
	 SCS Correlation Energy    =      -1.2717503611574970 [Eh]
	 SCS Total Energy          =   -1496.3594580107619549 [Eh]
	-----------------------------------------------------------

  Dipole Moment: [D]
     X:    -2.1379      Y:    -0.0000      Z:     0.6969     Total:     2.2486

*** Psi4 exiting successfully. Buy a developer a beer!
