                               Psi4 1.3.2 release

  ==> Input File <==

--------------------------------------------------------------------------
#psi4
#
memory 32 gb

molecule  {
0 1
 Cl        1.7654610    -0.0000070     0.7971140
 Cl       -0.0521700     1.4508740    -0.9288370
 Cl       -0.0521790    -1.4508660    -0.9288460
  C       -0.8960030    -0.0000010     1.2134950
  C        0.1084404     0.0447296     0.0673996
  C       -2.3512950     0.0000000     0.7642590
  H       -0.6844720    -0.8822810     1.8254550
  H       -0.6844710     0.8822780     1.8254570
  H       -2.5870190    -0.8871070     0.1737250
  H       -2.9943960    -0.0000020     1.6481200
  H       -2.5870190     0.8871090     0.1737290
units angstrom
no_reorient  #important for SAPT in psi4, default
symmetry c1  #important for SAPT in psi4, default
}

set PROPERTIES_ORIGIN ["COM"]
properties('MP2/aug-cc-pvtz', properties = ['dipole'])
--------------------------------------------------------------------------

    Molecular point group: c1
  Charge       = 0
  Multiplicity = 1
  Basis Set: AUG-CC-PVTZ
    Blend: AUG-CC-PVTZ
  Basis Set: (AUG-CC-PVTZ AUX)
    Blend: AUG-CC-PVTZ-JKFIT

    Orbital Energies [Eh]
    ---------------------

    Doubly Occupied:

       1A   -104.864707     2A   -104.853603     3A   -104.852291
       4A    -11.434526     5A    -11.264681     6A    -11.233636
       7A    -10.589910     8A    -10.577978     9A    -10.576577
      10A     -8.056769    11A     -8.054583    12A     -8.054544
      13A     -8.044682    14A     -8.043261    15A     -8.042692
      16A     -8.042666    17A     -8.041281    18A     -8.041256
      19A     -1.245517    20A     -1.113467    21A     -1.098237
      22A     -1.060165    23A     -0.910001    24A     -0.787376
      25A     -0.667628    26A     -0.654387    27A     -0.625319
      28A     -0.597290    29A     -0.549532    30A     -0.535905
      31A     -0.512886    32A     -0.497195    33A     -0.486205
      34A     -0.459265    35A     -0.457791    36A     -0.452322
      37A     -0.441602

  @DF-RHF Final Energy: -1495.09894713336371

   => Energetics <=

    Nuclear Repulsion Energy =            457.6940079139106956
    One-Electron Energy =               -2973.9424428213369538
    Two-Electron Energy =                1021.1494877740625498
    Total Energy =                      -1495.0989471333637084
  Basis Set: (AUG-CC-PVTZ AUX)
    Blend: AUG-CC-PVTZ-RI
    Molecular point group: c1

    Geometry (in Angstrom), charge = 0, multiplicity = 1:

       Center              X                  Y                   Z               Mass
    ------------   -----------------  -----------------  -----------------  -----------------
         CL           1.691400006236    -0.003684910395     0.844079198521    34.968852682000
         CL          -0.126230993764     1.447196089605    -0.881871801479    34.968852682000
         CL          -0.126239993764    -1.454543910395    -0.881880801479    34.968852682000
         C           -0.970063993764    -0.003678910395     1.260460198521    12.000000000000
         C            0.034379406236     0.041051689605     0.114364798521    12.000000000000
         C           -2.425355993764    -0.003677910395     0.811224198521    12.000000000000
         H           -0.758532993764    -0.885958910395     1.872420198521     1.007825032230
         H           -0.758531993764     0.878600089605     1.872422198521     1.007825032230
         H           -2.661079993764    -0.890784910395     0.220690198521     1.007825032230
         H           -3.068456993764    -0.003679910395     1.695085198521     1.007825032230
         H           -2.661079993764     0.883431089605     0.220694198521     1.007825032230

  Basis Set: AUG-CC-PVTZ
    Blend: AUG-CC-PVTZ
  Basis Set: (AUG-CC-PVTZ AUX)
    Blend: AUG-CC-PVTZ-JKFIT
	 Reference Energy          =   -1495.0989471333637084 [Eh]
	 Singles Energy            =      -0.0000000000000000 [Eh]
	 Same-Spin Energy          =      -0.3177825560453663 [Eh]
	 Opposite-Spin Energy      =      -0.9703634112333370 [Eh]
	 Correlation Energy        =      -1.2881459672787032 [Eh]
	 Total Energy              =   -1496.3870931006424598 [Eh]

	 ================> DF-SCS-MP2 Energies <==================
	-----------------------------------------------------------
	 SCS Same-Spin Scale       =       0.3333333333333333 [-]
	 SCS Opposite-Spin Scale   =       1.2000000000000000 [-]
	 SCS Same-Spin Energy      =      -0.1059275186817887 [Eh]
	 SCS Opposite-Spin Energy  =      -1.1644360934800044 [Eh]
	 SCS Correlation Energy    =      -1.2703636121617932 [Eh]
	 SCS Total Energy          =   -1496.3693107455255813 [Eh]
	-----------------------------------------------------------

  Dipole Moment: [D]
     X:    -1.5889      Y:     0.2552      Z:     1.1692     Total:     1.9892

*** Psi4 exiting successfully. Buy a developer a beer!
