                               Psi4 1.3.2 release

  ==> Input File <==

--------------------------------------------------------------------------
#psi4
#
memory 32 gb

molecule  {
0 1
 Cl        1.7654610    -0.0000070     0.7971140
 Cl       -0.0521700     1.4508740    -0.9288370
 Cl       -0.0521790    -1.4508660    -0.9288460
  C       -0.8960030    -0.0000010     1.2134950
  C       -0.0042671    -0.0000001     0.2340031
  C       -2.3512950     0.0000000     0.7642590
  H       -0.6844720    -0.8822810     1.8254550
  H       -0.6844710     0.8822780     1.8254570
  H       -2.5870190    -0.8871070     0.1737250
  H       -2.9943960    -0.0000020     1.6481200
  H       -2.5870190     0.8871090     0.1737290
units angstrom
no_reorient  #important for SAPT in psi4, default
symmetry c1  #important for SAPT in psi4, default
}

set PROPERTIES_ORIGIN ["COM"]
properties('MP2/aug-cc-pvtz', properties = ['dipole'])
--------------------------------------------------------------------------

    Molecular point group: c1
  Charge       = 0
  Multiplicity = 1
  Basis Set: AUG-CC-PVTZ
    Blend: AUG-CC-PVTZ
  Basis Set: (AUG-CC-PVTZ AUX)
    Blend: AUG-CC-PVTZ-JKFIT

    Orbital Energies [Eh]
    ---------------------

    Doubly Occupied:

       1A   -104.852491     2A   -104.851996     3A   -104.851996
       4A    -11.443445     5A    -11.260512     6A    -11.244282
       7A    -10.576108     8A    -10.575635     9A    -10.575626
      10A     -8.042701    11A     -8.042231    12A     -8.042230
      13A     -8.040769    14A     -8.040765    15A     -8.040315
      16A     -8.040314    17A     -8.040305    18A     -8.040303
      19A     -1.243407    20A     -1.093712    21A     -1.089450
      22A     -1.088919    23A     -0.946775    24A     -0.780221
      25A     -0.689563    26A     -0.670662    27A     -0.628455
      28A     -0.581750    29A     -0.551381    30A     -0.531686
      31A     -0.512029    32A     -0.488171    33A     -0.486887
      34A     -0.480530    35A     -0.443393    36A     -0.443039
      37A     -0.436035

  @DF-RHF Final Energy: -1495.06275691063365

   => Energetics <=

    Nuclear Repulsion Energy =            456.6567848629246669
    One-Electron Energy =               -2971.8629002915040473
    Two-Electron Energy =                1020.1433585179456713
    Total Energy =                      -1495.0627569106336523
  Basis Set: (AUG-CC-PVTZ AUX)
    Blend: AUG-CC-PVTZ-RI
    Molecular point group: c1

    Geometry (in Angstrom), charge = 0, multiplicity = 1:

       Center              X                  Y                   Z               Mass
    ------------   -----------------  -----------------  -----------------  -----------------
         CL           1.700667084030    -0.000007128441     0.830380663861    34.968852682000
         CL          -0.116963915970     1.450873871559    -0.895570336139    34.968852682000
         CL          -0.116972915970    -1.450866128441    -0.895579336139    34.968852682000
         C           -0.960796915970    -0.000001128441     1.246761663861    12.000000000000
         C           -0.069061015970    -0.000000228441     0.267269763861    12.000000000000
         C           -2.416088915970    -0.000000128441     0.797525663861    12.000000000000
         H           -0.749265915970    -0.882281128441     1.858721663861     1.007825032230
         H           -0.749264915970     0.882277871559     1.858723663861     1.007825032230
         H           -2.651812915970    -0.887107128441     0.206991663861     1.007825032230
         H           -3.059189915970    -0.000002128441     1.681386663861     1.007825032230
         H           -2.651812915970     0.887108871559     0.206995663861     1.007825032230

  Basis Set: AUG-CC-PVTZ
    Blend: AUG-CC-PVTZ
  Basis Set: (AUG-CC-PVTZ AUX)
    Blend: AUG-CC-PVTZ-JKFIT
	 Reference Energy          =   -1495.0627569106336523 [Eh]
	 Singles Energy            =      -0.0000000000000000 [Eh]
	 Same-Spin Energy          =      -0.3197633665503136 [Eh]
	 Opposite-Spin Energy      =      -0.9743457242278624 [Eh]
	 Correlation Energy        =      -1.2941090907781758 [Eh]
	 Total Energy              =   -1496.3568660014118450 [Eh]

	 ================> DF-SCS-MP2 Energies <==================
	-----------------------------------------------------------
	 SCS Same-Spin Scale       =       0.3333333333333333 [-]
	 SCS Opposite-Spin Scale   =       1.2000000000000000 [-]
	 SCS Same-Spin Energy      =      -0.1065877888501045 [Eh]
	 SCS Opposite-Spin Energy  =      -1.1692148690734347 [Eh]
	 SCS Correlation Energy    =      -1.2758026579235393 [Eh]
	 SCS Total Energy          =   -1496.3385595685572298 [Eh]
	-----------------------------------------------------------

  Dipole Moment: [D]
     X:    -1.9788      Y:    -0.0000      Z:     1.7681     Total:     2.6536

*** Psi4 exiting successfully. Buy a developer a beer!
