                               Psi4 1.3.2 release

  ==> Input File <==

--------------------------------------------------------------------------
#psi4
#
memory 32 gb

molecule  {
0 1
 Cl        1.7654610    -0.0000070     0.7971140
 Cl       -0.0521700     1.4508740    -0.9288370
 Cl       -0.0521790    -1.4508660    -0.9288460
  C       -0.8960030    -0.0000010     1.2134950
  C        0.2425950    -0.0000002     0.1995735
  C       -2.3512950     0.0000000     0.7642590
  H       -0.6844720    -0.8822810     1.8254550
  H       -0.6844710     0.8822780     1.8254570
  H       -2.5870190    -0.8871070     0.1737250
  H       -2.9943960    -0.0000020     1.6481200
  H       -2.5870190     0.8871090     0.1737290
units angstrom
no_reorient  #important for SAPT in psi4, default
symmetry c1  #important for SAPT in psi4, default
}

set PROPERTIES_ORIGIN ["COM"]
properties('MP2/aug-cc-pvtz', properties = ['dipole'])
--------------------------------------------------------------------------

    Molecular point group: c1
  Charge       = 0
  Multiplicity = 1
  Basis Set: AUG-CC-PVTZ
    Blend: AUG-CC-PVTZ
  Basis Set: (AUG-CC-PVTZ AUX)
    Blend: AUG-CC-PVTZ-JKFIT

    Orbital Energies [Eh]
    ---------------------

    Doubly Occupied:

       1A   -104.878175     2A   -104.844815     3A   -104.844815
       4A    -11.437319     5A    -11.266526     6A    -11.234670
       7A    -10.605129     8A    -10.568818     9A    -10.568810
      10A     -8.072241    11A     -8.069692    12A     -8.069625
      13A     -8.035415    14A     -8.035414    15A     -8.033546
      16A     -8.033546    17A     -8.033527    18A     -8.033526
      19A     -1.259574    20A     -1.121970    21A     -1.083822
      22A     -1.056808    23A     -0.916363    24A     -0.785665
      25A     -0.665322    26A     -0.665207    27A     -0.627675
      28A     -0.596168    29A     -0.560936    30A     -0.525382
      31A     -0.512766    32A     -0.501351    33A     -0.479835
      34A     -0.460432    35A     -0.453914    36A     -0.447880
      37A     -0.434805

  @DF-RHF Final Energy: -1495.08425008038876

   => Energetics <=

    Nuclear Repulsion Energy =            457.4642830077107760
    One-Electron Energy =               -2973.4541071872877183
    Two-Electron Energy =                1020.9055740991881294
    Total Energy =                      -1495.0842500803887560
  Basis Set: (AUG-CC-PVTZ AUX)
    Blend: AUG-CC-PVTZ-RI
    Molecular point group: c1

    Geometry (in Angstrom), charge = 0, multiplicity = 1:

       Center              X                  Y                   Z               Mass
    ------------   -----------------  -----------------  -----------------  -----------------
         CL           1.680369497045    -0.000007120219     0.833211547179    34.968852682000
         CL          -0.137261502955     1.450873879781    -0.892739452821    34.968852682000
         CL          -0.137270502955    -1.450866120219    -0.892748452821    34.968852682000
         C           -0.981094502955    -0.000001120219     1.249592547179    12.000000000000
         C            0.157503497045    -0.000000320219     0.235671047179    12.000000000000
         C           -2.436386502955    -0.000000120219     0.800356547179    12.000000000000
         H           -0.769563502955    -0.882281120219     1.861552547179     1.007825032230
         H           -0.769562502955     0.882277879781     1.861554547179     1.007825032230
         H           -2.672110502955    -0.887107120219     0.209822547179     1.007825032230
         H           -3.079487502955    -0.000002120219     1.684217547179     1.007825032230
         H           -2.672110502955     0.887108879781     0.209826547179     1.007825032230

  Basis Set: AUG-CC-PVTZ
    Blend: AUG-CC-PVTZ
  Basis Set: (AUG-CC-PVTZ AUX)
    Blend: AUG-CC-PVTZ-JKFIT
	 Reference Energy          =   -1495.0842500803887560 [Eh]
	 Singles Energy            =      -0.0000000000000000 [Eh]
	 Same-Spin Energy          =      -0.3186444348426077 [Eh]
	 Opposite-Spin Energy      =      -0.9714580999593474 [Eh]
	 Correlation Energy        =      -1.2901025348019552 [Eh]
	 Total Energy              =   -1496.3743526151906735 [Eh]

	 ================> DF-SCS-MP2 Energies <==================
	-----------------------------------------------------------
	 SCS Same-Spin Scale       =       0.3333333333333333 [-]
	 SCS Opposite-Spin Scale   =       1.2000000000000000 [-]
	 SCS Same-Spin Energy      =      -0.1062148116142026 [Eh]
	 SCS Opposite-Spin Energy  =      -1.1657497199512168 [Eh]
	 SCS Correlation Energy    =      -1.2719645315654193 [Eh]
	 SCS Total Energy          =   -1496.3562146119541012 [Eh]
	-----------------------------------------------------------

  Dipole Moment: [D]
     X:    -0.8081      Y:    -0.0000      Z:     1.9251     Total:     2.0878

*** Psi4 exiting successfully. Buy a developer a beer!
