                               Psi4 1.3.2 release

  ==> Input File <==

--------------------------------------------------------------------------
#psi4
#
memory 32 gb

molecule  {
0 1
 Cl        1.7654610    -0.0000070     0.7971140
 Cl       -0.0521700     1.4508740    -0.9288370
 Cl       -0.0521790    -1.4508660    -0.9288460
  C       -0.8960030    -0.0000010     1.2134950
  C        0.2065161    -0.0000001     0.1604547
  C       -2.3512950     0.0000000     0.7642590
  H       -0.6844720    -0.8822810     1.8254550
  H       -0.6844710     0.8822780     1.8254570
  H       -2.5870190    -0.8871070     0.1737250
  H       -2.9943960    -0.0000020     1.6481200
  H       -2.5870190     0.8871090     0.1737290
units angstrom
no_reorient  #important for SAPT in psi4, default
symmetry c1  #important for SAPT in psi4, default
}

set PROPERTIES_ORIGIN ["COM"]
properties('MP2/aug-cc-pvtz', properties = ['dipole'])
--------------------------------------------------------------------------

    Molecular point group: c1
  Charge       = 0
  Multiplicity = 1
  Basis Set: AUG-CC-PVTZ
    Blend: AUG-CC-PVTZ
  Basis Set: (AUG-CC-PVTZ AUX)
    Blend: AUG-CC-PVTZ-JKFIT

    Orbital Energies [Eh]
    ---------------------

    Doubly Occupied:

       1A   -104.871121     2A   -104.849222     3A   -104.849221
       4A    -11.435628     5A    -11.265459     6A    -11.234153
       7A    -10.597063     8A    -10.573397     9A    -10.573389
      10A     -8.064035    11A     -8.061685    12A     -8.061633
      13A     -8.040044    14A     -8.040043    15A     -8.038119
      16A     -8.038119    17A     -8.038097    18A     -8.038095
      19A     -1.250489    20A     -1.118802    21A     -1.091488
      22A     -1.057747    23A     -0.914272    24A     -0.784956
      25A     -0.665101    26A     -0.660652    27A     -0.626275
      28A     -0.595162    29A     -0.557449    30A     -0.527851
      31A     -0.511511    32A     -0.497954    33A     -0.485920
      34A     -0.460124    35A     -0.456840    36A     -0.450239
      37A     -0.439167

  @DF-RHF Final Energy: -1495.09365445630897

   => Energetics <=

    Nuclear Repulsion Energy =            457.5167470812919532
    One-Electron Energy =               -2973.5797601077711079
    Two-Electron Energy =                1020.9693585701700158
    Total Energy =                      -1495.0936544563089683
  Basis Set: (AUG-CC-PVTZ AUX)
    Blend: AUG-CC-PVTZ-RI
    Molecular point group: c1

    Geometry (in Angstrom), charge = 0, multiplicity = 1:

       Center              X                  Y                   Z               Mass
    ------------   -----------------  -----------------  -----------------  -----------------
         CL           1.683335989719    -0.000007128441     0.836427987636    34.968852682000
         CL          -0.134295010281     1.450873871559    -0.889523012364    34.968852682000
         CL          -0.134304010281    -1.450866128441    -0.889532012364    34.968852682000
         C           -0.978128010281    -0.000001128441     1.252808987636    12.000000000000
         C            0.124391089719    -0.000000228441     0.199768687636    12.000000000000
         C           -2.433420010281    -0.000000128441     0.803572987636    12.000000000000
         H           -0.766597010281    -0.882281128441     1.864768987636     1.007825032230
         H           -0.766596010281     0.882277871559     1.864770987636     1.007825032230
         H           -2.669144010281    -0.887107128441     0.213038987636     1.007825032230
         H           -3.076521010281    -0.000002128441     1.687433987636     1.007825032230
         H           -2.669144010281     0.887108871559     0.213042987636     1.007825032230

  Basis Set: AUG-CC-PVTZ
    Blend: AUG-CC-PVTZ
  Basis Set: (AUG-CC-PVTZ AUX)
    Blend: AUG-CC-PVTZ-JKFIT
	 Reference Energy          =   -1495.0936544563089683 [Eh]
	 Singles Energy            =      -0.0000000000000000 [Eh]
	 Same-Spin Energy          =      -0.3180944832370138 [Eh]
	 Opposite-Spin Energy      =      -0.9707229819582434 [Eh]
	 Correlation Energy        =      -1.2888174651952573 [Eh]
	 Total Energy              =   -1496.3824719215042478 [Eh]

	 ================> DF-SCS-MP2 Energies <==================
	-----------------------------------------------------------
	 SCS Same-Spin Scale       =       0.3333333333333333 [-]
	 SCS Opposite-Spin Scale   =       1.2000000000000000 [-]
	 SCS Same-Spin Energy      =      -0.1060314944123379 [Eh]
	 SCS Opposite-Spin Energy  =      -1.1648675783498921 [Eh]
	 SCS Correlation Energy    =      -1.2708990727622300 [Eh]
	 SCS Total Energy          =   -1496.3645535290711450 [Eh]
	-----------------------------------------------------------

  Dipole Moment: [D]
     X:    -1.0348      Y:    -0.0000      Z:     1.6953     Total:     1.9862

*** Psi4 exiting successfully. Buy a developer a beer!
