                               Psi4 1.3.2 release

  ==> Input File <==

--------------------------------------------------------------------------
#psi4
#
memory 32 gb

molecule  {
0 1
 Cl        1.7654610    -0.0000070     0.7971140
 Cl       -0.0521700     1.4508740    -0.9288370
 Cl       -0.0521790    -1.4508660    -0.9288460
  C       -0.8960030    -0.0000010     1.2134950
  C        0.1976945     0.0000001     0.0121664
  C       -2.3512950     0.0000000     0.7642590
  H       -0.6844720    -0.8822810     1.8254550
  H       -0.6844710     0.8822780     1.8254570
  H       -2.5870190    -0.8871070     0.1737250
  H       -2.9943960    -0.0000020     1.6481200
  H       -2.5870190     0.8871090     0.1737290
units angstrom
no_reorient  #important for SAPT in psi4, default
symmetry c1  #important for SAPT in psi4, default
}

set PROPERTIES_ORIGIN ["COM"]
properties('MP2/aug-cc-pvtz', properties = ['dipole'])
--------------------------------------------------------------------------

    Molecular point group: c1
  Charge       = 0
  Multiplicity = 1
  Basis Set: AUG-CC-PVTZ
    Blend: AUG-CC-PVTZ
  Basis Set: (AUG-CC-PVTZ AUX)
    Blend: AUG-CC-PVTZ-JKFIT

    Orbital Energies [Eh]
    ---------------------

    Doubly Occupied:

       1A   -104.858588     2A   -104.858588     3A   -104.857405
       4A    -11.429092     5A    -11.266317     6A    -11.230720
       7A    -10.583664     8A    -10.583655     9A    -10.582363
      10A     -8.050487    11A     -8.050487    12A     -8.049171
      13A     -8.048363    14A     -8.048363    15A     -8.048317
      16A     -8.048316    17A     -8.047057    18A     -8.047013
      19A     -1.248660    20A     -1.114144    21A     -1.112352
      22A     -1.048151    23A     -0.893989    24A     -0.789446
      25A     -0.660212    26A     -0.648727    27A     -0.626583
      28A     -0.604756    29A     -0.553497    30A     -0.532388
      31A     -0.510814    32A     -0.496261    33A     -0.491142
      34A     -0.460995    35A     -0.460029    36A     -0.445010
      37A     -0.437458

  @DF-RHF Final Energy: -1495.09361549323557

   => Energetics <=

    Nuclear Repulsion Energy =            458.1037651825474768
    One-Electron Energy =               -2974.7496015132555840
    Two-Electron Energy =                1021.5522208374727597
    Total Energy =                      -1495.0936154932355748
  Basis Set: (AUG-CC-PVTZ AUX)
    Blend: AUG-CC-PVTZ-RI
    Molecular point group: c1

    Geometry (in Angstrom), charge = 0, multiplicity = 1:

       Center              X                  Y                   Z               Mass
    ------------   -----------------  -----------------  -----------------  -----------------
         CL           1.684061322580    -0.000007144885     0.848620603141    34.968852682000
         CL          -0.133569677420     1.450873855115    -0.877330396859    34.968852682000
         CL          -0.133578677420    -1.450866144885    -0.877339396859    34.968852682000
         C           -0.977402677420    -0.000001144885     1.265001603141    12.000000000000
         C            0.116294822580    -0.000000044885     0.063673003141    12.000000000000
         C           -2.432694677420    -0.000000144885     0.815765603141    12.000000000000
         H           -0.765871677420    -0.882281144885     1.876961603141     1.007825032230
         H           -0.765870677420     0.882277855115     1.876963603141     1.007825032230
         H           -2.668418677420    -0.887107144885     0.225231603141     1.007825032230
         H           -3.075795677420    -0.000002144885     1.699626603141     1.007825032230
         H           -2.668418677420     0.887108855115     0.225235603141     1.007825032230

  Basis Set: AUG-CC-PVTZ
    Blend: AUG-CC-PVTZ
  Basis Set: (AUG-CC-PVTZ AUX)
    Blend: AUG-CC-PVTZ-JKFIT
	 Reference Energy          =   -1495.0936154932355748 [Eh]
	 Singles Energy            =      -0.0000000000000000 [Eh]
	 Same-Spin Energy          =      -0.3178361477428127 [Eh]
	 Opposite-Spin Energy      =      -0.9701769869970973 [Eh]
	 Correlation Energy        =      -1.2880131347399100 [Eh]
	 Total Energy              =   -1496.3816286279754877 [Eh]

	 ================> DF-SCS-MP2 Energies <==================
	-----------------------------------------------------------
	 SCS Same-Spin Scale       =       0.3333333333333333 [-]
	 SCS Opposite-Spin Scale   =       1.2000000000000000 [-]
	 SCS Same-Spin Energy      =      -0.1059453825809376 [Eh]
	 SCS Opposite-Spin Energy  =      -1.1642123843965166 [Eh]
	 SCS Correlation Energy    =      -1.2701577669774542 [Eh]
	 SCS Total Energy          =   -1496.3637732602130654 [Eh]
	-----------------------------------------------------------

  Dipole Moment: [D]
     X:    -1.3344      Y:    -0.0000      Z:     1.1367     Total:     1.7529

*** Psi4 exiting successfully. Buy a developer a beer!
