                               Psi4 1.3.2 release

  ==> Input File <==

--------------------------------------------------------------------------
#psi4
#
memory 32 gb

molecule  {
0 1
 Cl        1.8308238    -0.0000066     0.6223059
 Cl       -0.0521700     1.4508740    -0.9288370
 Cl       -0.0521790    -1.4508660    -0.9288460
  C       -0.8960030    -0.0000010     1.2134950
  C        0.1303740     0.0000000     0.0861120
  C       -2.3512950     0.0000000     0.7642590
  H       -0.6844720    -0.8822810     1.8254550
  H       -0.6844710     0.8822780     1.8254570
  H       -2.5870190    -0.8871070     0.1737250
  H       -2.9943960    -0.0000020     1.6481200
  H       -2.5870190     0.8871090     0.1737290
units angstrom
no_reorient  #important for SAPT in psi4, default
symmetry c1  #important for SAPT in psi4, default
}

set PROPERTIES_ORIGIN ["COM"]
properties('MP2/aug-cc-pvtz', properties = ['dipole'])
--------------------------------------------------------------------------

    Molecular point group: c1
  Charge       = 0
  Multiplicity = 1
  Basis Set: AUG-CC-PVTZ
    Blend: AUG-CC-PVTZ
  Basis Set: (AUG-CC-PVTZ AUX)
    Blend: AUG-CC-PVTZ-JKFIT

    Orbital Energies [Eh]
    ---------------------

    Doubly Occupied:

       1A   -104.855936     2A   -104.854484     3A   -104.854484
       4A    -11.434473     5A    -11.267506     6A    -11.236028
       7A    -10.580506     8A    -10.579340     9A    -10.579331
      10A     -8.047237    11A     -8.046076    12A     -8.046076
      13A     -8.045170    14A     -8.045148    15A     -8.044031
      16A     -8.044030    17A     -8.044004    18A     -8.044003
      19A     -1.244772    20A     -1.105750    21A     -1.102141
      22A     -1.062064    23A     -0.912817    24A     -0.786220
      25A     -0.666743    26A     -0.657588    27A     -0.621771
      28A     -0.598360    29A     -0.551927    30A     -0.534105
      31A     -0.513820    32A     -0.496485    33A     -0.489787
      34A     -0.464006    35A     -0.453229    36A     -0.449223
      37A     -0.438429

  @DF-RHF Final Energy: -1495.09866176440528

   => Energetics <=

    Nuclear Repulsion Energy =            458.5486665275391829
    One-Electron Energy =               -2975.7004568525167088
    Two-Electron Energy =                1022.0531285605721905
    Total Energy =                      -1495.0986617644052785
  Basis Set: (AUG-CC-PVTZ AUX)
    Blend: AUG-CC-PVTZ-RI
    Molecular point group: c1

    Geometry (in Angstrom), charge = 0, multiplicity = 1:

       Center              X                  Y                   Z               Mass
    ------------   -----------------  -----------------  -----------------  -----------------
         CL           1.739298327205    -0.000006832504     0.709616861185    34.968852682000
         CL          -0.143695472795     1.450873767496    -0.841526038815    34.968852682000
         CL          -0.143704472795    -1.450866232504    -0.841535038815    34.968852682000
         C           -0.987528472795    -0.000001232504     1.300805961185    12.000000000000
         C            0.038848527205    -0.000000232504     0.173422961185    12.000000000000
         C           -2.442820472795    -0.000000232504     0.851569961185    12.000000000000
         H           -0.775997472795    -0.882281232504     1.912765961185     1.007825032230
         H           -0.775996472795     0.882277767496     1.912767961185     1.007825032230
         H           -2.678544472795    -0.887107232504     0.261035961185     1.007825032230
         H           -3.085921472795    -0.000002232504     1.735430961185     1.007825032230
         H           -2.678544472795     0.887108767496     0.261039961185     1.007825032230

  Basis Set: AUG-CC-PVTZ
    Blend: AUG-CC-PVTZ
  Basis Set: (AUG-CC-PVTZ AUX)
    Blend: AUG-CC-PVTZ-JKFIT
	 Reference Energy          =   -1495.0986617644052785 [Eh]
	 Singles Energy            =      -0.0000000000000000 [Eh]
	 Same-Spin Energy          =      -0.3177478032052923 [Eh]
	 Opposite-Spin Energy      =      -0.9701248325224379 [Eh]
	 Correlation Energy        =      -1.2878726357277301 [Eh]
	 Total Energy              =   -1496.3865344001330868 [Eh]

	 ================> DF-SCS-MP2 Energies <==================
	-----------------------------------------------------------
	 SCS Same-Spin Scale       =       0.3333333333333333 [-]
	 SCS Opposite-Spin Scale   =       1.2000000000000000 [-]
	 SCS Same-Spin Energy      =      -0.1059159344017641 [Eh]
	 SCS Opposite-Spin Energy  =      -1.1641497990269254 [Eh]
	 SCS Correlation Energy    =      -1.2700657334286896 [Eh]
	 SCS Total Energy          =   -1496.3687274978340156 [Eh]
	-----------------------------------------------------------

  Dipole Moment: [D]
     X:    -1.5138      Y:    -0.0000      Z:     1.3837     Total:     2.0509

*** Psi4 exiting successfully. Buy a developer a beer!
