                               Psi4 1.3.2 release

  ==> Input File <==

--------------------------------------------------------------------------
#psi4
#
memory 32 gb

molecule  {
0 1
 Cl        1.7654610    -0.0000070     0.7971140
 Cl       -0.0521700     1.4508740    -0.9288370
 Cl       -0.0521790    -1.4508660    -0.9288460
  C       -0.8960030    -0.0000010     1.2134950
  C        0.1303740     0.0000000     0.0861120
  C       -2.3512950     0.0000000     0.7642590
  H       -0.6844720    -0.8822810     1.8254550
  H       -0.6844710     0.8822780     1.8254570
  H       -2.5870190    -0.8871070     0.1737250
  H       -2.9943960    -0.0000020     1.6481200
  H       -2.5870190     0.8871090     0.1737290
units angstrom
no_reorient  #important for SAPT in psi4, default
symmetry c1  #important for SAPT in psi4, default
}

set PROPERTIES_ORIGIN ["COM"]
properties('MP2/aug-cc-pvtz', properties = ['dipole'])
--------------------------------------------------------------------------

    Molecular point group: c1
  Charge       = 0
  Multiplicity = 1
  Basis Set: AUG-CC-PVTZ
    Blend: AUG-CC-PVTZ
  Basis Set: (AUG-CC-PVTZ AUX)
    Blend: AUG-CC-PVTZ-JKFIT

    Orbital Energies [Eh]
    ---------------------

    Doubly Occupied:

       1A   -104.857208     2A   -104.857208     3A   -104.856525
       4A    -11.434162     5A    -11.264512     6A    -11.233602
       7A    -10.581823     8A    -10.581814     9A    -10.581068
      10A     -8.048570    11A     -8.048570    12A     -8.047806
      13A     -8.046523    14A     -8.046523    15A     -8.046494
      16A     -8.046492    17A     -8.045760    18A     -8.045730
      19A     -1.243972    20A     -1.106805    21A     -1.105861
      22A     -1.059690    23A     -0.910718    24A     -0.786263
      25A     -0.666708    26A     -0.654454    27A     -0.624922
      28A     -0.596612    29A     -0.550754    30A     -0.534046
      31A     -0.511562    32A     -0.494931    33A     -0.489511
      34A     -0.459838    35A     -0.455987    36A     -0.454931
      37A     -0.442837

  @DF-RHF Final Energy: -1495.10067070018977

   => Energetics <=

    Nuclear Repulsion Energy =            457.6540850472603665
    One-Electron Energy =               -2973.8679277418236779
    Two-Electron Energy =                1021.1131719943737153
    Total Energy =                      -1495.1006707001897666
  Basis Set: (AUG-CC-PVTZ AUX)
    Blend: AUG-CC-PVTZ-RI
    Molecular point group: c1

    Geometry (in Angstrom), charge = 0, multiplicity = 1:

       Center              X                  Y                   Z               Mass
    ------------   -----------------  -----------------  -----------------  -----------------
         CL           1.689596573656    -0.000007136663     0.842540620640    34.968852682000
         CL          -0.128034426344     1.450873863337    -0.883410379360    34.968852682000
         CL          -0.128043426344    -1.450866136663    -0.883419379360    34.968852682000
         C           -0.971867426344    -0.000001136663     1.258921620640    12.000000000000
         C            0.054509573656    -0.000000136663     0.131538620640    12.000000000000
         C           -2.427159426344    -0.000000136663     0.809685620640    12.000000000000
         H           -0.760336426344    -0.882281136663     1.870881620640     1.007825032230
         H           -0.760335426344     0.882277863337     1.870883620640     1.007825032230
         H           -2.662883426344    -0.887107136663     0.219151620640     1.007825032230
         H           -3.070260426344    -0.000002136663     1.693546620640     1.007825032230
         H           -2.662883426344     0.887108863337     0.219155620640     1.007825032230

  Basis Set: AUG-CC-PVTZ
    Blend: AUG-CC-PVTZ
  Basis Set: (AUG-CC-PVTZ AUX)
    Blend: AUG-CC-PVTZ-JKFIT
	 Reference Energy          =   -1495.1006707001897666 [Eh]
	 Singles Energy            =      -0.0000000000000000 [Eh]
	 Same-Spin Energy          =      -0.3176774453800335 [Eh]
	 Opposite-Spin Energy      =      -0.9702044606042387 [Eh]
	 Correlation Energy        =      -1.2878819059842721 [Eh]
	 Total Energy              =   -1496.3885526061740165 [Eh]

	 ================> DF-SCS-MP2 Energies <==================
	-----------------------------------------------------------
	 SCS Same-Spin Scale       =       0.3333333333333333 [-]
	 SCS Opposite-Spin Scale   =       1.2000000000000000 [-]
	 SCS Same-Spin Energy      =      -0.1058924817933445 [Eh]
	 SCS Opposite-Spin Energy  =      -1.1642453527250864 [Eh]
	 SCS Correlation Energy    =      -1.2701378345184309 [Eh]
	 SCS Total Energy          =   -1496.3708085347082033 [Eh]
	-----------------------------------------------------------

  Dipole Moment: [D]
     X:    -1.4692      Y:    -0.0000      Z:     1.2764     Total:     1.9462

*** Psi4 exiting successfully. Buy a developer a beer!
