                               Psi4 1.3.2 release

  ==> Input File <==

--------------------------------------------------------------------------
#psi4
#
memory 32 gb

molecule  {
0 1
 Cl        1.6821839    -0.0000073     0.9641322
 Cl       -0.0521700     1.4508740    -0.9288370
 Cl       -0.0521790    -1.4508660    -0.9288460
  C       -0.8960030    -0.0000010     1.2134950
  C        0.1303740     0.0000000     0.0861120
  C       -2.3512950     0.0000000     0.7642590
  H       -0.6844720    -0.8822810     1.8254550
  H       -0.6844710     0.8822780     1.8254570
  H       -2.5870190    -0.8871070     0.1737250
  H       -2.9943960    -0.0000020     1.6481200
  H       -2.5870190     0.8871090     0.1737290
units angstrom
no_reorient  #important for SAPT in psi4, default
symmetry c1  #important for SAPT in psi4, default
}

set PROPERTIES_ORIGIN ["COM"]
properties('MP2/aug-cc-pvtz', properties = ['dipole'])
--------------------------------------------------------------------------

    Molecular point group: c1
  Charge       = 0
  Multiplicity = 1
  Basis Set: AUG-CC-PVTZ
    Blend: AUG-CC-PVTZ
  Basis Set: (AUG-CC-PVTZ AUX)
    Blend: AUG-CC-PVTZ-JKFIT

    Orbital Energies [Eh]
    ---------------------

    Doubly Occupied:

       1A   -104.859882     2A   -104.859881     3A   -104.856573
       4A    -11.433640     5A    -11.261563     6A    -11.230824
       7A    -10.584270     8A    -10.584261     9A    -10.581203
      10A     -8.051026    11A     -8.051026    12A     -8.048975
      13A     -8.048974    14A     -8.048942    15A     -8.048941
      16A     -8.047936    17A     -8.045892    18A     -8.045859
      19A     -1.243966    20A     -1.110070    21A     -1.107946
      22A     -1.056439    23A     -0.908352    24A     -0.786680
      25A     -0.666989    26A     -0.650972    27A     -0.628011
      28A     -0.594771    29A     -0.550307    30A     -0.534090
      31A     -0.509931    32A     -0.493269    33A     -0.489167
      34A     -0.460310    35A     -0.458661    36A     -0.453152
      37A     -0.446441

  @DF-RHF Final Energy: -1495.09742468096715

   => Energetics <=

    Nuclear Repulsion Energy =            457.2268880421454469
    One-Electron Energy =               -2972.9702389033259351
    Two-Electron Energy =                1020.6459261802131095
    Total Energy =                      -1495.0974246809671513
  Basis Set: (AUG-CC-PVTZ AUX)
    Blend: AUG-CC-PVTZ-RI
    Molecular point group: c1

    Geometry (in Angstrom), charge = 0, multiplicity = 1:

       Center              X                  Y                   Z               Mass
    ------------   -----------------  -----------------  -----------------  -----------------
         CL           1.626272819159    -0.000007364782     0.969540954386    34.968852682000
         CL          -0.108081080841     1.450873935218    -0.923428245614    34.968852682000
         CL          -0.108090080841    -1.450866064782    -0.923437245614    34.968852682000
         C           -0.951914080841    -0.000001064782     1.218903754386    12.000000000000
         C            0.074462919159    -0.000000064782     0.091520754386    12.000000000000
         C           -2.407206080841    -0.000000064782     0.769667754386    12.000000000000
         H           -0.740383080841    -0.882281064782     1.830863754386     1.007825032230
         H           -0.740382080841     0.882277935218     1.830865754386     1.007825032230
         H           -2.642930080841    -0.887107064782     0.179133754386     1.007825032230
         H           -3.050307080841    -0.000002064782     1.653528754386     1.007825032230
         H           -2.642930080841     0.887108935218     0.179137754386     1.007825032230

  Basis Set: AUG-CC-PVTZ
    Blend: AUG-CC-PVTZ
  Basis Set: (AUG-CC-PVTZ AUX)
    Blend: AUG-CC-PVTZ-JKFIT
	 Reference Energy          =   -1495.0974246809671513 [Eh]
	 Singles Energy            =      -0.0000000000000000 [Eh]
	 Same-Spin Energy          =      -0.3178835415691909 [Eh]
	 Opposite-Spin Energy      =      -0.9707654322367067 [Eh]
	 Correlation Energy        =      -1.2886489738058977 [Eh]
	 Total Energy              =   -1496.3860736547730994 [Eh]

	 ================> DF-SCS-MP2 Energies <==================
	-----------------------------------------------------------
	 SCS Same-Spin Scale       =       0.3333333333333333 [-]
	 SCS Opposite-Spin Scale   =       1.2000000000000000 [-]
	 SCS Same-Spin Energy      =      -0.1059611805230636 [Eh]
	 SCS Opposite-Spin Energy  =      -1.1649185186840481 [Eh]
	 SCS Correlation Energy    =      -1.2708796992071116 [Eh]
	 SCS Total Energy          =   -1496.3683043801743224 [Eh]
	-----------------------------------------------------------

  Dipole Moment: [D]
     X:    -1.4198      Y:    -0.0000      Z:     1.1689     Total:     1.8391

*** Psi4 exiting successfully. Buy a developer a beer!
