                               Psi4 1.3.2 release

  ==> Input File <==

--------------------------------------------------------------------------
#psi4
#
memory 32 gb

molecule  {
0 1
 Cl        1.7654610    -0.0000070     0.7971140
 Cl       -0.0521700     1.4508740    -0.9288370
 Cl       -0.0521790    -1.4508660    -0.9288460
  C       -0.8960030    -0.0000010     1.2134950
  C        0.2650151     0.0000001    -0.0617791
  C       -2.3512950     0.0000000     0.7642590
  H       -0.6844720    -0.8822810     1.8254550
  H       -0.6844710     0.8822780     1.8254570
  H       -2.5870190    -0.8871070     0.1737250
  H       -2.9943960    -0.0000020     1.6481200
  H       -2.5870190     0.8871090     0.1737290
units angstrom
no_reorient  #important for SAPT in psi4, default
symmetry c1  #important for SAPT in psi4, default
}

set PROPERTIES_ORIGIN ["COM"]
properties('MP2/aug-cc-pvtz', properties = ['dipole'])
--------------------------------------------------------------------------

    Molecular point group: c1
  Charge       = 0
  Multiplicity = 1
  Basis Set: AUG-CC-PVTZ
    Blend: AUG-CC-PVTZ
  Basis Set: (AUG-CC-PVTZ AUX)
    Blend: AUG-CC-PVTZ-JKFIT

    Orbital Energies [Eh]
    ---------------------

    Doubly Occupied:

       1A   -104.859788     2A   -104.859787     3A   -104.858165
       4A    -11.424669     5A    -11.267454     6A    -11.228794
       7A    -10.585225     8A    -10.585215     9A    -10.583426
      10A     -8.052120    11A     -8.052119    12A     -8.050298
      13A     -8.049916    14A     -8.049916    15A     -8.049851
      16A     -8.049851    17A     -8.048117    18A     -8.048055
      19A     -1.253504    20A     -1.120628    21A     -1.117956
      22A     -1.040017    23A     -0.879441    24A     -0.792326
      25A     -0.656031    26A     -0.645544    27A     -0.628125
      28A     -0.611775    29A     -0.555645    30A     -0.531256
      31A     -0.510282    32A     -0.496485    33A     -0.491927
      34A     -0.465516    35A     -0.464173    36A     -0.446729
      37A     -0.411936

  @DF-RHF Final Energy: -1495.07549973186201

   => Energetics <=

    Nuclear Repulsion Energy =            458.4397720411515138
    One-Electron Energy =               -2975.3864198447254239
    Two-Electron Energy =                1021.8711480717119002
    Total Energy =                      -1495.0754997318617825
  Basis Set: (AUG-CC-PVTZ AUX)
    Blend: AUG-CC-PVTZ-RI
    Molecular point group: c1

    Geometry (in Angstrom), charge = 0, multiplicity = 1:

       Center              X                  Y                   Z               Mass
    ------------   -----------------  -----------------  -----------------  -----------------
         CL           1.678526063282    -0.000007144885     0.854700577420    34.968852682000
         CL          -0.139104936718     1.450873855115    -0.871250422580    34.968852682000
         CL          -0.139113936718    -1.450866144885    -0.871259422580    34.968852682000
         C           -0.982937936718    -0.000001144885     1.271081577420    12.000000000000
         C            0.178080163282    -0.000000044885    -0.004192522580    12.000000000000
         C           -2.438229936718    -0.000000144885     0.821845577420    12.000000000000
         H           -0.771406936718    -0.882281144885     1.883041577420     1.007825032230
         H           -0.771405936718     0.882277855115     1.883043577420     1.007825032230
         H           -2.673953936718    -0.887107144885     0.231311577420     1.007825032230
         H           -3.081330936718    -0.000002144885     1.705706577420     1.007825032230
         H           -2.673953936718     0.887108855115     0.231315577420     1.007825032230

  Basis Set: AUG-CC-PVTZ
    Blend: AUG-CC-PVTZ
  Basis Set: (AUG-CC-PVTZ AUX)
    Blend: AUG-CC-PVTZ-JKFIT
	 Reference Energy          =   -1495.0754997318620099 [Eh]
	 Singles Energy            =      -0.0000000000000000 [Eh]
	 Same-Spin Energy          =      -0.3185913022088601 [Eh]
	 Opposite-Spin Energy      =      -0.9713971060951840 [Eh]
	 Correlation Energy        =      -1.2899884083040440 [Eh]
	 Total Energy              =   -1496.3654881401660077 [Eh]

	 ================> DF-SCS-MP2 Energies <==================
	-----------------------------------------------------------
	 SCS Same-Spin Scale       =       0.3333333333333333 [-]
	 SCS Opposite-Spin Scale   =       1.2000000000000000 [-]
	 SCS Same-Spin Energy      =      -0.1061971007362867 [Eh]
	 SCS Opposite-Spin Energy  =      -1.1656765273142209 [Eh]
	 SCS Correlation Energy    =      -1.2718736280505076 [Eh]
	 SCS Total Energy          =   -1496.3473733599125808 [Eh]
	-----------------------------------------------------------

  Dipole Moment: [D]
     X:    -1.2408      Y:    -0.0000      Z:     1.0325     Total:     1.6142

*** Psi4 exiting successfully. Buy a developer a beer!
