                               Psi4 1.3.2 release

  ==> Input File <==

--------------------------------------------------------------------------
#psi4
#
memory 32 gb

molecule  {
0 1
 Cl        1.7528033    -0.0000071     0.8255419
 Cl       -0.0521700     1.4508740    -0.9288370
 Cl       -0.0521790    -1.4508660    -0.9288460
  C       -0.8960030    -0.0000010     1.2134950
  C        0.1303740     0.0000000     0.0861120
  C       -2.3512950     0.0000000     0.7642590
  H       -0.6844720    -0.8822810     1.8254550
  H       -0.6844710     0.8822780     1.8254570
  H       -2.5870190    -0.8871070     0.1737250
  H       -2.9943960    -0.0000020     1.6481200
  H       -2.5870190     0.8871090     0.1737290
units angstrom
no_reorient  #important for SAPT in psi4, default
symmetry c1  #important for SAPT in psi4, default
}

set PROPERTIES_ORIGIN ["COM"]
properties('MP2/aug-cc-pvtz', properties = ['dipole'])
--------------------------------------------------------------------------

    Molecular point group: c1
  Charge       = 0
  Multiplicity = 1
  Basis Set: AUG-CC-PVTZ
    Blend: AUG-CC-PVTZ
  Basis Set: (AUG-CC-PVTZ AUX)
    Blend: AUG-CC-PVTZ-JKFIT

    Orbital Energies [Eh]
    ---------------------

    Doubly Occupied:

       1A   -104.857658     2A   -104.857657     3A   -104.856572
       4A    -11.434090     5A    -11.264016     6A    -11.233166
       7A    -10.582234     8A    -10.582225     9A    -10.581120
      10A     -8.048982    11A     -8.048982    12A     -8.047859
      13A     -8.046934    14A     -8.046934    15A     -8.046905
      16A     -8.046903    17A     -8.045814    18A     -8.045784
      19A     -1.243914    20A     -1.106990    21A     -1.106525
      22A     -1.059208    23A     -0.910344    24A     -0.786301
      25A     -0.666728    26A     -0.653898    27A     -0.625445
      28A     -0.596313    29A     -0.550608    30A     -0.534056
      31A     -0.511233    32A     -0.494674    33A     -0.489449
      34A     -0.459192    35A     -0.456446    36A     -0.455581
      37A     -0.443487

  @DF-RHF Final Energy: -1495.10051117896137

   => Energetics <=

    Nuclear Repulsion Energy =            457.5500453473686093
    One-Electron Energy =               -2973.6526557833340121
    Two-Electron Energy =                1021.0020992570039198
    Total Energy =                      -1495.1005111789613693
  Basis Set: (AUG-CC-PVTZ AUX)
    Blend: AUG-CC-PVTZ-RI
    Molecular point group: c1

    Geometry (in Angstrom), charge = 0, multiplicity = 1:

       Center              X                  Y                   Z               Mass
    ------------   -----------------  -----------------  -----------------  -----------------
         CL           1.679971681731    -0.000007212703     0.864157143796    34.968852682000
         CL          -0.125001618269     1.450873887297    -0.890221756204    34.968852682000
         CL          -0.125010618269    -1.450866112703    -0.890230756204    34.968852682000
         C           -0.968834618269    -0.000001112703     1.252110243796    12.000000000000
         C            0.057542381731    -0.000000112703     0.124727243796    12.000000000000
         C           -2.424126618269    -0.000000112703     0.802874243796    12.000000000000
         H           -0.757303618269    -0.882281112703     1.864070243796     1.007825032230
         H           -0.757302618269     0.882277887297     1.864072243796     1.007825032230
         H           -2.659850618269    -0.887107112703     0.212340243796     1.007825032230
         H           -3.067227618269    -0.000002112703     1.686735243796     1.007825032230
         H           -2.659850618269     0.887108887297     0.212344243796     1.007825032230

  Basis Set: AUG-CC-PVTZ
    Blend: AUG-CC-PVTZ
  Basis Set: (AUG-CC-PVTZ AUX)
    Blend: AUG-CC-PVTZ-JKFIT
	 Reference Energy          =   -1495.1005111789613693 [Eh]
	 Singles Energy            =      -0.0000000000000000 [Eh]
	 Same-Spin Energy          =      -0.3176916460068181 [Eh]
	 Opposite-Spin Energy      =      -0.9702625658988226 [Eh]
	 Correlation Energy        =      -1.2879542119056406 [Eh]
	 Total Energy              =   -1496.3884653908669407 [Eh]

	 ================> DF-SCS-MP2 Energies <==================
	-----------------------------------------------------------
	 SCS Same-Spin Scale       =       0.3333333333333333 [-]
	 SCS Opposite-Spin Scale   =       1.2000000000000000 [-]
	 SCS Same-Spin Energy      =      -0.1058972153356060 [Eh]
	 SCS Opposite-Spin Energy  =      -1.1643150790785872 [Eh]
	 SCS Correlation Energy    =      -1.2702122944141934 [Eh]
	 SCS Total Energy          =   -1496.3707234733756195 [Eh]
	-----------------------------------------------------------

  Dipole Moment: [D]
     X:    -1.4613      Y:    -0.0000      Z:     1.2584     Total:     1.9284

*** Psi4 exiting successfully. Buy a developer a beer!
