                               Psi4 1.3.2 release

  ==> Input File <==

--------------------------------------------------------------------------
#psi4
#
memory 32 gb

molecule  {
0 1
 Cl        1.7654610    -0.0000070     0.7971140
 Cl       -0.0521700     1.4508740    -0.9288370
 Cl       -0.0521790    -1.4508660    -0.9288460
  C       -0.8960030    -0.0000010     1.2134950
  C        0.0904037     0.0000001     0.0509787
  C       -2.3512950     0.0000000     0.7642590
  H       -0.6844720    -0.8822810     1.8254550
  H       -0.6844710     0.8822780     1.8254570
  H       -2.5870190    -0.8871070     0.1737250
  H       -2.9943960    -0.0000020     1.6481200
  H       -2.5870190     0.8871090     0.1737290
units angstrom
no_reorient  #important for SAPT in psi4, default
symmetry c1  #important for SAPT in psi4, default
}

set PROPERTIES_ORIGIN ["COM"]
properties('MP2/aug-cc-pvtz', properties = ['dipole'])
--------------------------------------------------------------------------

    Molecular point group: c1
  Charge       = 0
  Multiplicity = 1
  Basis Set: AUG-CC-PVTZ
    Blend: AUG-CC-PVTZ
  Basis Set: (AUG-CC-PVTZ AUX)
    Blend: AUG-CC-PVTZ-JKFIT

    Orbital Energies [Eh]
    ---------------------

    Doubly Occupied:

       1A   -104.861049     2A   -104.861048     3A   -104.848515
       4A    -11.434540     5A    -11.264643     6A    -11.233641
       7A    -10.585903     8A    -10.585894     9A    -10.572653
      10A     -8.052699    11A     -8.052699    12A     -8.050587
      13A     -8.050587    14A     -8.050553    15A     -8.050552
      16A     -8.039297    17A     -8.037369    18A     -8.037346
      19A     -1.245225    20A     -1.114509    21A     -1.097152
      22A     -1.060681    23A     -0.909279    24A     -0.787967
      25A     -0.668476    26A     -0.653952    27A     -0.623912
      28A     -0.598709    29A     -0.548085    30A     -0.537120
      31A     -0.513365    32A     -0.497609    33A     -0.486668
      34A     -0.459816    35A     -0.457377    36A     -0.451051
      37A     -0.441732

  @DF-RHF Final Energy: -1495.09905722027952

   => Energetics <=

    Nuclear Repulsion Energy =            457.7257141172451611
    One-Electron Energy =               -2974.0050258662458873
    Two-Electron Energy =                1021.1802545287214343
    Total Energy =                      -1495.0990572202795192
  Basis Set: (AUG-CC-PVTZ AUX)
    Blend: AUG-CC-PVTZ-RI
    Molecular point group: c1

    Geometry (in Angstrom), charge = 0, multiplicity = 1:

       Center              X                  Y                   Z               Mass
    ------------   -----------------  -----------------  -----------------  -----------------
         CL           1.692883026461    -0.000007144885     0.845429363841    34.968852682000
         CL          -0.124747973539     1.450873855115    -0.880521636159    34.968852682000
         CL          -0.124756973539    -1.450866144885    -0.880530636159    34.968852682000
         C           -0.968580973539    -0.000001144885     1.261810363841    12.000000000000
         C            0.017825726461    -0.000000044885     0.099294063841    12.000000000000
         C           -2.423872973539    -0.000000144885     0.812574363841    12.000000000000
         H           -0.757049973539    -0.882281144885     1.873770363841     1.007825032230
         H           -0.757048973539     0.882277855115     1.873772363841     1.007825032230
         H           -2.659596973539    -0.887107144885     0.222040363841     1.007825032230
         H           -3.066973973539    -0.000002144885     1.696435363841     1.007825032230
         H           -2.659596973539     0.887108855115     0.222044363841     1.007825032230

  Basis Set: AUG-CC-PVTZ
    Blend: AUG-CC-PVTZ
  Basis Set: (AUG-CC-PVTZ AUX)
    Blend: AUG-CC-PVTZ-JKFIT
	 Reference Energy          =   -1495.0990572202795192 [Eh]
	 Singles Energy            =      -0.0000000000000000 [Eh]
	 Same-Spin Energy          =      -0.3177772875774591 [Eh]
	 Opposite-Spin Energy      =      -0.9703718052117393 [Eh]
	 Correlation Energy        =      -1.2881490927891983 [Eh]
	 Total Energy              =   -1496.3872063130686456 [Eh]

	 ================> DF-SCS-MP2 Energies <==================
	-----------------------------------------------------------
	 SCS Same-Spin Scale       =       0.3333333333333333 [-]
	 SCS Opposite-Spin Scale   =       1.2000000000000000 [-]
	 SCS Same-Spin Energy      =      -0.1059257625258197 [Eh]
	 SCS Opposite-Spin Energy  =      -1.1644461662540870 [Eh]
	 SCS Correlation Energy    =      -1.2703719287799067 [Eh]
	 SCS Total Energy          =   -1496.3694291490594424 [Eh]
	-----------------------------------------------------------

  Dipole Moment: [D]
     X:    -1.6860      Y:    -0.0000      Z:     1.0796     Total:     2.0020

*** Psi4 exiting successfully. Buy a developer a beer!
