                               Psi4 1.3.2 release

  ==> Input File <==

--------------------------------------------------------------------------
#psi4
#
memory 32 gb

molecule  {
0 1
 Cl        1.7654610    -0.0000070     0.7971140
 Cl       -0.0521700     1.4508740    -0.9288370
 Cl       -0.0521790    -1.4508660    -0.9288460
  C       -0.8960030    -0.0000010     1.2134950
  C        0.1408735    -0.0223682     0.0959848
  C       -2.3512950     0.0000000     0.7642590
  H       -0.6844720    -0.8822810     1.8254550
  H       -0.6844710     0.8822780     1.8254570
  H       -2.5870190    -0.8871070     0.1737250
  H       -2.9943960    -0.0000020     1.6481200
  H       -2.5870190     0.8871090     0.1737290
units angstrom
no_reorient  #important for SAPT in psi4, default
symmetry c1  #important for SAPT in psi4, default
}

set PROPERTIES_ORIGIN ["COM"]
properties('MP2/aug-cc-pvtz', properties = ['dipole'])
--------------------------------------------------------------------------

    Molecular point group: c1
  Charge       = 0
  Multiplicity = 1
  Basis Set: AUG-CC-PVTZ
    Blend: AUG-CC-PVTZ
  Basis Set: (AUG-CC-PVTZ AUX)
    Blend: AUG-CC-PVTZ-JKFIT

    Orbital Energies [Eh]
    ---------------------

    Doubly Occupied:

       1A   -104.858993     2A   -104.858604     3A   -104.853263
       4A    -11.434263     5A    -11.264585     6A    -11.233643
       7A    -10.583723     8A    -10.583284     9A    -10.577648
      10A     -8.050498    11A     -8.050050    12A     -8.048421
      13A     -8.048389    14A     -8.047968    15A     -8.047937
      16A     -8.044351    17A     -8.042366    18A     -8.042340
      19A     -1.244304    20A     -1.110029    21A     -1.102652
      22A     -1.059389    23A     -0.911172    24A     -0.785972
      25A     -0.666363    26A     -0.655001    27A     -0.625354
      28A     -0.596089    29A     -0.551638    30A     -0.533246
      31A     -0.511377    32A     -0.494635    33A     -0.489835
      34A     -0.459943    35A     -0.456848    36A     -0.453834
      37A     -0.442625

  @DF-RHF Final Energy: -1495.10028133477476

   => Energetics <=

    Nuclear Repulsion Energy =            457.6339230981863011
    One-Electron Energy =               -2973.8271428752254906
    Two-Electron Energy =                1021.0929384422644262
    Total Energy =                      -1495.1002813347749907
  Basis Set: (AUG-CC-PVTZ AUX)
    Blend: AUG-CC-PVTZ-RI
    Molecular point group: c1

    Geometry (in Angstrom), charge = 0, multiplicity = 1:

       Center              X                  Y                   Z               Mass
    ------------   -----------------  -----------------  -----------------  -----------------
         CL           1.688733279880     0.001832029759     0.841728855623    34.968852682000
         CL          -0.128897720120     1.452713029759    -0.884222144377    34.968852682000
         CL          -0.128906720120    -1.449026970241    -0.884231144377    34.968852682000
         C           -0.972730720120     0.001838029759     1.258109855623    12.000000000000
         C            0.064145779880    -0.020529170241     0.140599655623    12.000000000000
         C           -2.428022720120     0.001839029759     0.808873855623    12.000000000000
         H           -0.761199720120    -0.880441970241     1.870069855623     1.007825032230
         H           -0.761198720120     0.884117029759     1.870071855623     1.007825032230
         H           -2.663746720120    -0.885267970241     0.218339855623     1.007825032230
         H           -3.071123720120     0.001837029759     1.692734855623     1.007825032230
         H           -2.663746720120     0.888948029759     0.218343855623     1.007825032230

  Basis Set: AUG-CC-PVTZ
    Blend: AUG-CC-PVTZ
  Basis Set: (AUG-CC-PVTZ AUX)
    Blend: AUG-CC-PVTZ-JKFIT
	 Reference Energy          =   -1495.1002813347747633 [Eh]
	 Singles Energy            =      -0.0000000000000000 [Eh]
	 Same-Spin Energy          =      -0.3177005430519134 [Eh]
	 Opposite-Spin Energy      =      -0.9702269082384218 [Eh]
	 Correlation Energy        =      -1.2879274512903351 [Eh]
	 Total Energy              =   -1496.3882087860652064 [Eh]

	 ================> DF-SCS-MP2 Energies <==================
	-----------------------------------------------------------
	 SCS Same-Spin Scale       =       0.3333333333333333 [-]
	 SCS Opposite-Spin Scale   =       1.2000000000000000 [-]
	 SCS Same-Spin Energy      =      -0.1059001810173044 [Eh]
	 SCS Opposite-Spin Energy  =      -1.1642722898861062 [Eh]
	 SCS Correlation Energy    =      -1.2701724709034106 [Eh]
	 SCS Total Energy          =   -1496.3704538056781530 [Eh]
	-----------------------------------------------------------

  Dipole Moment: [D]
     X:    -1.4115      Y:    -0.1260      Z:     1.3309     Total:     1.9441

*** Psi4 exiting successfully. Buy a developer a beer!
