                               Psi4 1.3.2 release

  ==> Input File <==

--------------------------------------------------------------------------
#psi4
#
memory 32 gb

molecule  {
0 1
 Cl        1.7654610    -0.0000070     0.7971140
 Cl       -0.0521700     1.4508740    -0.9288370
 Cl       -0.0521790    -1.4508660    -0.9288460
  C       -0.8960030    -0.0000010     1.2134950
  C        0.1690939    -0.0000001     0.1226188
  C       -2.3512950     0.0000000     0.7642590
  H       -0.6844720    -0.8822810     1.8254550
  H       -0.6844710     0.8822780     1.8254570
  H       -2.5870190    -0.8871070     0.1737250
  H       -2.9943960    -0.0000020     1.6481200
  H       -2.5870190     0.8871090     0.1737290
units angstrom
no_reorient  #important for SAPT in psi4, default
symmetry c1  #important for SAPT in psi4, default
}

set PROPERTIES_ORIGIN ["COM"]
properties('MP2/aug-cc-pvtz', properties = ['dipole'])
--------------------------------------------------------------------------

    Molecular point group: c1
  Charge       = 0
  Multiplicity = 1
  Basis Set: AUG-CC-PVTZ
    Blend: AUG-CC-PVTZ
  Basis Set: (AUG-CC-PVTZ AUX)
    Blend: AUG-CC-PVTZ-JKFIT

    Orbital Energies [Eh]
    ---------------------

    Doubly Occupied:

       1A   -104.863988     2A   -104.853308     3A   -104.853308
       4A    -11.434548     5A    -11.264787     6A    -11.233785
       7A    -10.589128     8A    -10.577692     9A    -10.577683
      10A     -8.055976    11A     -8.053790    12A     -8.053751
      13A     -8.044389    14A     -8.044389    15A     -8.042405
      16A     -8.042404    17A     -8.042379    18A     -8.042377
      19A     -1.245467    20A     -1.113299    21A     -1.099137
      22A     -1.058696    23A     -0.912387    24A     -0.785214
      25A     -0.665577    26A     -0.656848    27A     -0.625559
      28A     -0.595364    29A     -0.553957    30A     -0.530899
      31A     -0.510994    32A     -0.493651    33A     -0.491027
      34A     -0.459949    35A     -0.457362    36A     -0.452774
      37A     -0.442008

  @DF-RHF Final Energy: -1495.09900408695330

   => Energetics <=

    Nuclear Repulsion Energy =            457.5820408861195574
    One-Electron Energy =               -2973.7215711567660037
    Two-Electron Energy =                1021.0405261836931459
    Total Energy =                      -1495.0990040869533004
  Basis Set: (AUG-CC-PVTZ AUX)
    Blend: AUG-CC-PVTZ-RI
    Molecular point group: c1

    Geometry (in Angstrom), charge = 0, multiplicity = 1:

       Center              X                  Y                   Z               Mass
    ------------   -----------------  -----------------  -----------------  -----------------
         CL           1.686412931702    -0.000007128441     0.839538945014    34.968852682000
         CL          -0.131218068298     1.450873871559    -0.886412054986    34.968852682000
         CL          -0.131227068298    -1.450866128441    -0.886421054986    34.968852682000
         C           -0.975051068298    -0.000001128441     1.255919945014    12.000000000000
         C            0.090045831702    -0.000000228441     0.165043745014    12.000000000000
         C           -2.430343068298    -0.000000128441     0.806683945014    12.000000000000
         H           -0.763520068298    -0.882281128441     1.867879945014     1.007825032230
         H           -0.763519068298     0.882277871559     1.867881945014     1.007825032230
         H           -2.666067068298    -0.887107128441     0.216149945014     1.007825032230
         H           -3.073444068298    -0.000002128441     1.690544945014     1.007825032230
         H           -2.666067068298     0.887108871559     0.216153945014     1.007825032230

  Basis Set: AUG-CC-PVTZ
    Blend: AUG-CC-PVTZ
  Basis Set: (AUG-CC-PVTZ AUX)
    Blend: AUG-CC-PVTZ-JKFIT
	 Reference Energy          =   -1495.0990040869533004 [Eh]
	 Singles Energy            =      -0.0000000000000000 [Eh]
	 Same-Spin Energy          =      -0.3177763014694802 [Eh]
	 Opposite-Spin Energy      =      -0.9703108068617166 [Eh]
	 Correlation Energy        =      -1.2880871083311969 [Eh]
	 Total Energy              =   -1496.3870911952844835 [Eh]

	 ================> DF-SCS-MP2 Energies <==================
	-----------------------------------------------------------
	 SCS Same-Spin Scale       =       0.3333333333333333 [-]
	 SCS Opposite-Spin Scale   =       1.2000000000000000 [-]
	 SCS Same-Spin Energy      =      -0.1059254338231601 [Eh]
	 SCS Opposite-Spin Energy  =      -1.1643729682340598 [Eh]
	 SCS Correlation Energy    =      -1.2702984020572199 [Eh]
	 SCS Total Energy          =   -1496.3693024890105789 [Eh]
	-----------------------------------------------------------

  Dipole Moment: [D]
     X:    -1.2536      Y:    -0.0000      Z:     1.4804     Total:     1.9399

*** Psi4 exiting successfully. Buy a developer a beer!
