                               Psi4 1.4a3.dev225

  ==> Input File <==

--------------------------------------------------------------------------
#psi4
#
memory 32 gb

molecule  {
0 1
 Cl        1.7654610    -0.0000070     0.7971140
 Cl       -0.0521700     1.4508740    -0.9288370
 Cl       -0.0521790    -1.4508660    -0.9288460
  C       -0.8960030    -0.0000010     1.2134950
  C        0.1640343     0.0000000     0.0491392
  C       -2.3512950     0.0000000     0.7642590
  H       -0.6844720    -0.8822810     1.8254550
  H       -0.6844710     0.8822780     1.8254570
  H       -2.5870190    -0.8871070     0.1737250
  H       -2.9943960    -0.0000020     1.6481200
  H       -2.5870190     0.8871090     0.1737290
units angstrom
no_reorient  #important for SAPT in psi4, default
symmetry c1  #important for SAPT in psi4, default
}

set PROPERTIES_ORIGIN ["COM"]
properties('MP2/aug-cc-pvtz', properties = ['dipole'])
--------------------------------------------------------------------------

    Molecular point group: c1
  Charge       = 0
  Multiplicity = 1
  Basis Set: AUG-CC-PVTZ
    Blend: AUG-CC-PVTZ
  Basis Set: (AUG-CC-PVTZ AUX)
    Blend: AUG-CC-PVTZ-JKFIT

    Orbital Energies [Eh]
    ---------------------

    Doubly Occupied:

       1A   -104.857945     2A   -104.857945     3A   -104.857004
       4A    -11.431583     5A    -11.265484     6A    -11.232017
       7A    -10.582799     8A    -10.582790     9A    -10.581765
      10A     -8.049585    11A     -8.049584    12A     -8.048539
      13A     -8.047500    14A     -8.047500    15A     -8.047463
      16A     -8.047462    17A     -8.046459    18A     -8.046422
      19A     -1.246223    20A     -1.110580    21A     -1.109215
      22A     -1.053444    23A     -0.902127    24A     -0.787887
      25A     -0.663137    26A     -0.651312    27A     -0.625653
      28A     -0.600776    29A     -0.552190    30A     -0.533157
      31A     -0.511168    32A     -0.495763    33A     -0.490446
      34A     -0.458563    35A     -0.457852    36A     -0.448924
      37A     -0.443994

  @DF-RHF Final Energy: -1495.09876657728773

   => Energetics <=

    Nuclear Repulsion Energy =            457.8895573052632813
    One-Electron Energy =               -2974.3321385716640179
    Two-Electron Energy =                1021.3438146891129463
    Total Energy =                      -1495.0987665772877335
  Basis Set: (AUG-CC-PVTZ AUX)
    Blend: AUG-CC-PVTZ-RI
    Molecular point group: c1

    Geometry (in Angstrom), charge = 0, multiplicity = 1:

       Center              X                  Y                   Z               Mass
    ------------   -----------------  -----------------  -----------------  -----------------
         CL           1.686828944007    -0.000007136663     0.845580611891    34.968852682000
         CL          -0.130802055993     1.450873863337    -0.880370388109    34.968852682000
         CL          -0.130811055993    -1.450866136663    -0.880379388109    34.968852682000
         C           -0.974635055993    -0.000001136663     1.261961611891    12.000000000000
         C            0.085402244007    -0.000000136663     0.097605811891    12.000000000000
         C           -2.429927055993    -0.000000136663     0.812725611891    12.000000000000
         H           -0.763104055993    -0.882281136663     1.873921611891     1.007825032230
         H           -0.763103055993     0.882277863337     1.873923611891     1.007825032230
         H           -2.665651055993    -0.887107136663     0.222191611891     1.007825032230
         H           -3.073028055993    -0.000002136663     1.696586611891     1.007825032230
         H           -2.665651055993     0.887108863337     0.222195611891     1.007825032230

  Basis Set: AUG-CC-PVTZ
    Blend: AUG-CC-PVTZ
  Basis Set: (AUG-CC-PVTZ AUX)
    Blend: AUG-CC-PVTZ-JKFIT
	 Reference Energy          =   -1495.0987665772877335 [Eh]
	 Singles Energy            =      -0.0000000000000000 [Eh]
	 Same-Spin Energy          =      -0.3176737865452334 [Eh]
	 Opposite-Spin Energy      =      -0.9700282984261089 [Eh]
	 Correlation Energy        =      -1.2877020849713423 [Eh]
	 Total Energy              =   -1496.3864686622591762 [Eh]

	 ================> DF-SCS-MP2 Energies <==================
	-----------------------------------------------------------
	 SCS Same-Spin Scale       =       0.3333333333333333 [-]
	 SCS Opposite-Spin Scale   =       1.2000000000000000 [-]
	 SCS Same-Spin Energy      =      -0.1058912621817445 [Eh]
	 SCS Opposite-Spin Energy  =      -1.1640339581113306 [Eh]
	 SCS Correlation Energy    =      -1.2699252202930751 [Eh]
	 SCS Total Energy          =   -1496.3686917975808228 [Eh]
	-----------------------------------------------------------

  Dipole Moment: [D]
     X:    -1.3950      Y:    -0.0000      Z:     1.2006     Total:     1.8406

*** Psi4 exiting successfully. Buy a developer a beer!
