                               Psi4 1.3.2 release

  ==> Input File <==

--------------------------------------------------------------------------
#psi4
#
memory 32 gb

molecule  {
0 1
 Cl        1.7654610    -0.0000070     0.7971140
 Cl       -0.0521700     1.4508740    -0.9288370
 Cl       -0.0521790    -1.4508660    -0.9288460
  C       -0.8960030    -0.0000010     1.2134950
  C        0.0852831     0.0894047     0.0500835
  C       -2.3512950     0.0000000     0.7642590
  H       -0.6844720    -0.8822810     1.8254550
  H       -0.6844710     0.8822780     1.8254570
  H       -2.5870190    -0.8871070     0.1737250
  H       -2.9943960    -0.0000020     1.6481200
  H       -2.5870190     0.8871090     0.1737290
units angstrom
no_reorient  #important for SAPT in psi4, default
symmetry c1  #important for SAPT in psi4, default
}

set PROPERTIES_ORIGIN ["COM"]
properties('MP2/aug-cc-pvtz', properties = ['dipole'])
--------------------------------------------------------------------------

    Molecular point group: c1
  Charge       = 0
  Multiplicity = 1
  Basis Set: AUG-CC-PVTZ
    Blend: AUG-CC-PVTZ
  Basis Set: (AUG-CC-PVTZ AUX)
    Blend: AUG-CC-PVTZ-JKFIT

    Orbital Energies [Eh]
    ---------------------

    Doubly Occupied:

       1A   -104.871874     2A   -104.849850     3A   -104.847840
       4A    -11.435587     5A    -11.265261     6A    -11.233825
       7A    -10.597865     8A    -10.574008     9A    -10.571907
      10A     -8.064845    11A     -8.062495    12A     -8.062444
      13A     -8.040664    14A     -8.038729    15A     -8.038705
      16A     -8.038537    17A     -8.036619    18A     -8.036598
      19A     -1.250595    20A     -1.118479    21A     -1.090472
      22A     -1.060540    23A     -0.909525    24A     -0.789234
      25A     -0.668725    26A     -0.656223    27A     -0.626927
      28A     -0.597683    29A     -0.549255    30A     -0.538036
      31A     -0.515586    32A     -0.498329    33A     -0.481648
      34A     -0.460636    35A     -0.455467    36A     -0.450190
      37A     -0.438299

  @DF-RHF Final Energy: -1495.09358043913153

   => Energetics <=

    Nuclear Repulsion Energy =            457.7389201926520172
    One-Electron Energy =               -2974.0179992276762277
    Two-Electron Energy =                1021.1854985958926818
    Total Energy =                      -1495.0935804391315287
  Basis Set: (AUG-CC-PVTZ AUX)
    Blend: AUG-CC-PVTZ-RI
    Molecular point group: c1

    Geometry (in Angstrom), charge = 0, multiplicity = 1:

       Center              X                  Y                   Z               Mass
    ------------   -----------------  -----------------  -----------------  -----------------
         CL           1.693304054330    -0.007358203008     0.845502969307    34.968852682000
         CL          -0.124326945670     1.443522796992    -0.880448030693    34.968852682000
         CL          -0.124335945670    -1.458217203008    -0.880457030693    34.968852682000
         C           -0.968159945670    -0.007352203008     1.261883969307    12.000000000000
         C            0.013126154330     0.082053496992     0.098472469307    12.000000000000
         C           -2.423451945670    -0.007351203008     0.812647969307    12.000000000000
         H           -0.756628945670    -0.889632203008     1.873843969307     1.007825032230
         H           -0.756627945670     0.874926796992     1.873845969307     1.007825032230
         H           -2.659175945670    -0.894458203008     0.222113969307     1.007825032230
         H           -3.066552945670    -0.007353203008     1.696508969307     1.007825032230
         H           -2.659175945670     0.879757796992     0.222117969307     1.007825032230

  Basis Set: AUG-CC-PVTZ
    Blend: AUG-CC-PVTZ
  Basis Set: (AUG-CC-PVTZ AUX)
    Blend: AUG-CC-PVTZ-JKFIT
	 Reference Energy          =   -1495.0935804391315287 [Eh]
	 Singles Energy            =      -0.0000000000000000 [Eh]
	 Same-Spin Energy          =      -0.3181042076805062 [Eh]
	 Opposite-Spin Energy      =      -0.9708180820928329 [Eh]
	 Correlation Energy        =      -1.2889222897733392 [Eh]
	 Total Energy              =   -1496.3825027289049103 [Eh]

	 ================> DF-SCS-MP2 Energies <==================
	-----------------------------------------------------------
	 SCS Same-Spin Scale       =       0.3333333333333333 [-]
	 SCS Opposite-Spin Scale   =       1.2000000000000000 [-]
	 SCS Same-Spin Energy      =      -0.1060347358935021 [Eh]
	 SCS Opposite-Spin Energy  =      -1.1649816985113994 [Eh]
	 SCS Correlation Energy    =      -1.2710164344049015 [Eh]
	 SCS Total Energy          =   -1496.3645968735363567 [Eh]
	-----------------------------------------------------------

  Dipole Moment: [D]
     X:    -1.7163      Y:     0.5186      Z:     1.0624     Total:     2.0841

*** Psi4 exiting successfully. Buy a developer a beer!
