                               Psi4 1.3.2 release

  ==> Input File <==

--------------------------------------------------------------------------
#psi4
#
memory 32 gb

molecule  {
0 1
 Cl        1.7654610    -0.0000070     0.7971140
 Cl       -0.0521700     1.4508740    -0.9288370
 Cl       -0.0521790    -1.4508660    -0.9288460
  C       -0.8960030    -0.0000010     1.2134950
  C        0.1510571    -0.0447296     0.1061980
  C       -2.3512950     0.0000000     0.7642590
  H       -0.6844720    -0.8822810     1.8254550
  H       -0.6844710     0.8822780     1.8254570
  H       -2.5870190    -0.8871070     0.1737250
  H       -2.9943960    -0.0000020     1.6481200
  H       -2.5870190     0.8871090     0.1737290
units angstrom
no_reorient  #important for SAPT in psi4, default
symmetry c1  #important for SAPT in psi4, default
}

set PROPERTIES_ORIGIN ["COM"]
properties('MP2/aug-cc-pvtz', properties = ['dipole'])
--------------------------------------------------------------------------

    Molecular point group: c1
  Charge       = 0
  Multiplicity = 1
  Basis Set: AUG-CC-PVTZ
    Blend: AUG-CC-PVTZ
  Basis Set: (AUG-CC-PVTZ AUX)
    Blend: AUG-CC-PVTZ-JKFIT

    Orbital Energies [Eh]
    ---------------------

    Doubly Occupied:

       1A   -104.860785     2A   -104.860678     3A   -104.849154
       4A    -11.434565     5A    -11.264766     6A    -11.233721
       7A    -10.585634     8A    -10.585500     9A    -10.573360
      10A     -8.052431    11A     -8.052294    12A     -8.050324
      13A     -8.050290    14A     -8.050176    15A     -8.050142
      16A     -8.040018    17A     -8.038090    18A     -8.038067
      19A     -1.245243    20A     -1.113976    21A     -1.098543
      22A     -1.059012    23A     -0.911694    24A     -0.785850
      25A     -0.666147    26A     -0.655768    27A     -0.626224
      28A     -0.595466    29A     -0.552662    30A     -0.532543
      31A     -0.511426    32A     -0.495511    33A     -0.488996
      34A     -0.460077    35A     -0.457946    36A     -0.451685
      37A     -0.441924

  @DF-RHF Final Energy: -1495.09912356792370

   => Energetics <=

    Nuclear Repulsion Energy =            457.6123934973111886
    One-Electron Energy =               -2973.7816603237197342
    Two-Electron Energy =                1021.0701432584849044
    Total Energy =                      -1495.0991235679236979
  Basis Set: (AUG-CC-PVTZ AUX)
    Blend: AUG-CC-PVTZ-RI
    Molecular point group: c1

    Geometry (in Angstrom), charge = 0, multiplicity = 1:

       Center              X                  Y                   Z               Mass
    ------------   -----------------  -----------------  -----------------  -----------------
         CL           1.687895960150     0.003670637069     0.840889102112    34.968852682000
         CL          -0.129735039850     1.454551637069    -0.885061897888    34.968852682000
         CL          -0.129744039850    -1.447188362931    -0.885070897888    34.968852682000
         C           -0.973568039850     0.003676637069     1.257270102112    12.000000000000
         C            0.073492060150    -0.041051962931     0.149973102112    12.000000000000
         C           -2.428860039850     0.003677637069     0.808034102112    12.000000000000
         H           -0.762037039850    -0.878603362931     1.869230102112     1.007825032230
         H           -0.762036039850     0.885955637069     1.869232102112     1.007825032230
         H           -2.664584039850    -0.883429362931     0.217500102112     1.007825032230
         H           -3.071961039850     0.003675637069     1.691895102112     1.007825032230
         H           -2.664584039850     0.890786637069     0.217504102112     1.007825032230

  Basis Set: AUG-CC-PVTZ
    Blend: AUG-CC-PVTZ
  Basis Set: (AUG-CC-PVTZ AUX)
    Blend: AUG-CC-PVTZ-JKFIT
	 Reference Energy          =   -1495.0991235679236979 [Eh]
	 Singles Energy            =      -0.0000000000000000 [Eh]
	 Same-Spin Energy          =      -0.3177702003363975 [Eh]
	 Opposite-Spin Energy      =      -0.9703107113911883 [Eh]
	 Correlation Energy        =      -1.2880809117275858 [Eh]
	 Total Energy              =   -1496.3872044796512455 [Eh]

	 ================> DF-SCS-MP2 Energies <==================
	-----------------------------------------------------------
	 SCS Same-Spin Scale       =       0.3333333333333333 [-]
	 SCS Opposite-Spin Scale   =       1.2000000000000000 [-]
	 SCS Same-Spin Energy      =      -0.1059234001121325 [Eh]
	 SCS Opposite-Spin Energy  =      -1.1643728536694260 [Eh]
	 SCS Correlation Energy    =      -1.2702962537815585 [Eh]
	 SCS Total Energy          =   -1496.3694198217051508 [Eh]
	-----------------------------------------------------------

  Dipole Moment: [D]
     X:    -1.3550      Y:    -0.2517      Z:     1.3864     Total:     1.9549

*** Psi4 exiting successfully. Buy a developer a beer!
