                               Psi4 1.3.2 release

  ==> Input File <==

--------------------------------------------------------------------------
#psi4
#
memory 32 gb

molecule  {
0 1
 Cl        1.7118810    -0.0000072     0.9094399
 Cl       -0.0521700     1.4508740    -0.9288370
 Cl       -0.0521790    -1.4508660    -0.9288460
  C       -0.8960030    -0.0000010     1.2134950
  C        0.1303740     0.0000000     0.0861120
  C       -2.3512950     0.0000000     0.7642590
  H       -0.6844720    -0.8822810     1.8254550
  H       -0.6844710     0.8822780     1.8254570
  H       -2.5870190    -0.8871070     0.1737250
  H       -2.9943960    -0.0000020     1.6481200
  H       -2.5870190     0.8871090     0.1737290
units angstrom
no_reorient  #important for SAPT in psi4, default
symmetry c1  #important for SAPT in psi4, default
}

set PROPERTIES_ORIGIN ["COM"]
properties('MP2/aug-cc-pvtz', properties = ['dipole'])
--------------------------------------------------------------------------

    Molecular point group: c1
  Charge       = 0
  Multiplicity = 1
  Basis Set: AUG-CC-PVTZ
    Blend: AUG-CC-PVTZ
  Basis Set: (AUG-CC-PVTZ AUX)
    Blend: AUG-CC-PVTZ-JKFIT

    Orbital Energies [Eh]
    ---------------------

    Doubly Occupied:

       1A   -104.858996     2A   -104.858996     3A   -104.856620
       4A    -11.433839     5A    -11.262537     6A    -11.231794
       7A    -10.583459     8A    -10.583450     9A    -10.581207
      10A     -8.050212    11A     -8.050212    12A     -8.048162
      13A     -8.048162    14A     -8.048131    15A     -8.048130
      16A     -8.047943    17A     -8.045900    18A     -8.045868
      19A     -1.243875    20A     -1.108603    21A     -1.107559
      22A     -1.057618    23A     -0.909176    24A     -0.786487
      25A     -0.666849    26A     -0.652171    27A     -0.626995
      28A     -0.595399    29A     -0.550325    30A     -0.534090
      31A     -0.510371    32A     -0.493864    33A     -0.489264
      34A     -0.459203    35A     -0.457798    36A     -0.455070
      37A     -0.445315

  @DF-RHF Final Energy: -1495.09913268558171

   => Energetics <=

    Nuclear Repulsion Energy =            457.3164274277160075
    One-Electron Energy =               -2973.1638200854472416
    Two-Electron Energy =                1020.7482599721494125
    Total Energy =                      -1495.0991326855819352
  Basis Set: (AUG-CC-PVTZ AUX)
    Blend: AUG-CC-PVTZ-RI
    Molecular point group: c1

    Geometry (in Angstrom), charge = 0, multiplicity = 1:

       Center              X                  Y                   Z               Mass
    ------------   -----------------  -----------------  -----------------  -----------------
         CL           1.648854439673    -0.000007288743     0.927953029517    34.968852682000
         CL          -0.115196560327     1.450873911257    -0.910323870483    34.968852682000
         CL          -0.115205560327    -1.450866088743    -0.910332870483    34.968852682000
         C           -0.959029560327    -0.000001088743     1.232008129517    12.000000000000
         C            0.067347439673    -0.000000088743     0.104625129517    12.000000000000
         C           -2.414321560327    -0.000000088743     0.782772129517    12.000000000000
         H           -0.747498560327    -0.882281088743     1.843968129517     1.007825032230
         H           -0.747497560327     0.882277911257     1.843970129517     1.007825032230
         H           -2.650045560327    -0.887107088743     0.192238129517     1.007825032230
         H           -3.057422560327    -0.000002088743     1.666633129517     1.007825032230
         H           -2.650045560327     0.887108911257     0.192242129517     1.007825032230

  Basis Set: AUG-CC-PVTZ
    Blend: AUG-CC-PVTZ
  Basis Set: (AUG-CC-PVTZ AUX)
    Blend: AUG-CC-PVTZ-JKFIT
	 Reference Energy          =   -1495.0991326855817078 [Eh]
	 Singles Energy            =      -0.0000000000000000 [Eh]
	 Same-Spin Energy          =      -0.3177817627796449 [Eh]
	 Opposite-Spin Energy      =      -0.9705203060562473 [Eh]
	 Correlation Energy        =      -1.2883020688358922 [Eh]
	 Total Energy              =   -1496.3874347544176544 [Eh]

	 ================> DF-SCS-MP2 Energies <==================
	-----------------------------------------------------------
	 SCS Same-Spin Scale       =       0.3333333333333333 [-]
	 SCS Opposite-Spin Scale   =       1.2000000000000000 [-]
	 SCS Same-Spin Energy      =      -0.1059272542598816 [Eh]
	 SCS Opposite-Spin Energy  =      -1.1646243672674967 [Eh]
	 SCS Correlation Energy    =      -1.2705516215273784 [Eh]
	 SCS Total Energy          =   -1496.3696843071090825 [Eh]
	-----------------------------------------------------------

  Dipole Moment: [D]
     X:    -1.4368      Y:    -0.0000      Z:     1.2045     Total:     1.8749

*** Psi4 exiting successfully. Buy a developer a beer!
