                               Psi4 1.3.2 release

  ==> Input File <==

--------------------------------------------------------------------------
#psi4
#
memory 32 gb

molecule  {
0 1
 Cl        1.7654610    -0.0000070     0.7971140
 Cl       -0.0521700     1.4508740    -0.9288370
 Cl       -0.0521790    -1.4508660    -0.9288460
  C       -0.8960030    -0.0000010     1.2134950
  C        0.1704645    -0.0894047     0.1276330
  C       -2.3512950     0.0000000     0.7642590
  H       -0.6844720    -0.8822810     1.8254550
  H       -0.6844710     0.8822780     1.8254570
  H       -2.5870190    -0.8871070     0.1737250
  H       -2.9943960    -0.0000020     1.6481200
  H       -2.5870190     0.8871090     0.1737290
units angstrom
no_reorient  #important for SAPT in psi4, default
symmetry c1  #important for SAPT in psi4, default
}

set PROPERTIES_ORIGIN ["COM"]
properties('MP2/aug-cc-pvtz', properties = ['dipole'])
--------------------------------------------------------------------------

    Molecular point group: c1
  Charge       = 0
  Multiplicity = 1
  Basis Set: AUG-CC-PVTZ
    Blend: AUG-CC-PVTZ
  Basis Set: (AUG-CC-PVTZ AUX)
    Blend: AUG-CC-PVTZ-JKFIT

    Orbital Energies [Eh]
    ---------------------

    Doubly Occupied:

       1A   -104.864874     2A   -104.864439     3A   -104.840360
       4A    -11.435792     5A    -11.265458     6A    -11.233992
       7A    -10.589986     8A    -10.589515     9A    -10.564338
      10A     -8.056833    11A     -8.056355    12A     -8.054642
      13A     -8.054600    14A     -8.054188    15A     -8.054147
      16A     -8.030914    17A     -8.029092    18A     -8.029074
      19A     -1.248584    20A     -1.121938    21A     -1.090182
      22A     -1.057817    23A     -0.912954    24A     -0.786100
      25A     -0.666383    26A     -0.657518    27A     -0.629129
      28A     -0.594118    29A     -0.555019    30A     -0.531443
      31A     -0.512021    32A     -0.498357    33A     -0.487106
      34A     -0.463481    35A     -0.455095    36A     -0.446347
      37A     -0.439260

  @DF-RHF Final Energy: -1495.09471027409950

   => Energetics <=

    Nuclear Repulsion Energy =            457.5612264040236710
    One-Electron Energy =               -2973.6689716084551947
    Two-Electron Energy =                1021.0130349303320827
    Total Energy =                      -1495.0947102740992705
  Basis Set: (AUG-CC-PVTZ AUX)
    Blend: AUG-CC-PVTZ-RI
    Molecular point group: c1

    Geometry (in Angstrom), charge = 0, multiplicity = 1:

       Center              X                  Y                   Z               Mass
    ------------   -----------------  -----------------  -----------------  -----------------
         CL           1.686300237722     0.007343929682     0.839126665606    34.968852682000
         CL          -0.131330762278     1.458224929682    -0.886824334394    34.968852682000
         CL          -0.131339762278    -1.443515070318    -0.886833334394    34.968852682000
         C           -0.975163762278     0.007349929682     1.255507665606    12.000000000000
         C            0.091303737722    -0.082053770318     0.169645665606    12.000000000000
         C           -2.430455762278     0.007350929682     0.806271665606    12.000000000000
         H           -0.763632762278    -0.874930070318     1.867467665606     1.007825032230
         H           -0.763631762278     0.889628929682     1.867469665606     1.007825032230
         H           -2.666179762278    -0.879756070318     0.215737665606     1.007825032230
         H           -3.073556762278     0.007348929682     1.690132665606     1.007825032230
         H           -2.666179762278     0.894459929682     0.215741665606     1.007825032230

  Basis Set: AUG-CC-PVTZ
    Blend: AUG-CC-PVTZ
  Basis Set: (AUG-CC-PVTZ AUX)
    Blend: AUG-CC-PVTZ-JKFIT
	 Reference Energy          =   -1495.0947102740994978 [Eh]
	 Singles Energy            =      -0.0000000000000000 [Eh]
	 Same-Spin Energy          =      -0.3180350441420938 [Eh]
	 Opposite-Spin Energy      =      -0.9706371117231412 [Eh]
	 Correlation Energy        =      -1.2886721558652350 [Eh]
	 Total Energy              =   -1496.3833824299647404 [Eh]

	 ================> DF-SCS-MP2 Energies <==================
	-----------------------------------------------------------
	 SCS Same-Spin Scale       =       0.3333333333333333 [-]
	 SCS Opposite-Spin Scale   =       1.2000000000000000 [-]
	 SCS Same-Spin Energy      =      -0.1060116813806979 [Eh]
	 SCS Opposite-Spin Energy  =      -1.1647645340677693 [Eh]
	 SCS Correlation Energy    =      -1.2707762154484672 [Eh]
	 SCS Total Energy          =   -1496.3654864895479477 [Eh]
	-----------------------------------------------------------

  Dipole Moment: [D]
     X:    -1.2447      Y:    -0.5040      Z:     1.5016     Total:     2.0145

*** Psi4 exiting successfully. Buy a developer a beer!
