                               Psi4 1.3.2 release

  ==> Input File <==

--------------------------------------------------------------------------
#psi4
#
memory 32 gb

molecule  {
0 1
 Cl        1.7654610    -0.0000070     0.7971140
 Cl       -0.0521700     1.4508740    -0.9288370
 Cl       -0.0521790    -1.4508660    -0.9288460
  C       -0.8960030    -0.0000010     1.2134950
  C        0.0630535    -0.0000001     0.1600576
  C       -2.3512950     0.0000000     0.7642590
  H       -0.6844720    -0.8822810     1.8254550
  H       -0.6844710     0.8822780     1.8254570
  H       -2.5870190    -0.8871070     0.1737250
  H       -2.9943960    -0.0000020     1.6481200
  H       -2.5870190     0.8871090     0.1737290
units angstrom
no_reorient  #important for SAPT in psi4, default
symmetry c1  #important for SAPT in psi4, default
}

set PROPERTIES_ORIGIN ["COM"]
properties('MP2/aug-cc-pvtz', properties = ['dipole'])
--------------------------------------------------------------------------

    Molecular point group: c1
  Charge       = 0
  Multiplicity = 1
  Basis Set: AUG-CC-PVTZ
    Blend: AUG-CC-PVTZ
  Basis Set: (AUG-CC-PVTZ AUX)
    Blend: AUG-CC-PVTZ-JKFIT

    Orbital Energies [Eh]
    ---------------------

    Doubly Occupied:

       1A   -104.855203     2A   -104.855203     3A   -104.855083
       4A    -11.439211     5A    -11.262373     6A    -11.237904
       7A    -10.579317     8A    -10.579308     9A    -10.579155
      10A     -8.045988    11A     -8.045988    12A     -8.045823
      13A     -8.044009    14A     -8.044009    15A     -8.043993
      16A     -8.043992    17A     -8.043836    18A     -8.043820
      19A     -1.241078    20A     -1.098606    21A     -1.098525
      22A     -1.075012    23A     -0.928686    24A     -0.782972
      25A     -0.676165    26A     -0.662058    27A     -0.624981
      28A     -0.588342    29A     -0.548504    30A     -0.535280
      31A     -0.512260    32A     -0.491999    33A     -0.486962
      34A     -0.475966    35A     -0.450252    36A     -0.449701
      37A     -0.439960

  @DF-RHF Final Energy: -1495.09236410973404

   => Energetics <=

    Nuclear Repulsion Energy =            457.1501057208930092
    One-Electron Energy =               -2972.8618917214707835
    Two-Electron Energy =                1020.6194218908437961
    Total Energy =                      -1495.0923641097340351
  Basis Set: (AUG-CC-PVTZ AUX)
    Blend: AUG-CC-PVTZ-RI
    Molecular point group: c1

    Geometry (in Angstrom), charge = 0, multiplicity = 1:

       Center              X                  Y                   Z               Mass
    ------------   -----------------  -----------------  -----------------  -----------------
         CL           1.695131824732    -0.000007128441     0.836460638139    34.968852682000
         CL          -0.122499175268     1.450873871559    -0.889490361861    34.968852682000
         CL          -0.122508175268    -1.450866128441    -0.889499361861    34.968852682000
         C           -0.966332175268    -0.000001128441     1.252841638139    12.000000000000
         C           -0.007275675268    -0.000000228441     0.199404238139    12.000000000000
         C           -2.421624175268    -0.000000128441     0.803605638139    12.000000000000
         H           -0.754801175268    -0.882281128441     1.864801638139     1.007825032230
         H           -0.754800175268     0.882277871559     1.864803638139     1.007825032230
         H           -2.657348175268    -0.887107128441     0.213071638139     1.007825032230
         H           -3.064725175268    -0.000002128441     1.687466638139     1.007825032230
         H           -2.657348175268     0.887108871559     0.213075638139     1.007825032230

  Basis Set: AUG-CC-PVTZ
    Blend: AUG-CC-PVTZ
  Basis Set: (AUG-CC-PVTZ AUX)
    Blend: AUG-CC-PVTZ-JKFIT
	 Reference Energy          =   -1495.0923641097340351 [Eh]
	 Singles Energy            =      -0.0000000000000000 [Eh]
	 Same-Spin Energy          =      -0.3182628097491280 [Eh]
	 Opposite-Spin Energy      =      -0.9715764051458468 [Eh]
	 Correlation Energy        =      -1.2898392148949747 [Eh]
	 Total Energy              =   -1496.3822033246290175 [Eh]

	 ================> DF-SCS-MP2 Energies <==================
	-----------------------------------------------------------
	 SCS Same-Spin Scale       =       0.3333333333333333 [-]
	 SCS Opposite-Spin Scale   =       1.2000000000000000 [-]
	 SCS Same-Spin Energy      =      -0.1060876032497093 [Eh]
	 SCS Opposite-Spin Energy  =      -1.1658916861750162 [Eh]
	 SCS Correlation Energy    =      -1.2719792894247255 [Eh]
	 SCS Total Energy          =   -1496.3643433991587699 [Eh]
	-----------------------------------------------------------

  Dipole Moment: [D]
     X:    -1.6730      Y:    -0.0000      Z:     1.4771     Total:     2.2317

*** Psi4 exiting successfully. Buy a developer a beer!
