                               Psi4 1.3.2 release

  ==> Input File <==

--------------------------------------------------------------------------
#psi4
#
memory 32 gb

molecule  {
0 1
 Cl        1.7654610    -0.0000070     0.7971140
 Cl       -0.0521700     1.4508740    -0.9288370
 Cl       -0.0521790    -1.4508660    -0.9288460
  C       -0.8960030    -0.0000010     1.2134950
  C        0.1195619     0.0223682     0.0765826
  C       -2.3512950     0.0000000     0.7642590
  H       -0.6844720    -0.8822810     1.8254550
  H       -0.6844710     0.8822780     1.8254570
  H       -2.5870190    -0.8871070     0.1737250
  H       -2.9943960    -0.0000020     1.6481200
  H       -2.5870190     0.8871090     0.1737290
units angstrom
no_reorient  #important for SAPT in psi4, default
symmetry c1  #important for SAPT in psi4, default
}

set PROPERTIES_ORIGIN ["COM"]
properties('MP2/aug-cc-pvtz', properties = ['dipole'])
--------------------------------------------------------------------------

    Molecular point group: c1
  Charge       = 0
  Multiplicity = 1
  Basis Set: AUG-CC-PVTZ
    Blend: AUG-CC-PVTZ
  Basis Set: (AUG-CC-PVTZ AUX)
    Blend: AUG-CC-PVTZ-JKFIT

    Orbital Energies [Eh]
    ---------------------

    Doubly Occupied:

       1A   -104.861014     2A   -104.855416     3A   -104.854427
       4A    -11.434252     5A    -11.264545     6A    -11.233600
       7A    -10.585896     8A    -10.579908     9A    -10.578837
      10A     -8.052700    11A     -8.050586    12A     -8.050552
      13A     -8.046636    14A     -8.045548    15A     -8.044618
      16A     -8.044590    17A     -8.043535    18A     -8.043508
      19A     -1.244344    20A     -1.110240    21A     -1.102131
      22A     -1.059943    23A     -0.910328    24A     -0.786729
      25A     -0.667138    26A     -0.654220    27A     -0.624926
      28A     -0.597010    29A     -0.550041    30A     -0.534936
      31A     -0.512046    32A     -0.496058    33A     -0.488102
      34A     -0.459411    35A     -0.457281    36A     -0.453602
      37A     -0.442504

  @DF-RHF Final Energy: -1495.10024188732109

   => Energetics <=

    Nuclear Repulsion Energy =            457.6738199193844139
    One-Electron Energy =               -2973.9058043316663316
    Two-Electron Energy =                1021.1317425249610551
    Total Energy =                      -1495.1002418873210900
  Basis Set: (AUG-CC-PVTZ AUX)
    Blend: AUG-CC-PVTZ-RI
    Molecular point group: c1

    Geometry (in Angstrom), charge = 0, multiplicity = 1:

       Center              X                  Y                   Z               Mass
    ------------   -----------------  -----------------  -----------------  -----------------
         CL           1.690485570145    -0.001846303085     0.843324150495    34.968852682000
         CL          -0.127145429855     1.449034696915    -0.882626849505    34.968852682000
         CL          -0.127154429855    -1.452705303085    -0.882635849505    34.968852682000
         C           -0.970978429855    -0.001840303085     1.259705150495    12.000000000000
         C            0.044586470145     0.020528896915     0.122792750495    12.000000000000
         C           -2.426270429855    -0.001839303085     0.810469150495    12.000000000000
         H           -0.759447429855    -0.884120303085     1.871665150495     1.007825032230
         H           -0.759446429855     0.880438696915     1.871667150495     1.007825032230
         H           -2.661994429855    -0.888946303085     0.219935150495     1.007825032230
         H           -3.069371429855    -0.001841303085     1.694330150495     1.007825032230
         H           -2.661994429855     0.885269696915     0.219939150495     1.007825032230

  Basis Set: AUG-CC-PVTZ
    Blend: AUG-CC-PVTZ
  Basis Set: (AUG-CC-PVTZ AUX)
    Blend: AUG-CC-PVTZ-JKFIT
	 Reference Energy          =   -1495.1002418873210900 [Eh]
	 Singles Energy            =      -0.0000000000000000 [Eh]
	 Same-Spin Energy          =      -0.3177039235532844 [Eh]
	 Opposite-Spin Energy      =      -0.9702485402733193 [Eh]
	 Correlation Energy        =      -1.2879524638266036 [Eh]
	 Total Energy              =   -1496.3881943511476038 [Eh]

	 ================> DF-SCS-MP2 Energies <==================
	-----------------------------------------------------------
	 SCS Same-Spin Scale       =       0.3333333333333333 [-]
	 SCS Opposite-Spin Scale   =       1.2000000000000000 [-]
	 SCS Same-Spin Energy      =      -0.1059013078510948 [Eh]
	 SCS Opposite-Spin Energy  =      -1.1642982483279831 [Eh]
	 SCS Correlation Energy    =      -1.2701995561790780 [Eh]
	 SCS Total Energy          =   -1496.3704414435001127 [Eh]
	-----------------------------------------------------------

  Dipole Moment: [D]
     X:    -1.5282      Y:     0.1269      Z:     1.2226     Total:     1.9612

*** Psi4 exiting successfully. Buy a developer a beer!
