                               Psi4 1.3.2 release

  ==> Input File <==

--------------------------------------------------------------------------
#psi4
#
memory 32 gb

molecule  {
0 1
 Cl        1.7654610    -0.0000070     0.7971140
 Cl       -0.0521700     1.4508740    -0.9288370
 Cl       -0.0521790    -1.4508660    -0.9288460
  C       -0.8960030    -0.0000010     1.2134950
  C        0.0492315     0.0000001     0.0172618
  C       -2.3512950     0.0000000     0.7642590
  H       -0.6844720    -0.8822810     1.8254550
  H       -0.6844710     0.8822780     1.8254570
  H       -2.5870190    -0.8871070     0.1737250
  H       -2.9943960    -0.0000020     1.6481200
  H       -2.5870190     0.8871090     0.1737290
units angstrom
no_reorient  #important for SAPT in psi4, default
symmetry c1  #important for SAPT in psi4, default
}

set PROPERTIES_ORIGIN ["COM"]
properties('MP2/aug-cc-pvtz', properties = ['dipole'])
--------------------------------------------------------------------------

    Molecular point group: c1
  Charge       = 0
  Multiplicity = 1
  Basis Set: AUG-CC-PVTZ
    Blend: AUG-CC-PVTZ
  Basis Set: (AUG-CC-PVTZ AUX)
    Blend: AUG-CC-PVTZ-JKFIT

    Orbital Energies [Eh]
    ---------------------

    Doubly Occupied:

       1A   -104.864942     2A   -104.864942     3A   -104.839782
       4A    -11.435738     5A    -11.265187     6A    -11.233937
       7A    -10.590031     8A    -10.590022     9A    -10.563695
      10A     -8.056874    11A     -8.056874    12A     -8.054695
      13A     -8.054695    14A     -8.054655    15A     -8.054654
      16A     -8.030256    17A     -8.028432    18A     -8.028415
      19A     -1.248453    20A     -1.122244    21A     -1.088019
      22A     -1.061404    23A     -0.908090    24A     -0.790229
      25A     -0.670867    26A     -0.655374    27A     -0.622485
      28A     -0.601447    29A     -0.546097    30A     -0.540085
      31A     -0.516134    32A     -0.499446    33A     -0.485746
      34A     -0.463980    35A     -0.452001    36A     -0.445868
      37A     -0.439009

  @DF-RHF Final Energy: -1495.09458966382385

   => Energetics <=

    Nuclear Repulsion Energy =            457.7889608573613032
    One-Electron Energy =               -2974.1174901575705007
    Two-Electron Energy =                1021.2339396363853439
    Total Energy =                      -1495.0945896638236263
  Basis Set: (AUG-CC-PVTZ AUX)
    Blend: AUG-CC-PVTZ-RI
    Molecular point group: c1

    Geometry (in Angstrom), charge = 0, multiplicity = 1:

       Center              X                  Y                   Z               Mass
    ------------   -----------------  -----------------  -----------------  -----------------
         CL           1.696268302333    -0.000007144885     0.848201647276    34.968852682000
         CL          -0.121362697667     1.450873855115    -0.877749352724    34.968852682000
         CL          -0.121371697667    -1.450866144885    -0.877758352724    34.968852682000
         C           -0.965195697667    -0.000001144885     1.264582647276    12.000000000000
         C           -0.019961197667    -0.000000044885     0.068349447276    12.000000000000
         C           -2.420487697667    -0.000000144885     0.815346647276    12.000000000000
         H           -0.753664697667    -0.882281144885     1.876542647276     1.007825032230
         H           -0.753663697667     0.882277855115     1.876544647276     1.007825032230
         H           -2.656211697667    -0.887107144885     0.224812647276     1.007825032230
         H           -3.063588697667    -0.000002144885     1.699207647276     1.007825032230
         H           -2.656211697667     0.887108855115     0.224816647276     1.007825032230

  Basis Set: AUG-CC-PVTZ
    Blend: AUG-CC-PVTZ
  Basis Set: (AUG-CC-PVTZ AUX)
    Blend: AUG-CC-PVTZ-JKFIT
	 Reference Energy          =   -1495.0945896638238537 [Eh]
	 Singles Energy            =      -0.0000000000000000 [Eh]
	 Same-Spin Energy          =      -0.3180486414662186 [Eh]
	 Opposite-Spin Energy      =      -0.9707669098009454 [Eh]
	 Correlation Energy        =      -1.2888155512671640 [Eh]
	 Total Energy              =   -1496.3834052150909883 [Eh]

	 ================> DF-SCS-MP2 Energies <==================
	-----------------------------------------------------------
	 SCS Same-Spin Scale       =       0.3333333333333333 [-]
	 SCS Opposite-Spin Scale   =       1.2000000000000000 [-]
	 SCS Same-Spin Energy      =      -0.1060162138220729 [Eh]
	 SCS Opposite-Spin Energy  =      -1.1649202917611343 [Eh]
	 SCS Correlation Energy    =      -1.2709365055832071 [Eh]
	 SCS Total Energy          =   -1496.3655261694070759 [Eh]
	-----------------------------------------------------------

  Dipole Moment: [D]
     X:    -1.9079      Y:    -0.0000      Z:     0.8871     Total:     2.1040

*** Psi4 exiting successfully. Buy a developer a beer!
