                               Psi4 1.3.2 release

  ==> Input File <==

--------------------------------------------------------------------------
#psi4
#
memory 32 gb

molecule  {
0 1
 Cl        1.7654610    -0.0000070     0.7971140
 Cl       -0.0521700     1.4508740    -0.9288370
 Cl       -0.0521790    -1.4508660    -0.9288460
  C       -0.8960030    -0.0000010     1.2134950
  C        0.0609302     0.1339709     0.0341848
  C       -2.3512950     0.0000000     0.7642590
  H       -0.6844720    -0.8822810     1.8254550
  H       -0.6844710     0.8822780     1.8254570
  H       -2.5870190    -0.8871070     0.1737250
  H       -2.9943960    -0.0000020     1.6481200
  H       -2.5870190     0.8871090     0.1737290
units angstrom
no_reorient  #important for SAPT in psi4, default
symmetry c1  #important for SAPT in psi4, default
}

set PROPERTIES_ORIGIN ["COM"]
properties('MP2/aug-cc-pvtz', properties = ['dipole'])
--------------------------------------------------------------------------

    Molecular point group: c1
  Charge       = 0
  Multiplicity = 1
  Basis Set: AUG-CC-PVTZ
    Blend: AUG-CC-PVTZ
  Basis Set: (AUG-CC-PVTZ AUX)
    Blend: AUG-CC-PVTZ-JKFIT

    Orbital Energies [Eh]
    ---------------------

    Doubly Occupied:

       1A   -104.878958     2A   -104.845828     3A   -104.843034
       4A    -11.437263     5A    -11.266246     6A    -11.234174
       7A    -10.605935     8A    -10.569798     9A    -10.566930
      10A     -8.073050    11A     -8.070506    12A     -8.070439
      13A     -8.036407    14A     -8.034522    15A     -8.034502
      16A     -8.033507    17A     -8.031648    18A     -8.031630
      19A     -1.259657    20A     -1.121308    21A     -1.082723
      22A     -1.060811    23A     -0.909276    24A     -0.791894
      25A     -0.669941    26A     -0.660329    27A     -0.629074
      28A     -0.598302    29A     -0.550130    30A     -0.540328
      31A     -0.519042    32A     -0.497778    33A     -0.476315
      34A     -0.461200    35A     -0.451966    36A     -0.448064
      37A     -0.433612

  @DF-RHF Final Energy: -1495.08423910132956

   => Energetics <=

    Nuclear Repulsion Energy =            457.7943558919754992
    One-Electron Energy =               -2974.1049341590314725
    Two-Electron Energy =                1021.2263391657262446
    Total Energy =                      -1495.0842391013297856
  Basis Set: (AUG-CC-PVTZ AUX)
    Blend: AUG-CC-PVTZ-RI
    Molecular point group: c1

    Geometry (in Angstrom), charge = 0, multiplicity = 1:

       Center              X                  Y                   Z               Mass
    ------------   -----------------  -----------------  -----------------  -----------------
         CL           1.695306407491    -0.011022541605     0.846810198105    34.968852682000
         CL          -0.122324592509     1.439858458395    -0.879140801895    34.968852682000
         CL          -0.122333592509    -1.461881541605    -0.879149801895    34.968852682000
         C           -0.966157592509    -0.011016541605     1.263191198105    12.000000000000
         C           -0.009224392509     0.122955358395     0.083880998105    12.000000000000
         C           -2.421449592509    -0.011015541605     0.813955198105    12.000000000000
         H           -0.754626592509    -0.893296541605     1.875151198105     1.007825032230
         H           -0.754625592509     0.871262458395     1.875153198105     1.007825032230
         H           -2.657173592509    -0.898122541605     0.223421198105     1.007825032230
         H           -3.064550592509    -0.011017541605     1.697816198105     1.007825032230
         H           -2.657173592509     0.876093458395     0.223425198105     1.007825032230

  Basis Set: AUG-CC-PVTZ
    Blend: AUG-CC-PVTZ
  Basis Set: (AUG-CC-PVTZ AUX)
    Blend: AUG-CC-PVTZ-JKFIT
	 Reference Energy          =   -1495.0842391013295583 [Eh]
	 Singles Energy            =      -0.0000000000000000 [Eh]
	 Same-Spin Energy          =      -0.3186527265577426 [Eh]
	 Opposite-Spin Energy      =      -0.9715844768183434 [Eh]
	 Correlation Energy        =      -1.2902372033760861 [Eh]
	 Total Energy              =   -1496.3744763047056949 [Eh]

	 ================> DF-SCS-MP2 Energies <==================
	-----------------------------------------------------------
	 SCS Same-Spin Scale       =       0.3333333333333333 [-]
	 SCS Opposite-Spin Scale   =       1.2000000000000000 [-]
	 SCS Same-Spin Energy      =      -0.1062175755192475 [Eh]
	 SCS Opposite-Spin Energy  =      -1.1659013721820120 [Eh]
	 SCS Correlation Energy    =      -1.2721189477012596 [Eh]
	 SCS Total Energy          =   -1496.3563580490308595 [Eh]
	-----------------------------------------------------------

  Dipole Moment: [D]
     X:    -1.8535      Y:     0.7952      Z:     0.9539     Total:     2.2311

*** Psi4 exiting successfully. Buy a developer a beer!
