                               Psi4 1.4a3.dev225

  ==> Input File <==

--------------------------------------------------------------------------
#psi4
#
memory 32 gb

molecule  {
0 1
 Cl        1.7654610    -0.0000070     0.7971140
 Cl       -0.0521700     1.4508740    -0.9288370
 Cl       -0.0521790    -1.4508660    -0.9288460
  C       -0.8960030    -0.0000010     1.2134950
  C        0.1169099    -0.0000000     0.1009011
  C       -2.3512950     0.0000000     0.7642590
  H       -0.6844720    -0.8822810     1.8254550
  H       -0.6844710     0.8822780     1.8254570
  H       -2.5870190    -0.8871070     0.1737250
  H       -2.9943960    -0.0000020     1.6481200
  H       -2.5870190     0.8871090     0.1737290
units angstrom
no_reorient  #important for SAPT in psi4, default
symmetry c1  #important for SAPT in psi4, default
}

set PROPERTIES_ORIGIN ["COM"]
properties('MP2/aug-cc-pvtz', properties = ['dipole'])
--------------------------------------------------------------------------

    Molecular point group: c1
  Charge       = 0
  Multiplicity = 1
  Basis Set: AUG-CC-PVTZ
    Blend: AUG-CC-PVTZ
  Basis Set: (AUG-CC-PVTZ AUX)
    Blend: AUG-CC-PVTZ-JKFIT

    Orbital Energies [Eh]
    ---------------------

    Doubly Occupied:

       1A   -104.856874     2A   -104.856874     3A   -104.856299
       4A    -11.435198     5A    -11.264096     6A    -11.234331
       7A    -10.581390     8A    -10.581381     9A    -10.580749
      10A     -8.048122    11A     -8.048122    12A     -8.047474
      13A     -8.046089    14A     -8.046089    15A     -8.046062
      16A     -8.046061    17A     -8.045440    18A     -8.045413
      19A     -1.243173    20A     -1.105236    21A     -1.104459
      22A     -1.062465    23A     -0.914250    24A     -0.785601
      25A     -0.668336    26A     -0.655848    27A     -0.624738
      28A     -0.594924    29A     -0.550173    30A     -0.534411
      31A     -0.511722    32A     -0.494490    33A     -0.489066
      34A     -0.463475    35A     -0.454909    36A     -0.454066
      37A     -0.442328

  @DF-RHF Final Energy: -1495.10039869078241

   => Energetics <=

    Nuclear Repulsion Energy =            457.5556342018666101
    One-Electron Energy =               -2973.6725992683932418
    Two-Electron Energy =                1021.0165663757441052
    Total Energy =                      -1495.1003986907824128
  Basis Set: (AUG-CC-PVTZ AUX)
    Blend: AUG-CC-PVTZ-RI
    Molecular point group: c1

    Geometry (in Angstrom), charge = 0, multiplicity = 1:

       Center              X                  Y                   Z               Mass
    ------------   -----------------  -----------------  -----------------  -----------------
         CL           1.690703623871    -0.000007136663     0.841324625785    34.968852682000
         CL          -0.126927376129     1.450873863337    -0.884626374215    34.968852682000
         CL          -0.126936376129    -1.450866136663    -0.884635374215    34.968852682000
         C           -0.970760376129    -0.000001136663     1.257705625785    12.000000000000
         C            0.042152523871    -0.000000136663     0.145111725785    12.000000000000
         C           -2.426052376129    -0.000000136663     0.808469625785    12.000000000000
         H           -0.759229376129    -0.882281136663     1.869665625785     1.007825032230
         H           -0.759228376129     0.882277863337     1.869667625785     1.007825032230
         H           -2.661776376129    -0.887107136663     0.217935625785     1.007825032230
         H           -3.069153376129    -0.000002136663     1.692330625785     1.007825032230
         H           -2.661776376129     0.887108863337     0.217939625785     1.007825032230

  Basis Set: AUG-CC-PVTZ
    Blend: AUG-CC-PVTZ
  Basis Set: (AUG-CC-PVTZ AUX)
    Blend: AUG-CC-PVTZ-JKFIT
	 Reference Energy          =   -1495.1003986907824128 [Eh]
	 Singles Energy            =      -0.0000000000000000 [Eh]
	 Same-Spin Energy          =      -0.3177297046642879 [Eh]
	 Opposite-Spin Energy      =      -0.9703686217460067 [Eh]
	 Correlation Energy        =      -1.2880983264102945 [Eh]
	 Total Energy              =   -1496.3884970171927762 [Eh]

	 ================> DF-SCS-MP2 Energies <==================
	-----------------------------------------------------------
	 SCS Same-Spin Scale       =       0.3333333333333333 [-]
	 SCS Opposite-Spin Scale   =       1.2000000000000000 [-]
	 SCS Same-Spin Energy      =      -0.1059099015547626 [Eh]
	 SCS Opposite-Spin Energy  =      -1.1644423460952080 [Eh]
	 SCS Correlation Energy    =      -1.2703522476499707 [Eh]
	 SCS Total Energy          =   -1496.3707509384323657 [Eh]
	-----------------------------------------------------------

  Dipole Moment: [D]
     X:    -1.5034      Y:    -0.0000      Z:     1.3107     Total:     1.9945

*** Psi4 exiting successfully. Buy a developer a beer!
