                               Psi4 1.3.2 release

  ==> Input File <==

--------------------------------------------------------------------------
#psi4
#
memory 32 gb

molecule  {
0 1
 Cl        1.7654610    -0.0000070     0.7971140
 Cl       -0.0521700     1.4508740    -0.9288370
 Cl       -0.0521790    -1.4508660    -0.9288460
  C       -0.8960030    -0.0000010     1.2134950
  C        0.1885726    -0.1339709     0.1503911
  C       -2.3512950     0.0000000     0.7642590
  H       -0.6844720    -0.8822810     1.8254550
  H       -0.6844710     0.8822780     1.8254570
  H       -2.5870190    -0.8871070     0.1737250
  H       -2.9943960    -0.0000020     1.6481200
  H       -2.5870190     0.8871090     0.1737290
units angstrom
no_reorient  #important for SAPT in psi4, default
symmetry c1  #important for SAPT in psi4, default
}

set PROPERTIES_ORIGIN ["COM"]
properties('MP2/aug-cc-pvtz', properties = ['dipole'])
--------------------------------------------------------------------------

    Molecular point group: c1
  Charge       = 0
  Multiplicity = 1
  Basis Set: AUG-CC-PVTZ
    Blend: AUG-CC-PVTZ
  Basis Set: (AUG-CC-PVTZ AUX)
    Blend: AUG-CC-PVTZ-JKFIT

    Orbital Energies [Eh]
    ---------------------

    Doubly Occupied:

       1A   -104.869222     2A   -104.868259     3A   -104.830692
       4A    -11.437880     5A    -11.266601     6A    -11.234415
       7A    -10.594617     8A    -10.593537     9A    -10.554602
      10A     -8.061516    11A     -8.060415    12A     -8.059251
      13A     -8.059198    14A     -8.058191    15A     -8.058141
      16A     -8.021106    17A     -8.019383    18A     -8.019367
      19A     -1.253367    20A     -1.129949    21A     -1.082647
      22A     -1.055363    23A     -0.914519    24A     -0.786973
      25A     -0.668103    26A     -0.658779    27A     -0.633216
      28A     -0.592959    29A     -0.557637    30A     -0.530760
      31A     -0.513086    32A     -0.501412    33A     -0.486674
      34A     -0.467833    35A     -0.448726    36A     -0.439583
      37A     -0.435133

  @DF-RHF Final Energy: -1495.08785787753914

   => Energetics <=

    Nuclear Repulsion Energy =            457.4922090365512872
    One-Electron Energy =               -2973.5139063714022996
    Two-Electron Energy =                1020.9338394573119331
    Total Energy =                      -1495.0878578775391361
  Basis Set: (AUG-CC-PVTZ AUX)
    Blend: AUG-CC-PVTZ-RI
    Molecular point group: c1

    Geometry (in Angstrom), charge = 0, multiplicity = 1:

       Center              X                  Y                   Z               Mass
    ------------   -----------------  -----------------  -----------------  -----------------
         CL           1.684811346819     0.011008268279     0.837255440681    34.968852682000
         CL          -0.132819653181     1.461889268279    -0.888695559319    34.968852682000
         CL          -0.132828653181    -1.439850731721    -0.888704559319    34.968852682000
         C           -0.976652653181     0.011014268279     1.253636440681    12.000000000000
         C            0.107922946819    -0.122955631721     0.190532540681    12.000000000000
         C           -2.431944653181     0.011015268279     0.804400440681    12.000000000000
         H           -0.765121653181    -0.871265731721     1.865596440681     1.007825032230
         H           -0.765120653181     0.893293268279     1.865598440681     1.007825032230
         H           -2.667668653181    -0.876091731721     0.213866440681     1.007825032230
         H           -3.075045653181     0.011013268279     1.688261440681     1.007825032230
         H           -2.667668653181     0.898124268279     0.213870440681     1.007825032230

  Basis Set: AUG-CC-PVTZ
    Blend: AUG-CC-PVTZ
  Basis Set: (AUG-CC-PVTZ AUX)
    Blend: AUG-CC-PVTZ-JKFIT
	 Reference Energy          =   -1495.0878578775391361 [Eh]
	 Singles Energy            =      -0.0000000000000000 [Eh]
	 Same-Spin Energy          =      -0.3184396441095253 [Eh]
	 Opposite-Spin Energy      =      -0.9711241641379844 [Eh]
	 Correlation Energy        =      -1.2895638082475096 [Eh]
	 Total Energy              =   -1496.3774216857866577 [Eh]

	 ================> DF-SCS-MP2 Energies <==================
	-----------------------------------------------------------
	 SCS Same-Spin Scale       =       0.3333333333333333 [-]
	 SCS Opposite-Spin Scale   =       1.2000000000000000 [-]
	 SCS Same-Spin Energy      =      -0.1061465480365084 [Eh]
	 SCS Opposite-Spin Energy  =      -1.1653489969655813 [Eh]
	 SCS Correlation Energy    =      -1.2714955450020897 [Eh]
	 SCS Total Energy          =   -1496.3593534225412895 [Eh]
	-----------------------------------------------------------

  Dipole Moment: [D]
     X:    -1.1373      Y:    -0.7599      Z:     1.6236     Total:     2.1230

*** Psi4 exiting successfully. Buy a developer a beer!
