                               Psi4 1.3.2 release

  ==> Input File <==

--------------------------------------------------------------------------
#psi4
#
memory 32 gb

molecule  {
0 1
 Cl        1.7654610    -0.0000070     0.7971140
 Cl       -0.0521700     1.4508740    -0.9288370
 Cl       -0.0521790    -1.4508660    -0.9288460
  C       -0.8960030    -0.0000010     1.2134950
  C        0.1498932    -0.0000000     0.1041965
  C       -2.3512950     0.0000000     0.7642590
  H       -0.6844720    -0.8822810     1.8254550
  H       -0.6844710     0.8822780     1.8254570
  H       -2.5870190    -0.8871070     0.1737250
  H       -2.9943960    -0.0000020     1.6481200
  H       -2.5870190     0.8871090     0.1737290
units angstrom
no_reorient  #important for SAPT in psi4, default
symmetry c1  #important for SAPT in psi4, default
}

set PROPERTIES_ORIGIN ["COM"]
properties('MP2/aug-cc-pvtz', properties = ['dipole'])
--------------------------------------------------------------------------

    Molecular point group: c1
  Charge       = 0
  Multiplicity = 1
  Basis Set: AUG-CC-PVTZ
    Blend: AUG-CC-PVTZ
  Basis Set: (AUG-CC-PVTZ AUX)
    Blend: AUG-CC-PVTZ-JKFIT

    Orbital Energies [Eh]
    ---------------------

    Doubly Occupied:

       1A   -104.860312     2A   -104.855274     3A   -104.855273
       4A    -11.434264     5A    -11.264599     6A    -11.233669
       7A    -10.585128     8A    -10.579771     9A    -10.579762
      10A     -8.051920    11A     -8.049807    12A     -8.049773
      13A     -8.046493    14A     -8.046493    15A     -8.044477
      16A     -8.044477    17A     -8.044450    18A     -8.044448
      19A     -1.244325    20A     -1.109784    21A     -1.102967
      22A     -1.059188    23A     -0.911525    24A     -0.785649
      25A     -0.666062    26A     -0.655436    27A     -0.625266
      28A     -0.595869    29A     -0.552302    30A     -0.532476
      31A     -0.511124    32A     -0.493140    33A     -0.491490
      34A     -0.460086    35A     -0.456370    36A     -0.454287
      37A     -0.442683

  @DF-RHF Final Energy: -1495.10027322773794

   => Energetics <=

    Nuclear Repulsion Energy =            457.6176445265447796
    One-Electron Energy =               -2973.7949992065573497
    Two-Electron Energy =                1021.0770814522747969
    Total Energy =                      -1495.1002732277379437
  Basis Set: (AUG-CC-PVTZ AUX)
    Blend: AUG-CC-PVTZ-RI
    Molecular point group: c1

    Geometry (in Angstrom), charge = 0, multiplicity = 1:

       Center              X                  Y                   Z               Mass
    ------------   -----------------  -----------------  -----------------  -----------------
         CL           1.687991658767    -0.000007136663     0.841053670186    34.968852682000
         CL          -0.129639341233     1.450873863337    -0.884897329814    34.968852682000
         CL          -0.129648341233    -1.450866136663    -0.884906329814    34.968852682000
         C           -0.973472341233    -0.000001136663     1.257434670186    12.000000000000
         C            0.072423858767    -0.000000136663     0.148136170186    12.000000000000
         C           -2.428764341233    -0.000000136663     0.808198670186    12.000000000000
         H           -0.761941341233    -0.882281136663     1.869394670186     1.007825032230
         H           -0.761940341233     0.882277863337     1.869396670186     1.007825032230
         H           -2.664488341233    -0.887107136663     0.217664670186     1.007825032230
         H           -3.071865341233    -0.000002136663     1.692059670186     1.007825032230
         H           -2.664488341233     0.887108863337     0.217668670186     1.007825032230

  Basis Set: AUG-CC-PVTZ
    Blend: AUG-CC-PVTZ
  Basis Set: (AUG-CC-PVTZ AUX)
    Blend: AUG-CC-PVTZ-JKFIT
	 Reference Energy          =   -1495.1002732277379437 [Eh]
	 Singles Energy            =      -0.0000000000000000 [Eh]
	 Same-Spin Energy          =      -0.3177005783600240 [Eh]
	 Opposite-Spin Energy      =      -0.9702210781936548 [Eh]
	 Correlation Energy        =      -1.2879216565536789 [Eh]
	 Total Energy              =   -1496.3881948842915790 [Eh]

	 ================> DF-SCS-MP2 Energies <==================
	-----------------------------------------------------------
	 SCS Same-Spin Scale       =       0.3333333333333333 [-]
	 SCS Opposite-Spin Scale   =       1.2000000000000000 [-]
	 SCS Same-Spin Energy      =      -0.1059001927866746 [Eh]
	 SCS Opposite-Spin Energy  =      -1.1642652938323856 [Eh]
	 SCS Correlation Energy    =      -1.2701654866190604 [Eh]
	 SCS Total Energy          =   -1496.3704387143570784 [Eh]
	-----------------------------------------------------------

  Dipole Moment: [D]
     X:    -1.3615      Y:    -0.0000      Z:     1.3773     Total:     1.9366

*** Psi4 exiting successfully. Buy a developer a beer!
