                               Psi4 1.4a3.dev225

  ==> Input File <==

--------------------------------------------------------------------------
#psi4
#
memory 32 gb

molecule  {
0 1
 Cl        1.7654610    -0.0000070     0.7971140
 Cl       -0.0521700     1.4508740    -0.9288370
 Cl       -0.0521790    -1.4508660    -0.9288460
  C       -0.8960030    -0.0000010     1.2134950
  C        0.1438381     0.0000000     0.0713229
  C       -2.3512950     0.0000000     0.7642590
  H       -0.6844720    -0.8822810     1.8254550
  H       -0.6844710     0.8822780     1.8254570
  H       -2.5870190    -0.8871070     0.1737250
  H       -2.9943960    -0.0000020     1.6481200
  H       -2.5870190     0.8871090     0.1737290
units angstrom
no_reorient  #important for SAPT in psi4, default
symmetry c1  #important for SAPT in psi4, default
}

set PROPERTIES_ORIGIN ["COM"]
properties('MP2/aug-cc-pvtz', properties = ['dipole'])
--------------------------------------------------------------------------

    Molecular point group: c1
  Charge       = 0
  Multiplicity = 1
  Basis Set: AUG-CC-PVTZ
    Blend: AUG-CC-PVTZ
  Basis Set: (AUG-CC-PVTZ AUX)
    Blend: AUG-CC-PVTZ-JKFIT

    Orbital Energies [Eh]
    ---------------------

    Doubly Occupied:

       1A   -104.857518     2A   -104.857518     3A   -104.856730
       4A    -11.433125     5A    -11.264915     6A    -11.232930
       7A    -10.582230     8A    -10.582221     9A    -10.581362
      10A     -8.048993    11A     -8.048993    12A     -8.048115
      13A     -8.046931    14A     -8.046930    15A     -8.046898
      16A     -8.046897    17A     -8.046055    18A     -8.046022
      19A     -1.244837    20A     -1.108340    21A     -1.107228
      22A     -1.057073    23A     -0.907236    24A     -0.786919
      25A     -0.665197    26A     -0.653136    27A     -0.625176
      28A     -0.598292    29A     -0.551338    30A     -0.533681
      31A     -0.511401    32A     -0.495308    33A     -0.489915
      34A     -0.457137    35A     -0.457037    36A     -0.454608
      37A     -0.443319

  @DF-RHF Final Energy: -1495.10033322370191

   => Energetics <=

    Nuclear Repulsion Energy =            457.7503465411738262
    One-Electron Energy =               -2974.0582468263687588
    Two-Electron Energy =                1021.2075670614930232
    Total Energy =                      -1495.1003332237019094
  Basis Set: (AUG-CC-PVTZ AUX)
    Blend: AUG-CC-PVTZ-RI
    Molecular point group: c1

    Geometry (in Angstrom), charge = 0, multiplicity = 1:

       Center              X                  Y                   Z               Mass
    ------------   -----------------  -----------------  -----------------  -----------------
         CL           1.688489523441    -0.000007136663     0.843756615496    34.968852682000
         CL          -0.129141476559     1.450873863337    -0.882194384504    34.968852682000
         CL          -0.129150476559    -1.450866136663    -0.882203384504    34.968852682000
         C           -0.972974476559    -0.000001136663     1.260137615496    12.000000000000
         C            0.066866623441    -0.000000136663     0.117965515496    12.000000000000
         C           -2.428266476559    -0.000000136663     0.810901615496    12.000000000000
         H           -0.761443476559    -0.882281136663     1.872097615496     1.007825032230
         H           -0.761442476559     0.882277863337     1.872099615496     1.007825032230
         H           -2.663990476559    -0.887107136663     0.220367615496     1.007825032230
         H           -3.071367476559    -0.000002136663     1.694762615496     1.007825032230
         H           -2.663990476559     0.887108863337     0.220371615496     1.007825032230

  Basis Set: AUG-CC-PVTZ
    Blend: AUG-CC-PVTZ
  Basis Set: (AUG-CC-PVTZ AUX)
    Blend: AUG-CC-PVTZ-JKFIT
	 Reference Energy          =   -1495.1003332237019094 [Eh]
	 Singles Energy            =      -0.0000000000000000 [Eh]
	 Same-Spin Energy          =      -0.3176548549372333 [Eh]
	 Opposite-Spin Energy      =      -0.9700942112264801 [Eh]
	 Correlation Energy        =      -1.2877490661637134 [Eh]
	 Total Energy              =   -1496.3880822898656788 [Eh]

	 ================> DF-SCS-MP2 Energies <==================
	-----------------------------------------------------------
	 SCS Same-Spin Scale       =       0.3333333333333333 [-]
	 SCS Opposite-Spin Scale   =       1.2000000000000000 [-]
	 SCS Same-Spin Energy      =      -0.1058849516457444 [Eh]
	 SCS Opposite-Spin Energy  =      -1.1641130534717761 [Eh]
	 SCS Correlation Energy    =      -1.2699980051175206 [Eh]
	 SCS Total Energy          =   -1496.3703312288193956 [Eh]
	-----------------------------------------------------------

  Dipole Moment: [D]
     X:    -1.4377      Y:    -0.0000      Z:     1.2445     Total:     1.9015

*** Psi4 exiting successfully. Buy a developer a beer!
