                               Psi4 1.3.2 release

  ==> Input File <==

--------------------------------------------------------------------------
#psi4
#
memory 32 gb

molecule  {
0 1
 Cl        1.7396513    -0.0000071     0.8537446
 Cl       -0.0521700     1.4508740    -0.9288370
 Cl       -0.0521790    -1.4508660    -0.9288460
  C       -0.8960030    -0.0000010     1.2134950
  C        0.1303740     0.0000000     0.0861120
  C       -2.3512950     0.0000000     0.7642590
  H       -0.6844720    -0.8822810     1.8254550
  H       -0.6844710     0.8822780     1.8254570
  H       -2.5870190    -0.8871070     0.1737250
  H       -2.9943960    -0.0000020     1.6481200
  H       -2.5870190     0.8871090     0.1737290
units angstrom
no_reorient  #important for SAPT in psi4, default
symmetry c1  #important for SAPT in psi4, default
}

set PROPERTIES_ORIGIN ["COM"]
properties('MP2/aug-cc-pvtz', properties = ['dipole'])
--------------------------------------------------------------------------

    Molecular point group: c1
  Charge       = 0
  Multiplicity = 1
  Basis Set: AUG-CC-PVTZ
    Blend: AUG-CC-PVTZ
  Basis Set: (AUG-CC-PVTZ AUX)
    Blend: AUG-CC-PVTZ-JKFIT

    Orbital Energies [Eh]
    ---------------------

    Doubly Occupied:

       1A   -104.858105     2A   -104.858105     3A   -104.856604
       4A    -11.434013     5A    -11.263521     6A    -11.232719
       7A    -10.582643     8A    -10.582634     9A    -10.581161
      10A     -8.049393    11A     -8.049393    12A     -8.047900
      13A     -8.047345    14A     -8.047345    15A     -8.047315
      16A     -8.047313    17A     -8.045856    18A     -8.045825
      19A     -1.243878    20A     -1.107203    21A     -1.107178
      22A     -1.058702    23A     -0.909963    24A     -0.786351
      25A     -0.666758    26A     -0.653332    27A     -0.625964
      28A     -0.596012    29A     -0.550485    30A     -0.534069
      31A     -0.510923    32A     -0.494411    33A     -0.489386
      34A     -0.458777    35A     -0.456902    36A     -0.455918
      37A     -0.444116

  @DF-RHF Final Energy: -1495.10020395861875

   => Energetics <=

    Nuclear Repulsion Energy =            457.4590427093812650
    One-Electron Energy =               -2973.4634587346927219
    Two-Electron Energy =                1020.9042120666927076
    Total Energy =                      -1495.1002039586187493
  Basis Set: (AUG-CC-PVTZ AUX)
    Blend: AUG-CC-PVTZ-RI
    Molecular point group: c1

    Geometry (in Angstrom), charge = 0, multiplicity = 1:

       Center              X                  Y                   Z               Mass
    ------------   -----------------  -----------------  -----------------  -----------------
         CL           1.669970924991    -0.000007212703     0.885602425283    34.968852682000
         CL          -0.121850375009     1.450873887297    -0.896979174717    34.968852682000
         CL          -0.121859375009    -1.450866112703    -0.896988174717    34.968852682000
         C           -0.965683375009    -0.000001112703     1.245352825283    12.000000000000
         C            0.060693624991    -0.000000112703     0.117969825283    12.000000000000
         C           -2.420975375009    -0.000000112703     0.796116825283    12.000000000000
         H           -0.754152375009    -0.882281112703     1.857312825283     1.007825032230
         H           -0.754151375009     0.882277887297     1.857314825283     1.007825032230
         H           -2.656699375009    -0.887107112703     0.205582825283     1.007825032230
         H           -3.064076375009    -0.000002112703     1.679977825283     1.007825032230
         H           -2.656699375009     0.887108887297     0.205586825283     1.007825032230

  Basis Set: AUG-CC-PVTZ
    Blend: AUG-CC-PVTZ
  Basis Set: (AUG-CC-PVTZ AUX)
    Blend: AUG-CC-PVTZ-JKFIT
	 Reference Energy          =   -1495.1002039586187493 [Eh]
	 Singles Energy            =      -0.0000000000000000 [Eh]
	 Same-Spin Energy          =      -0.3177136389698907 [Eh]
	 Opposite-Spin Energy      =      -0.9703343326951198 [Eh]
	 Correlation Energy        =      -1.2880479716650104 [Eh]
	 Total Energy              =   -1496.3882519302837864 [Eh]

	 ================> DF-SCS-MP2 Energies <==================
	-----------------------------------------------------------
	 SCS Same-Spin Scale       =       0.3333333333333333 [-]
	 SCS Opposite-Spin Scale   =       1.2000000000000000 [-]
	 SCS Same-Spin Energy      =      -0.1059045463232969 [Eh]
	 SCS Opposite-Spin Energy  =      -1.1644011992341436 [Eh]
	 SCS Correlation Energy    =      -1.2703057455574405 [Eh]
	 SCS Total Energy          =   -1496.3705097041761292 [Eh]
	-----------------------------------------------------------

  Dipole Moment: [D]
     X:    -1.4532      Y:    -0.0000      Z:     1.2404     Total:     1.9106

*** Psi4 exiting successfully. Buy a developer a beer!
