                               Psi4 1.3.2 release

  ==> Input File <==

--------------------------------------------------------------------------
#psi4
#
memory 32 gb

molecule  {
0 1
 Cl        1.7776207    -0.0000069     0.7684695
 Cl       -0.0521700     1.4508740    -0.9288370
 Cl       -0.0521790    -1.4508660    -0.9288460
  C       -0.8960030    -0.0000010     1.2134950
  C        0.1303740     0.0000000     0.0861120
  C       -2.3512950     0.0000000     0.7642590
  H       -0.6844720    -0.8822810     1.8254550
  H       -0.6844710     0.8822780     1.8254570
  H       -2.5870190    -0.8871070     0.1737250
  H       -2.9943960    -0.0000020     1.6481200
  H       -2.5870190     0.8871090     0.1737290
units angstrom
no_reorient  #important for SAPT in psi4, default
symmetry c1  #important for SAPT in psi4, default
}

set PROPERTIES_ORIGIN ["COM"]
properties('MP2/aug-cc-pvtz', properties = ['dipole'])
--------------------------------------------------------------------------

    Molecular point group: c1
  Charge       = 0
  Multiplicity = 1
  Basis Set: AUG-CC-PVTZ
    Blend: AUG-CC-PVTZ
  Basis Set: (AUG-CC-PVTZ AUX)
    Blend: AUG-CC-PVTZ-JKFIT

    Orbital Energies [Eh]
    ---------------------

    Doubly Occupied:

       1A   -104.856758     2A   -104.856758     3A   -104.856464
       4A    -11.434227     5A    -11.265010     6A    -11.234029
       7A    -10.581412     8A    -10.581403     9A    -10.581003
      10A     -8.048157    11A     -8.048157    12A     -8.047741
      13A     -8.046110    14A     -8.046110    15A     -8.046081
      16A     -8.046080    17A     -8.045692    18A     -8.045664
      19A     -1.244052    20A     -1.106622    21A     -1.105210
      22A     -1.060148    23A     -0.911084    24A     -0.786234
      25A     -0.666696    26A     -0.655001    27A     -0.624398
      28A     -0.596908    29A     -0.550919    30A     -0.534040
      31A     -0.511907    32A     -0.495186    33A     -0.489570
      34A     -0.460555    35A     -0.455526    36A     -0.454133
      37A     -0.442165

  @DF-RHF Final Energy: -1495.10068542077897

   => Energetics <=

    Nuclear Repulsion Energy =            457.7710887962005586
    One-Electron Energy =               -2974.1091335817632171
    Two-Electron Energy =                1021.2373593647835150
    Total Energy =                      -1495.1006854207789729
  Basis Set: (AUG-CC-PVTZ AUX)
    Blend: AUG-CC-PVTZ-RI
    Molecular point group: c1

    Geometry (in Angstrom), charge = 0, multiplicity = 1:

       Center              X                  Y                   Z               Mass
    ------------   -----------------  -----------------  -----------------  -----------------
         CL           1.698842787292    -0.000007060623     0.820759395241    34.968852682000
         CL          -0.130947912708     1.450873839377    -0.876547104759    34.968852682000
         CL          -0.130956912708    -1.450866160623    -0.876556104759    34.968852682000
         C           -0.974780912708    -0.000001160623     1.265784895241    12.000000000000
         C            0.051596087292    -0.000000160623     0.138401895241    12.000000000000
         C           -2.430072912708    -0.000000160623     0.816548895241    12.000000000000
         H           -0.763249912708    -0.882281160623     1.877744895241     1.007825032230
         H           -0.763248912708     0.882277839377     1.877746895241     1.007825032230
         H           -2.665796912708    -0.887107160623     0.226014895241     1.007825032230
         H           -3.073173912708    -0.000002160623     1.700409895241     1.007825032230
         H           -2.665796912708     0.887108839377     0.226018895241     1.007825032230

  Basis Set: AUG-CC-PVTZ
    Blend: AUG-CC-PVTZ
  Basis Set: (AUG-CC-PVTZ AUX)
    Blend: AUG-CC-PVTZ-JKFIT
	 Reference Energy          =   -1495.1006854207789729 [Eh]
	 Singles Energy            =      -0.0000000000000000 [Eh]
	 Same-Spin Energy          =      -0.3176708690864475 [Eh]
	 Opposite-Spin Energy      =      -0.9701596729538310 [Eh]
	 Correlation Energy        =      -1.2878305420402785 [Eh]
	 Total Energy              =   -1496.3885159628191559 [Eh]

	 ================> DF-SCS-MP2 Energies <==================
	-----------------------------------------------------------
	 SCS Same-Spin Scale       =       0.3333333333333333 [-]
	 SCS Opposite-Spin Scale   =       1.2000000000000000 [-]
	 SCS Same-Spin Energy      =      -0.1058902896954825 [Eh]
	 SCS Opposite-Spin Energy  =      -1.1641916075445971 [Eh]
	 SCS Correlation Energy    =      -1.2700818972400796 [Eh]
	 SCS Total Energy          =   -1496.3707673180190341 [Eh]
	-----------------------------------------------------------

  Dipole Moment: [D]
     X:    -1.4769      Y:    -0.0000      Z:     1.2944     Total:     1.9638

*** Psi4 exiting successfully. Buy a developer a beer!
