                               Psi4 1.4a3.dev225

  ==> Input File <==

--------------------------------------------------------------------------
#psi4
#
memory 32 gb

molecule  {
0 1
  O       -0.9795470    -0.0831330    -0.7231310
  O       -0.4899730     2.0087470     0.0897980
  O       -2.0025500    -0.0680990     1.3309880
  C        1.8485240    -0.5426110    -0.0314710
  C        1.2868380     0.6338010    -0.8471420
  C        1.7532090    -0.2607150     1.4674660
  C        3.2691662    -0.8219297    -0.4490378
  C       -0.1082690     0.9825120    -0.4201650
  C       -2.0345350    -0.3435730     0.1532740
  C       -3.1365800    -1.0497620    -0.5798680
  H        1.2371820    -1.4239180    -0.2609290
  H        1.9026850     1.5280430    -0.7082120
  H        1.2768590     0.3787260    -1.9135380
  H        2.3119230     0.6465730     1.7229020
  H        2.1770720    -1.0909040     2.0408530
  H        0.7169210    -0.1225920     1.7908070
  H        3.9287710     0.0354160    -0.2359390
  H        3.6876870    -1.6881060     0.0874480
  H        3.3559530    -1.0370340    -1.5265420
  H       -3.5589910    -0.3771620    -1.3307760
  H       -3.9066010    -1.3512680     0.1291360
  H       -2.7361560    -1.9219890    -1.1015230
units angstrom
no_reorient  #important for SAPT in psi4, default
symmetry c1  #important for SAPT in psi4, default
}

set PROPERTIES_ORIGIN ["COM"]
properties('MP2/aug-cc-pvtz', properties = ['dipole'])
--------------------------------------------------------------------------

    Molecular point group: c1
  Charge       = 0
  Multiplicity = 1
  Basis Set: AUG-CC-PVTZ
    Blend: AUG-CC-PVTZ
  Basis Set: (AUG-CC-PVTZ AUX)
    Blend: AUG-CC-PVTZ-JKFIT

    Orbital Energies [Eh]
    ---------------------

    Doubly Occupied:

       1A    -20.626738     2A    -20.564824     3A    -20.564668
       4A    -11.404119     5A    -11.398581     6A    -11.254928
       7A    -11.250726     8A    -11.244915     9A    -11.225581
      10A    -11.215656    11A     -1.485572    12A     -1.405198
      13A     -1.363542    14A     -1.115749    15A     -1.043185
      16A     -0.991905    17A     -0.938448    18A     -0.868076
      19A     -0.794688    20A     -0.739516    21A     -0.702247
      22A     -0.698546    23A     -0.683015    24A     -0.649222
      25A     -0.629432    26A     -0.621349    27A     -0.594150
      28A     -0.590054    29A     -0.570710    30A     -0.555412
      31A     -0.550691    32A     -0.537692    33A     -0.527350
      34A     -0.498384    35A     -0.486979    36A     -0.478737
      37A     -0.473813    38A     -0.470913    39A     -0.440089

  @DF-RHF Final Energy:  -496.86337381746796

   => Energetics <=

    Nuclear Repulsion Energy =            556.0015084948529420
    One-Electron Energy =               -1781.2189626301981207
    Two-Electron Energy =                 728.3540803178772194
    Total Energy =                       -496.8633738174679593
  Basis Set: (AUG-CC-PVTZ AUX)
    Blend: AUG-CC-PVTZ-RI
    Molecular point group: c1

    Geometry (in Angstrom), charge = 0, multiplicity = 1:

       Center              X                  Y                   Z               Mass
    ------------   -----------------  -----------------  -----------------  -----------------
         O           -0.906527213399    -0.127615489225    -0.732563845684    15.994914619570
         O           -0.416953213399     1.964264510775     0.080365154316    15.994914619570
         O           -1.929530213399    -0.112581489225     1.321555154316    15.994914619570
         C            1.921543786601    -0.587093489225    -0.040903845684    12.000000000000
         C            1.359857786601     0.589318510775    -0.856574845684    12.000000000000
         C            1.826228786601    -0.305197489225     1.458033154316    12.000000000000
         C            3.342185986601    -0.866412189225    -0.458470645684    12.000000000000
         C           -0.035249213399     0.938029510775    -0.429597845684    12.000000000000
         C           -1.961515213399    -0.388055489225     0.143841154316    12.000000000000
         C           -3.063560213399    -1.094244489225    -0.589300845684    12.000000000000
         H            1.310201786601    -1.468400489225    -0.270361845684     1.007825032230
         H            1.975704786601     1.483560510775    -0.717644845684     1.007825032230
         H            1.349878786601     0.334243510775    -1.922970845684     1.007825032230
         H            2.384942786601     0.602090510775     1.713469154316     1.007825032230
         H            2.250091786601    -1.135386489225     2.031420154316     1.007825032230
         H            0.789940786601    -0.167074489225     1.781374154316     1.007825032230
         H            4.001790786601    -0.009066489225    -0.245371845684     1.007825032230
         H            3.760706786601    -1.732588489225     0.078015154316     1.007825032230
         H            3.428972786601    -1.081516489225    -1.535974845684     1.007825032230
         H           -3.485971213399    -0.421644489225    -1.340208845684     1.007825032230
         H           -3.833581213399    -1.395750489225     0.119703154316     1.007825032230
         H           -2.663136213399    -1.966471489225    -1.110955845684     1.007825032230

  Basis Set: AUG-CC-PVTZ
    Blend: AUG-CC-PVTZ
  Basis Set: (AUG-CC-PVTZ AUX)
    Blend: AUG-CC-PVTZ-JKFIT
	 Reference Energy          =    -496.8633738174679593 [Eh]
	 Singles Energy            =      -0.0000000000000000 [Eh]
	 Same-Spin Energy          =      -0.4947638746395659 [Eh]
	 Opposite-Spin Energy      =      -1.5979590636376990 [Eh]
	 Correlation Energy        =      -2.0927229382772650 [Eh]
	 Total Energy              =    -498.9560967557452500 [Eh]

	 ================> DF-SCS-MP2 Energies <==================
	-----------------------------------------------------------
	 SCS Same-Spin Scale       =       0.3333333333333333 [-]
	 SCS Opposite-Spin Scale   =       1.2000000000000000 [-]
	 SCS Same-Spin Energy      =      -0.1649212915465220 [Eh]
	 SCS Opposite-Spin Energy  =      -1.9175508763652387 [Eh]
	 SCS Correlation Energy    =      -2.0824721679117606 [Eh]
	 SCS Total Energy          =    -498.9458459853797194 [Eh]
	-----------------------------------------------------------

  Dipole Moment: [D]
     X:     0.7851      Y:    -2.4971      Z:    -2.5407     Total:     3.6478

*** Psi4 exiting successfully. Buy a developer a beer!
