                               Psi4 1.4a3.dev225

  ==> Input File <==

--------------------------------------------------------------------------
#psi4
#
memory 32 gb

molecule  {
0 1
  O       -0.9795470    -0.0831330    -0.7231310
  O       -0.4899730     2.0087470     0.0897980
  O       -2.0025500    -0.0680990     1.3309880
  C        1.8485240    -0.5426110    -0.0314710
  C        1.2868380     0.6338010    -0.8471420
  C        1.7532090    -0.2607150     1.4674660
  C        3.2880220    -0.8256370    -0.4545800
  C       -0.1082690     0.9825120    -0.4201650
  C       -2.0345350    -0.3435730     0.1532740
  C       -3.1365800    -1.0497620    -0.5798680
  H        1.2371820    -1.4239180    -0.2609290
  H        1.9026850     1.5280430    -0.7082120
  H        1.2768590     0.3787260    -1.9135380
  H        2.3119230     0.6465730     1.7229020
  H        2.1770720    -1.0909040     2.0408530
  H        0.7169210    -0.1225920     1.7908070
  H        3.8117758    -0.1218048    -0.2758609
  H        3.6876870    -1.6881060     0.0874480
  H        3.3559530    -1.0370340    -1.5265420
  H       -3.5589910    -0.3771620    -1.3307760
  H       -3.9066010    -1.3512680     0.1291360
  H       -2.7361560    -1.9219890    -1.1015230
units angstrom
no_reorient  #important for SAPT in psi4, default
symmetry c1  #important for SAPT in psi4, default
}

set PROPERTIES_ORIGIN ["COM"]
properties('MP2/aug-cc-pvtz', properties = ['dipole'])
--------------------------------------------------------------------------

    Molecular point group: c1
  Charge       = 0
  Multiplicity = 1
  Basis Set: AUG-CC-PVTZ
    Blend: AUG-CC-PVTZ
  Basis Set: (AUG-CC-PVTZ AUX)
    Blend: AUG-CC-PVTZ-JKFIT

    Orbital Energies [Eh]
    ---------------------

    Doubly Occupied:

       1A    -20.626417     2A    -20.564545     3A    -20.564396
       4A    -11.403851     5A    -11.398365     6A    -11.254682
       7A    -11.250475     8A    -11.243863     9A    -11.215380
      10A    -11.199417    11A     -1.485257    12A     -1.404941
      13A     -1.363252    14A     -1.116255    15A     -1.043661
      16A     -0.997651    17A     -0.950963    18A     -0.869711
      19A     -0.802853    20A     -0.739256    21A     -0.701943
      22A     -0.698113    23A     -0.683112    24A     -0.653735
      25A     -0.629326    26A     -0.620654    27A     -0.593909
      28A     -0.592608    29A     -0.578172    30A     -0.568737
      31A     -0.554665    32A     -0.540708    33A     -0.527419
      34A     -0.494711    35A     -0.487816    36A     -0.480869
      37A     -0.473385    38A     -0.471762    39A     -0.439141

  @DF-RHF Final Energy:  -496.83014722130963

   => Energetics <=

    Nuclear Repulsion Energy =            556.6260828422606437
    One-Electron Energy =               -1782.3405083367924817
    Two-Electron Energy =                 728.8842782732223213
    Total Energy =                       -496.8301472213096304
  Basis Set: (AUG-CC-PVTZ AUX)
    Blend: AUG-CC-PVTZ-RI
    Molecular point group: c1

    Geometry (in Angstrom), charge = 0, multiplicity = 1:

       Center              X                  Y                   Z               Mass
    ------------   -----------------  -----------------  -----------------  -----------------
         O           -0.907279295079    -0.126206962243    -0.731822995500    15.994914619570
         O           -0.417705295079     1.965673037757     0.081106004500    15.994914619570
         O           -1.930282295079    -0.111172962243     1.322296004500    15.994914619570
         C            1.920791704921    -0.585684962243    -0.040162995500    12.000000000000
         C            1.359105704921     0.590727037757    -0.855833995500    12.000000000000
         C            1.825476704921    -0.303788962243     1.458774004500    12.000000000000
         C            3.360289704921    -0.868710962243    -0.463271995500    12.000000000000
         C           -0.036001295079     0.939438037757    -0.428856995500    12.000000000000
         C           -1.962267295079    -0.386646962243     0.144582004500    12.000000000000
         C           -3.064312295079    -1.092835962243    -0.588559995500    12.000000000000
         H            1.309449704921    -1.466991962243    -0.269620995500     1.007825032230
         H            1.974952704921     1.484969037757    -0.716903995500     1.007825032230
         H            1.349126704921     0.335652037757    -1.922229995500     1.007825032230
         H            2.384190704921     0.603499037757     1.714210004500     1.007825032230
         H            2.249339704921    -1.133977962243     2.032161004500     1.007825032230
         H            0.789188704921    -0.165665962243     1.782115004500     1.007825032230
         H            3.884043504921    -0.164878762243    -0.284552895500     1.007825032230
         H            3.759954704921    -1.731179962243     0.078756004500     1.007825032230
         H            3.428220704921    -1.080107962243    -1.535233995500     1.007825032230
         H           -3.486723295079    -0.420235962243    -1.339467995500     1.007825032230
         H           -3.834333295079    -1.394341962243     0.120444004500     1.007825032230
         H           -2.663888295079    -1.965062962243    -1.110214995500     1.007825032230

  Basis Set: AUG-CC-PVTZ
    Blend: AUG-CC-PVTZ
  Basis Set: (AUG-CC-PVTZ AUX)
    Blend: AUG-CC-PVTZ-JKFIT
	 Reference Energy          =    -496.8301472213096304 [Eh]
	 Singles Energy            =      -0.0000000000000000 [Eh]
	 Same-Spin Energy          =      -0.4947140490399123 [Eh]
	 Opposite-Spin Energy      =      -1.5972338607769812 [Eh]
	 Correlation Energy        =      -2.0919479098168936 [Eh]
	 Total Energy              =    -498.9220951311265253 [Eh]

	 ================> DF-SCS-MP2 Energies <==================
	-----------------------------------------------------------
	 SCS Same-Spin Scale       =       0.3333333333333333 [-]
	 SCS Opposite-Spin Scale   =       1.2000000000000000 [-]
	 SCS Same-Spin Energy      =      -0.1649046830133041 [Eh]
	 SCS Opposite-Spin Energy  =      -1.9166806329323773 [Eh]
	 SCS Correlation Energy    =      -2.0815853159456816 [Eh]
	 SCS Total Energy          =    -498.9117325372553182 [Eh]
	-----------------------------------------------------------

  Dipole Moment: [D]
     X:     0.8594      Y:    -2.4402      Z:    -2.5337     Total:     3.6211

*** Psi4 exiting successfully. Buy a developer a beer!
