                               Psi4 1.4a3.dev225

  ==> Input File <==

--------------------------------------------------------------------------
#psi4
#
memory 32 gb

molecule  {
0 1
  O       -0.9795470    -0.0831330    -0.7231310
  O       -0.4899730     2.0087470     0.0897980
  O       -2.0025500    -0.0680990     1.3309880
  C        1.8512387    -0.5839472     0.0020589
  C        1.2868380     0.6338010    -0.8471420
  C        1.7532090    -0.2607150     1.4674660
  C        3.2880220    -0.8256370    -0.4545800
  C       -0.1082690     0.9825120    -0.4201650
  C       -2.0345350    -0.3435730     0.1532740
  C       -3.1365800    -1.0497620    -0.5798680
  H        1.2371820    -1.4239180    -0.2609290
  H        1.9026850     1.5280430    -0.7082120
  H        1.2768590     0.3787260    -1.9135380
  H        2.3119230     0.6465730     1.7229020
  H        2.1770720    -1.0909040     2.0408530
  H        0.7169210    -0.1225920     1.7908070
  H        3.9287710     0.0354160    -0.2359390
  H        3.6876870    -1.6881060     0.0874480
  H        3.3559530    -1.0370340    -1.5265420
  H       -3.5589910    -0.3771620    -1.3307760
  H       -3.9066010    -1.3512680     0.1291360
  H       -2.7361560    -1.9219890    -1.1015230
units angstrom
no_reorient  #important for SAPT in psi4, default
symmetry c1  #important for SAPT in psi4, default
}

set PROPERTIES_ORIGIN ["COM"]
properties('MP2/aug-cc-pvtz', properties = ['dipole'])
--------------------------------------------------------------------------

    Molecular point group: c1
  Charge       = 0
  Multiplicity = 1
  Basis Set: AUG-CC-PVTZ
    Blend: AUG-CC-PVTZ
  Basis Set: (AUG-CC-PVTZ AUX)
    Blend: AUG-CC-PVTZ-JKFIT

    Orbital Energies [Eh]
    ---------------------

    Doubly Occupied:

       1A    -20.626015     2A    -20.564486     3A    -20.563095
       4A    -11.403737     5A    -11.397000     6A    -11.254694
       7A    -11.250500     8A    -11.246497     9A    -11.224987
      10A    -11.215333    11A     -1.484788    12A     -1.404323
      13A     -1.362746    14A     -1.110206    15A     -1.042989
      16A     -0.990787    17A     -0.941305    18A     -0.865623
      19A     -0.796937    20A     -0.738805    21A     -0.701029
      22A     -0.696608    23A     -0.682340    24A     -0.647307
      25A     -0.627725    26A     -0.621133    27A     -0.594744
      28A     -0.589871    29A     -0.570505    30A     -0.555086
      31A     -0.553381    32A     -0.539506    33A     -0.526529
      34A     -0.496661    35A     -0.491256    36A     -0.481223
      37A     -0.474704    38A     -0.466775    39A     -0.436033

  @DF-RHF Final Energy:  -496.86164740302650

   => Energetics <=

    Nuclear Repulsion Energy =            555.2832810783352215
    One-Electron Energy =               -1779.8153133807709310
    Two-Electron Energy =                 727.6703848994092141
    Total Energy =                       -496.8616474030264953
  Basis Set: (AUG-CC-PVTZ AUX)
    Blend: AUG-CC-PVTZ-RI
    Molecular point group: c1

    Geometry (in Angstrom), charge = 0, multiplicity = 1:

       Center              X                  Y                   Z               Mass
    ------------   -----------------  -----------------  -----------------  -----------------
         O           -0.908323773891    -0.123863913113    -0.734894880945    15.994914619570
         O           -0.418749773891     1.968016086887     0.078034119055    15.994914619570
         O           -1.931326773891    -0.108829913113     1.319224119055    15.994914619570
         C            1.922461926109    -0.624678113113    -0.009704980945    12.000000000000
         C            1.358061226109     0.593070086887    -0.858905880945    12.000000000000
         C            1.824432226109    -0.301445913113     1.455702119055    12.000000000000
         C            3.359245226109    -0.866367913113    -0.466343880945    12.000000000000
         C           -0.037045773891     0.941781086887    -0.431928880945    12.000000000000
         C           -1.963311773891    -0.384303913113     0.141510119055    12.000000000000
         C           -3.065356773891    -1.090492913113    -0.591631880945    12.000000000000
         H            1.308405226109    -1.464648913113    -0.272692880945     1.007825032230
         H            1.973908226109     1.487312086887    -0.719975880945     1.007825032230
         H            1.348082226109     0.337995086887    -1.925301880945     1.007825032230
         H            2.383146226109     0.605842086887     1.711138119055     1.007825032230
         H            2.248295226109    -1.131634913113     2.029089119055     1.007825032230
         H            0.788144226109    -0.163322913113     1.779043119055     1.007825032230
         H            3.999994226109    -0.005314913113    -0.247702880945     1.007825032230
         H            3.758910226109    -1.728836913113     0.075684119055     1.007825032230
         H            3.427176226109    -1.077764913113    -1.538305880945     1.007825032230
         H           -3.487767773891    -0.417892913113    -1.342539880945     1.007825032230
         H           -3.835377773891    -1.391998913113     0.117372119055     1.007825032230
         H           -2.664932773891    -1.962719913113    -1.113286880945     1.007825032230

  Basis Set: AUG-CC-PVTZ
    Blend: AUG-CC-PVTZ
  Basis Set: (AUG-CC-PVTZ AUX)
    Blend: AUG-CC-PVTZ-JKFIT
	 Reference Energy          =    -496.8616474030264953 [Eh]
	 Singles Energy            =      -0.0000000000000000 [Eh]
	 Same-Spin Energy          =      -0.4945985366691158 [Eh]
	 Opposite-Spin Energy      =      -1.5977864288024444 [Eh]
	 Correlation Energy        =      -2.0923849654715601 [Eh]
	 Total Energy              =    -498.9540323684980763 [Eh]

	 ================> DF-SCS-MP2 Energies <==================
	-----------------------------------------------------------
	 SCS Same-Spin Scale       =       0.3333333333333333 [-]
	 SCS Opposite-Spin Scale   =       1.2000000000000000 [-]
	 SCS Same-Spin Energy      =      -0.1648661788897053 [Eh]
	 SCS Opposite-Spin Energy  =      -1.9173437145629331 [Eh]
	 SCS Correlation Energy    =      -2.0822098934526383 [Eh]
	 SCS Total Energy          =    -498.9438572964791092 [Eh]
	-----------------------------------------------------------

  Dipole Moment: [D]
     X:     0.8349      Y:    -2.5320      Z:    -2.5178     Total:     3.6670

*** Psi4 exiting successfully. Buy a developer a beer!
