                               Psi4 1.4a3.dev225

  ==> Input File <==

--------------------------------------------------------------------------
#psi4
#
memory 32 gb

molecule  {
0 1
  O       -1.0167037    -0.0569792    -0.7042732
  O       -0.4899730     2.0087470     0.0897980
  O       -2.0025500    -0.0680990     1.3309880
  C        1.8485240    -0.5426110    -0.0314710
  C        1.2868380     0.6338010    -0.8471420
  C        1.7532090    -0.2607150     1.4674660
  C        3.2880220    -0.8256370    -0.4545800
  C       -0.1082690     0.9825120    -0.4201650
  C       -2.0345350    -0.3435730     0.1532740
  C       -3.1365800    -1.0497620    -0.5798680
  H        1.2371820    -1.4239180    -0.2609290
  H        1.9026850     1.5280430    -0.7082120
  H        1.2768590     0.3787260    -1.9135380
  H        2.3119230     0.6465730     1.7229020
  H        2.1770720    -1.0909040     2.0408530
  H        0.7169210    -0.1225920     1.7908070
  H        3.9287710     0.0354160    -0.2359390
  H        3.6876870    -1.6881060     0.0874480
  H        3.3559530    -1.0370340    -1.5265420
  H       -3.5589910    -0.3771620    -1.3307760
  H       -3.9066010    -1.3512680     0.1291360
  H       -2.7361560    -1.9219890    -1.1015230
units angstrom
no_reorient  #important for SAPT in psi4, default
symmetry c1  #important for SAPT in psi4, default
}

set PROPERTIES_ORIGIN ["COM"]
properties('MP2/aug-cc-pvtz', properties = ['dipole'])
--------------------------------------------------------------------------

    Molecular point group: c1
  Charge       = 0
  Multiplicity = 1
  Basis Set: AUG-CC-PVTZ
    Blend: AUG-CC-PVTZ
  Basis Set: (AUG-CC-PVTZ AUX)
    Blend: AUG-CC-PVTZ-JKFIT

    Orbital Energies [Eh]
    ---------------------

    Doubly Occupied:

       1A    -20.626481     2A    -20.565191     3A    -20.557427
       4A    -11.400753     5A    -11.398971     6A    -11.254126
       7A    -11.252295     8A    -11.247648     9A    -11.226040
      10A    -11.216498    11A     -1.493940    12A     -1.403996
      13A     -1.362754    14A     -1.115910    15A     -1.042734
      16A     -0.993195    17A     -0.939865    18A     -0.877496
      19A     -0.796743    20A     -0.737337    21A     -0.704332
      22A     -0.699834    23A     -0.684836    24A     -0.650739
      25A     -0.629917    26A     -0.620293    27A     -0.591397
      28A     -0.588573    29A     -0.571286    30A     -0.558219
      31A     -0.552275    32A     -0.540642    33A     -0.525780
      34A     -0.496773    35A     -0.485987    36A     -0.480707
      37A     -0.472964    38A     -0.470882    39A     -0.440230

  @DF-RHF Final Energy:  -496.86576734782295

   => Energetics <=

    Nuclear Repulsion Energy =            556.1982970325118458
    One-Electron Energy =               -1781.5779966337286169
    Two-Electron Energy =                 728.5139322533938184
    Total Energy =                       -496.8657673478229526
  Basis Set: (AUG-CC-PVTZ AUX)
    Blend: AUG-CC-PVTZ-RI
    Molecular point group: c1

    Geometry (in Angstrom), charge = 0, multiplicity = 1:

       Center              X                  Y                   Z               Mass
    ------------   -----------------  -----------------  -----------------  -----------------
         O           -0.941129415153    -0.104056384642    -0.715337949581    15.994914619570
         O           -0.414398715153     1.961669815358     0.078733250419    15.994914619570
         O           -1.926975715153    -0.115176184642     1.319923250419    15.994914619570
         C            1.924098284847    -0.589688184642    -0.042535749581    12.000000000000
         C            1.362412284847     0.586723815358    -0.858206749581    12.000000000000
         C            1.828783284847    -0.307792184642     1.456401250419    12.000000000000
         C            3.363596284847    -0.872714184642    -0.465644749581    12.000000000000
         C           -0.032694715153     0.935434815358    -0.431229749581    12.000000000000
         C           -1.958960715153    -0.390650184642     0.142209250419    12.000000000000
         C           -3.061005715153    -1.096839184642    -0.590932749581    12.000000000000
         H            1.312756284847    -1.470995184642    -0.271993749581     1.007825032230
         H            1.978259284847     1.480965815358    -0.719276749581     1.007825032230
         H            1.352433284847     0.331648815358    -1.924602749581     1.007825032230
         H            2.387497284847     0.599495815358     1.711837250419     1.007825032230
         H            2.252646284847    -1.137981184642     2.029788250419     1.007825032230
         H            0.792495284847    -0.169669184642     1.779742250419     1.007825032230
         H            4.004345284847    -0.011661184642    -0.247003749581     1.007825032230
         H            3.763261284847    -1.735183184642     0.076383250419     1.007825032230
         H            3.431527284847    -1.084111184642    -1.537606749581     1.007825032230
         H           -3.483416715153    -0.424239184642    -1.341840749581     1.007825032230
         H           -3.831026715153    -1.398345184642     0.118071250419     1.007825032230
         H           -2.660581715153    -1.969066184642    -1.112587749581     1.007825032230

  Basis Set: AUG-CC-PVTZ
    Blend: AUG-CC-PVTZ
  Basis Set: (AUG-CC-PVTZ AUX)
    Blend: AUG-CC-PVTZ-JKFIT
	 Reference Energy          =    -496.8657673478229526 [Eh]
	 Singles Energy            =      -0.0000000000000000 [Eh]
	 Same-Spin Energy          =      -0.4940217990687190 [Eh]
	 Opposite-Spin Energy      =      -1.5962239579501891 [Eh]
	 Correlation Energy        =      -2.0902457570189084 [Eh]
	 Total Energy              =    -498.9560131048418725 [Eh]

	 ================> DF-SCS-MP2 Energies <==================
	-----------------------------------------------------------
	 SCS Same-Spin Scale       =       0.3333333333333333 [-]
	 SCS Opposite-Spin Scale   =       1.2000000000000000 [-]
	 SCS Same-Spin Energy      =      -0.1646739330229063 [Eh]
	 SCS Opposite-Spin Energy  =      -1.9154687495402269 [Eh]
	 SCS Correlation Energy    =      -2.0801426825631331 [Eh]
	 SCS Total Energy          =    -498.9459100303860737 [Eh]
	-----------------------------------------------------------

  Dipole Moment: [D]
     X:     1.0582      Y:    -2.4535      Z:    -2.6627     Total:     3.7722

*** Psi4 exiting successfully. Buy a developer a beer!
