                               Psi4 1.4a3.dev225

  ==> Input File <==

--------------------------------------------------------------------------
#psi4
#
memory 32 gb

molecule  {
0 1
  O       -0.9795470    -0.0831330    -0.7231310
  O       -0.4899730     2.0087470     0.0897980
  O       -2.0025500    -0.0680990     1.3309880
  C        1.8485240    -0.5426110    -0.0314710
  C        1.2868380     0.6338010    -0.8471420
  C        1.7594461    -0.2791614     1.3693802
  C        3.2880220    -0.8256370    -0.4545800
  C       -0.1082690     0.9825120    -0.4201650
  C       -2.0345350    -0.3435730     0.1532740
  C       -3.1365800    -1.0497620    -0.5798680
  H        1.2371820    -1.4239180    -0.2609290
  H        1.9026850     1.5280430    -0.7082120
  H        1.2768590     0.3787260    -1.9135380
  H        2.3119230     0.6465730     1.7229020
  H        2.1770720    -1.0909040     2.0408530
  H        0.7169210    -0.1225920     1.7908070
  H        3.9287710     0.0354160    -0.2359390
  H        3.6876870    -1.6881060     0.0874480
  H        3.3559530    -1.0370340    -1.5265420
  H       -3.5589910    -0.3771620    -1.3307760
  H       -3.9066010    -1.3512680     0.1291360
  H       -2.7361560    -1.9219890    -1.1015230
units angstrom
no_reorient  #important for SAPT in psi4, default
symmetry c1  #important for SAPT in psi4, default
}

set PROPERTIES_ORIGIN ["COM"]
properties('MP2/aug-cc-pvtz', properties = ['dipole'])
--------------------------------------------------------------------------

    Molecular point group: c1
  Charge       = 0
  Multiplicity = 1
  Basis Set: AUG-CC-PVTZ
    Blend: AUG-CC-PVTZ
  Basis Set: (AUG-CC-PVTZ AUX)
    Blend: AUG-CC-PVTZ-JKFIT

    Orbital Energies [Eh]
    ---------------------

    Doubly Occupied:

       1A    -20.626706     2A    -20.564626     3A    -20.564587
       4A    -11.403939     5A    -11.398742     6A    -11.254852
       7A    -11.251154     8A    -11.241395     9A    -11.224991
      10A    -11.221102    11A     -1.485493    12A     -1.405044
      13A     -1.363425    14A     -1.126106    15A     -1.043992
      16A     -0.994413    17A     -0.939054    18A     -0.867990
      19A     -0.793831    20A     -0.739495    21A     -0.702608
      22A     -0.698659    23A     -0.683566    24A     -0.654111
      25A     -0.629975    26A     -0.623866    27A     -0.595308
      28A     -0.590106    29A     -0.570331    30A     -0.555608
      31A     -0.551895    32A     -0.534196    33A     -0.525789
      34A     -0.501195    35A     -0.484193    36A     -0.479698
      37A     -0.474385    38A     -0.463014    39A     -0.438523

  @DF-RHF Final Energy:  -496.85205470249804

   => Energetics <=

    Nuclear Repulsion Energy =            557.2368486428680399
    One-Electron Energy =               -1783.6418803769727219
    Two-Electron Energy =                 729.5529770316068152
    Total Energy =                       -496.8520547024979805
  Basis Set: (AUG-CC-PVTZ AUX)
    Blend: AUG-CC-PVTZ-RI
    Molecular point group: c1

    Geometry (in Angstrom), charge = 0, multiplicity = 1:

       Center              X                  Y                   Z               Mass
    ------------   -----------------  -----------------  -----------------  -----------------
         O           -0.908617147001    -0.125770355260    -0.723932892732    15.994914619570
         O           -0.419043147001     1.966109644740     0.088996107268    15.994914619570
         O           -1.931620147001    -0.110736355260     1.330186107268    15.994914619570
         C            1.919453852999    -0.585248355260    -0.032272892732    12.000000000000
         C            1.357767852999     0.591163644740    -0.847943892732    12.000000000000
         C            1.830375952999    -0.321798755260     1.368578307268    12.000000000000
         C            3.358951852999    -0.868274355260    -0.455381892732    12.000000000000
         C           -0.037339147001     0.939874644740    -0.420966892732    12.000000000000
         C           -1.963605147001    -0.386210355260     0.152472107268    12.000000000000
         C           -3.065650147001    -1.092399355260    -0.580669892732    12.000000000000
         H            1.308111852999    -1.466555355260    -0.261730892732     1.007825032230
         H            1.973614852999     1.485405644740    -0.709013892732     1.007825032230
         H            1.347788852999     0.336088644740    -1.914339892732     1.007825032230
         H            2.382852852999     0.603935644740     1.722100107268     1.007825032230
         H            2.248001852999    -1.133541355260     2.040051107268     1.007825032230
         H            0.787850852999    -0.165229355260     1.790005107268     1.007825032230
         H            3.999700852999    -0.007221355260    -0.236740892732     1.007825032230
         H            3.758616852999    -1.730743355260     0.086646107268     1.007825032230
         H            3.426882852999    -1.079671355260    -1.527343892732     1.007825032230
         H           -3.488061147001    -0.419799355260    -1.331577892732     1.007825032230
         H           -3.835671147001    -1.393905355260     0.128334107268     1.007825032230
         H           -2.665226147001    -1.964626355260    -1.102324892732     1.007825032230

  Basis Set: AUG-CC-PVTZ
    Blend: AUG-CC-PVTZ
  Basis Set: (AUG-CC-PVTZ AUX)
    Blend: AUG-CC-PVTZ-JKFIT
	 Reference Energy          =    -496.8520547024980374 [Eh]
	 Singles Energy            =      -0.0000000000000000 [Eh]
	 Same-Spin Energy          =      -0.4958207506004444 [Eh]
	 Opposite-Spin Energy      =      -1.5992227799878065 [Eh]
	 Correlation Energy        =      -2.0950435305882511 [Eh]
	 Total Energy              =    -498.9470982330863080 [Eh]

	 ================> DF-SCS-MP2 Energies <==================
	-----------------------------------------------------------
	 SCS Same-Spin Scale       =       0.3333333333333333 [-]
	 SCS Opposite-Spin Scale   =       1.2000000000000000 [-]
	 SCS Same-Spin Energy      =      -0.1652735835334815 [Eh]
	 SCS Opposite-Spin Energy  =      -1.9190673359853676 [Eh]
	 SCS Correlation Energy    =      -2.0843409195188491 [Eh]
	 SCS Total Energy          =    -498.9363956220169030 [Eh]
	-----------------------------------------------------------

  Dipole Moment: [D]
     X:     0.7729      Y:    -2.4970      Z:    -2.5322     Total:     3.6393

*** Psi4 exiting successfully. Buy a developer a beer!
