                               Psi4 1.4a3.dev225

  ==> Input File <==

--------------------------------------------------------------------------
#psi4
#
memory 32 gb

molecule  {
0 1
  O       -0.9795470    -0.0831330    -0.7231310
  O       -0.4899730     2.0087470     0.0897980
  O       -2.0025500    -0.0680990     1.3309880
  C        1.8485240    -0.5426110    -0.0314710
  C        1.4023084     0.7240615    -0.7805959
  C        1.7532090    -0.2607150     1.4674660
  C        3.2880220    -0.8256370    -0.4545800
  C       -0.1082690     0.9825120    -0.4201650
  C       -2.0345350    -0.3435730     0.1532740
  C       -3.1365800    -1.0497620    -0.5798680
  H        1.2371820    -1.4239180    -0.2609290
  H        1.9026850     1.5280430    -0.7082120
  H        1.2768590     0.3787260    -1.9135380
  H        2.3119230     0.6465730     1.7229020
  H        2.1770720    -1.0909040     2.0408530
  H        0.7169210    -0.1225920     1.7908070
  H        3.9287710     0.0354160    -0.2359390
  H        3.6876870    -1.6881060     0.0874480
  H        3.3559530    -1.0370340    -1.5265420
  H       -3.5589910    -0.3771620    -1.3307760
  H       -3.9066010    -1.3512680     0.1291360
  H       -2.7361560    -1.9219890    -1.1015230
units angstrom
no_reorient  #important for SAPT in psi4, default
symmetry c1  #important for SAPT in psi4, default
}

set PROPERTIES_ORIGIN ["COM"]
properties('MP2/aug-cc-pvtz', properties = ['dipole'])
--------------------------------------------------------------------------

    Molecular point group: c1
  Charge       = 0
  Multiplicity = 1
  Basis Set: AUG-CC-PVTZ
    Blend: AUG-CC-PVTZ
  Basis Set: (AUG-CC-PVTZ AUX)
    Blend: AUG-CC-PVTZ-JKFIT

    Orbital Energies [Eh]
    ---------------------

    Doubly Occupied:

       1A    -20.629985     2A    -20.565742     3A    -20.560095
       4A    -11.405778     5A    -11.398647     6A    -11.255922
       7A    -11.253821     8A    -11.246054     9A    -11.223159
      10A    -11.214447    11A     -1.485156    12A     -1.403806
      13A     -1.363004    14A     -1.112702    15A     -1.042345
      16A     -0.983240    17A     -0.938442    18A     -0.872953
      19A     -0.797890    20A     -0.739906    21A     -0.705067
      22A     -0.696624    23A     -0.681544    24A     -0.644048
      25A     -0.629883    26A     -0.618726    27A     -0.601711
      28A     -0.591313    29A     -0.578572    30A     -0.565514
      31A     -0.548103    32A     -0.535588    33A     -0.526105
      34A     -0.495183    35A     -0.493664    36A     -0.476813
      37A     -0.473828    38A     -0.461041    39A     -0.428645

  @DF-RHF Final Energy:  -496.83186581238181

   => Energetics <=

    Nuclear Repulsion Energy =            554.5287710952316047
    One-Electron Energy =               -1778.2311359294640170
    Two-Electron Energy =                 726.8704990218506055
    Total Energy =                       -496.8318658123818068
  Basis Set: (AUG-CC-PVTZ AUX)
    Blend: AUG-CC-PVTZ-RI
    Molecular point group: c1

    Geometry (in Angstrom), charge = 0, multiplicity = 1:

       Center              X                  Y                   Z               Mass
    ------------   -----------------  -----------------  -----------------  -----------------
         O           -0.917714953320    -0.134824318857    -0.737644729141    15.994914619570
         O           -0.428140953320     1.957055681143     0.075284270859    15.994914619570
         O           -1.940717953320    -0.119790318857     1.316474270859    15.994914619570
         C            1.910356046680    -0.594302318857    -0.045984729141    12.000000000000
         C            1.464140446680     0.672370181143    -0.795109629141    12.000000000000
         C            1.815041046680    -0.312406318857     1.452952270859    12.000000000000
         C            3.349854046680    -0.877328318857    -0.469093729141    12.000000000000
         C           -0.046436953320     0.930820681143    -0.434678729141    12.000000000000
         C           -1.972702953320    -0.395264318857     0.138760270859    12.000000000000
         C           -3.074747953320    -1.101453318857    -0.594381729141    12.000000000000
         H            1.299014046680    -1.475609318857    -0.275442729141     1.007825032230
         H            1.964517046680     1.476351681143    -0.722725729141     1.007825032230
         H            1.338691046680     0.327034681143    -1.928051729141     1.007825032230
         H            2.373755046680     0.594881681143     1.708388270859     1.007825032230
         H            2.238904046680    -1.142595318857     2.026339270859     1.007825032230
         H            0.778753046680    -0.174283318857     1.776293270859     1.007825032230
         H            3.990603046680    -0.016275318857    -0.250452729141     1.007825032230
         H            3.749519046680    -1.739797318857     0.072934270859     1.007825032230
         H            3.417785046680    -1.088725318857    -1.541055729141     1.007825032230
         H           -3.497158953320    -0.428853318857    -1.345289729141     1.007825032230
         H           -3.844768953320    -1.402959318857     0.114622270859     1.007825032230
         H           -2.674323953320    -1.973680318857    -1.116036729141     1.007825032230

  Basis Set: AUG-CC-PVTZ
    Blend: AUG-CC-PVTZ
  Basis Set: (AUG-CC-PVTZ AUX)
    Blend: AUG-CC-PVTZ-JKFIT
	 Reference Energy          =    -496.8318658123818068 [Eh]
	 Singles Energy            =      -0.0000000000000000 [Eh]
	 Same-Spin Energy          =      -0.4944991611034630 [Eh]
	 Opposite-Spin Energy      =      -1.5985937372024284 [Eh]
	 Correlation Energy        =      -2.0930928983058914 [Eh]
	 Total Energy              =    -498.9249587106876902 [Eh]

	 ================> DF-SCS-MP2 Energies <==================
	-----------------------------------------------------------
	 SCS Same-Spin Scale       =       0.3333333333333333 [-]
	 SCS Opposite-Spin Scale   =       1.2000000000000000 [-]
	 SCS Same-Spin Energy      =      -0.1648330537011543 [Eh]
	 SCS Opposite-Spin Energy  =      -1.9183124846429140 [Eh]
	 SCS Correlation Energy    =      -2.0831455383440685 [Eh]
	 SCS Total Energy          =    -498.9150113507258766 [Eh]
	-----------------------------------------------------------

  Dipole Moment: [D]
     X:     0.7241      Y:    -2.4881      Z:    -2.4713     Total:     3.5808

*** Psi4 exiting successfully. Buy a developer a beer!
