                               Psi4 1.4a3.dev225

  ==> Input File <==

--------------------------------------------------------------------------
#psi4
#
memory 32 gb

molecule  {
0 1
  O       -0.9795470    -0.0831330    -0.7231310
  O       -0.4899730     2.0087470     0.0897980
  O       -2.0025500    -0.0680990     1.3309880
  C        1.8568362    -0.5390660    -0.0064017
  C        1.2868380     0.6338010    -0.8471420
  C        1.7532090    -0.2607150     1.4674660
  C        3.2880220    -0.8256370    -0.4545800
  C       -0.1082690     0.9825120    -0.4201650
  C       -2.0345350    -0.3435730     0.1532740
  C       -3.1365800    -1.0497620    -0.5798680
  H        1.2371820    -1.4239180    -0.2609290
  H        1.9026850     1.5280430    -0.7082120
  H        1.2768590     0.3787260    -1.9135380
  H        2.3119230     0.6465730     1.7229020
  H        2.1770720    -1.0909040     2.0408530
  H        0.7169210    -0.1225920     1.7908070
  H        3.9287710     0.0354160    -0.2359390
  H        3.6876870    -1.6881060     0.0874480
  H        3.3559530    -1.0370340    -1.5265420
  H       -3.5589910    -0.3771620    -1.3307760
  H       -3.9066010    -1.3512680     0.1291360
  H       -2.7361560    -1.9219890    -1.1015230
units angstrom
no_reorient  #important for SAPT in psi4, default
symmetry c1  #important for SAPT in psi4, default
}

set PROPERTIES_ORIGIN ["COM"]
properties('MP2/aug-cc-pvtz', properties = ['dipole'])
--------------------------------------------------------------------------

    Molecular point group: c1
  Charge       = 0
  Multiplicity = 1
  Basis Set: AUG-CC-PVTZ
    Blend: AUG-CC-PVTZ
  Basis Set: (AUG-CC-PVTZ AUX)
    Blend: AUG-CC-PVTZ-JKFIT

    Orbital Energies [Eh]
    ---------------------

    Doubly Occupied:

       1A    -20.626457     2A    -20.564684     3A    -20.564278
       4A    -11.403970     5A    -11.398145     6A    -11.254796
       7A    -11.250720     8A    -11.246707     9A    -11.224784
      10A    -11.215124    11A     -1.485292    12A     -1.404953
      13A     -1.363281    14A     -1.113787    15A     -1.043068
      16A     -0.991839    17A     -0.941354    18A     -0.867496
      19A     -0.792184    20A     -0.739174    21A     -0.701688
      22A     -0.697740    23A     -0.682741    24A     -0.648904
      25A     -0.628924    26A     -0.621799    27A     -0.594790
      28A     -0.589968    29A     -0.570993    30A     -0.555370
      31A     -0.551602    32A     -0.540291    33A     -0.527314
      34A     -0.497208    35A     -0.485671    36A     -0.482018
      37A     -0.474940    38A     -0.467576    39A     -0.438776

  @DF-RHF Final Energy:  -496.86309830712287

   => Energetics <=

    Nuclear Repulsion Energy =            555.6445109569219767
    One-Electron Energy =               -1780.5144070085755175
    Two-Electron Energy =                 728.0067977445306724
    Total Energy =                       -496.8630983071228684
  Basis Set: (AUG-CC-PVTZ AUX)
    Blend: AUG-CC-PVTZ-RI
    Molecular point group: c1

    Geometry (in Angstrom), charge = 0, multiplicity = 1:

       Center              X                  Y                   Z               Mass
    ------------   -----------------  -----------------  -----------------  -----------------
         O           -0.908789977612    -0.127601971607    -0.734190215791    15.994914619570
         O           -0.419215977612     1.964278028393     0.078738784209    15.994914619570
         O           -1.931792977612    -0.112567971607     1.319928784209    15.994914619570
         C            1.927593222388    -0.583534971607    -0.017460915791    12.000000000000
         C            1.357595022388     0.589332028393    -0.858201215791    12.000000000000
         C            1.823966022388    -0.305183971607     1.456406784209    12.000000000000
         C            3.358779022388    -0.870105971607    -0.465639215791    12.000000000000
         C           -0.037511977612     0.938043028393    -0.431224215791    12.000000000000
         C           -1.963777977612    -0.388041971607     0.142214784209    12.000000000000
         C           -3.065822977612    -1.094230971607    -0.590927215791    12.000000000000
         H            1.307939022388    -1.468386971607    -0.271988215791     1.007825032230
         H            1.973442022388     1.483574028393    -0.719271215791     1.007825032230
         H            1.347616022388     0.334257028393    -1.924597215791     1.007825032230
         H            2.382680022388     0.602104028393     1.711842784209     1.007825032230
         H            2.247829022388    -1.135372971607     2.029793784209     1.007825032230
         H            0.787678022388    -0.167060971607     1.779747784209     1.007825032230
         H            3.999528022388    -0.009052971607    -0.246998215791     1.007825032230
         H            3.758444022388    -1.732574971607     0.076388784209     1.007825032230
         H            3.426710022388    -1.081502971607    -1.537601215791     1.007825032230
         H           -3.488233977612    -0.421630971607    -1.341835215791     1.007825032230
         H           -3.835843977612    -1.395736971607     0.118076784209     1.007825032230
         H           -2.665398977612    -1.966457971607    -1.112582215791     1.007825032230

  Basis Set: AUG-CC-PVTZ
    Blend: AUG-CC-PVTZ
  Basis Set: (AUG-CC-PVTZ AUX)
    Blend: AUG-CC-PVTZ-JKFIT
	 Reference Energy          =    -496.8630983071228684 [Eh]
	 Singles Energy            =      -0.0000000000000000 [Eh]
	 Same-Spin Energy          =      -0.4947251383870601 [Eh]
	 Opposite-Spin Energy      =      -1.5979304274761887 [Eh]
	 Correlation Energy        =      -2.0926555658632489 [Eh]
	 Total Energy              =    -498.9557538729861221 [Eh]

	 ================> DF-SCS-MP2 Energies <==================
	-----------------------------------------------------------
	 SCS Same-Spin Scale       =       0.3333333333333333 [-]
	 SCS Opposite-Spin Scale   =       1.2000000000000000 [-]
	 SCS Same-Spin Energy      =      -0.1649083794623534 [Eh]
	 SCS Opposite-Spin Energy  =      -1.9175165129714264 [Eh]
	 SCS Correlation Energy    =      -2.0824248924337798 [Eh]
	 SCS Total Energy          =    -498.9455231995566464 [Eh]
	-----------------------------------------------------------

  Dipole Moment: [D]
     X:     0.7990      Y:    -2.5008      Z:    -2.5257     Total:     3.6430

*** Psi4 exiting successfully. Buy a developer a beer!
