                               Psi4 1.4a3.dev225

  ==> Input File <==

--------------------------------------------------------------------------
#psi4
#
memory 32 gb

molecule  {
0 1
  O       -0.9795470    -0.0831330    -0.7231310
  O       -0.4899730     2.0087470     0.0897980
  O       -2.0025500    -0.0680990     1.3309880
  C        1.8485240    -0.5426110    -0.0314710
  C        1.2868380     0.6338010    -0.8471420
  C        1.7532090    -0.2607150     1.4674660
  C        3.2880220    -0.8256370    -0.4545800
  C       -0.1082690     0.9825120    -0.4201650
  C       -2.0345350    -0.3435730     0.1532740
  C       -3.1365800    -1.0497620    -0.5798680
  H        1.2371820    -1.4239180    -0.2609290
  H        1.9026850     1.5280430    -0.7082120
  H        1.2768590     0.3787260    -1.9135380
  H        2.3119230     0.6465730     1.7229020
  H        2.1770720    -1.0909040     2.0408530
  H        0.7169210    -0.1225920     1.7908070
  H        4.0457662     0.1926368    -0.1960171
  H        3.6876870    -1.6881060     0.0874480
  H        3.3559530    -1.0370340    -1.5265420
  H       -3.5589910    -0.3771620    -1.3307760
  H       -3.9066010    -1.3512680     0.1291360
  H       -2.7361560    -1.9219890    -1.1015230
units angstrom
no_reorient  #important for SAPT in psi4, default
symmetry c1  #important for SAPT in psi4, default
}

set PROPERTIES_ORIGIN ["COM"]
properties('MP2/aug-cc-pvtz', properties = ['dipole'])
--------------------------------------------------------------------------

    Molecular point group: c1
  Charge       = 0
  Multiplicity = 1
  Basis Set: AUG-CC-PVTZ
    Blend: AUG-CC-PVTZ
  Basis Set: (AUG-CC-PVTZ AUX)
    Blend: AUG-CC-PVTZ-JKFIT

    Orbital Energies [Eh]
    ---------------------

    Doubly Occupied:

       1A    -20.627210     2A    -20.565237     3A    -20.565061
       4A    -11.404517     5A    -11.398932     6A    -11.255298
       7A    -11.251118     8A    -11.248820     9A    -11.247921
      10A    -11.216077    11A     -1.486027    12A     -1.405571
      13A     -1.363962    14A     -1.113551    15A     -1.043038
      16A     -0.989632    17A     -0.932690    18A     -0.867672
      19A     -0.790151    20A     -0.739845    21A     -0.702527
      22A     -0.698965    23A     -0.683138    24A     -0.646449
      25A     -0.629626    26A     -0.621971    27A     -0.595617
      28A     -0.589946    29A     -0.570809    30A     -0.555764
      31A     -0.545841    32A     -0.529165    33A     -0.519892
      34A     -0.497967    35A     -0.486818    36A     -0.477165
      37A     -0.474643    38A     -0.465846    39A     -0.440324

  @DF-RHF Final Energy:  -496.84431150526598

   => Energetics <=

    Nuclear Repulsion Energy =            554.8717341780105698
    One-Electron Energy =               -1778.9424821273421458
    Two-Electron Energy =                 727.2264364440657118
    Total Energy =                       -496.8443115052659778
  Basis Set: (AUG-CC-PVTZ AUX)
    Blend: AUG-CC-PVTZ-RI
    Molecular point group: c1

    Geometry (in Angstrom), charge = 0, multiplicity = 1:

       Center              X                  Y                   Z               Mass
    ------------   -----------------  -----------------  -----------------  -----------------
         O           -0.908916049670    -0.128406470139    -0.732381500064    15.994914619570
         O           -0.419342049670     1.963473529861     0.080547499936    15.994914619570
         O           -1.931919049670    -0.113372470139     1.321737499936    15.994914619570
         C            1.919154950330    -0.587884470139    -0.040721500064    12.000000000000
         C            1.357468950330     0.588527529861    -0.856392500064    12.000000000000
         C            1.823839950330    -0.305988470139     1.458215499936    12.000000000000
         C            3.358652950330    -0.870910470139    -0.463830500064    12.000000000000
         C           -0.037638049670     0.937238529861    -0.429415500064    12.000000000000
         C           -1.963904049670    -0.388846470139     0.144023499936    12.000000000000
         C           -3.065949049670    -1.095035470139    -0.589118500064    12.000000000000
         H            1.307812950330    -1.469191470139    -0.270179500064     1.007825032230
         H            1.973315950330     1.482769529861    -0.717462500064     1.007825032230
         H            1.347489950330     0.333452529861    -1.922788500064     1.007825032230
         H            2.382553950330     0.601299529861     1.713651499936     1.007825032230
         H            2.247702950330    -1.136177470139     2.031602499936     1.007825032230
         H            0.787551950330    -0.167865470139     1.781556499936     1.007825032230
         H            4.116397150330     0.147363329861    -0.205267600064     1.007825032230
         H            3.758317950330    -1.733379470139     0.078197499936     1.007825032230
         H            3.426583950330    -1.082307470139    -1.535792500064     1.007825032230
         H           -3.488360049670    -0.422435470139    -1.340026500064     1.007825032230
         H           -3.835970049670    -1.396541470139     0.119885499936     1.007825032230
         H           -2.665525049670    -1.967262470139    -1.110773500064     1.007825032230

  Basis Set: AUG-CC-PVTZ
    Blend: AUG-CC-PVTZ
  Basis Set: (AUG-CC-PVTZ AUX)
    Blend: AUG-CC-PVTZ-JKFIT
	 Reference Energy          =    -496.8443115052659778 [Eh]
	 Singles Energy            =      -0.0000000000000000 [Eh]
	 Same-Spin Energy          =      -0.4945989875609390 [Eh]
	 Opposite-Spin Energy      =      -1.5993528912548509 [Eh]
	 Correlation Energy        =      -2.0939518788157900 [Eh]
	 Total Energy              =    -498.9382633840817789 [Eh]

	 ================> DF-SCS-MP2 Energies <==================
	-----------------------------------------------------------
	 SCS Same-Spin Scale       =       0.3333333333333333 [-]
	 SCS Opposite-Spin Scale   =       1.2000000000000000 [-]
	 SCS Same-Spin Energy      =      -0.1648663291869796 [Eh]
	 SCS Opposite-Spin Energy  =      -1.9192234695058210 [Eh]
	 SCS Correlation Energy    =      -2.0840897986928009 [Eh]
	 SCS Total Energy          =    -498.9284013039587649 [Eh]
	-----------------------------------------------------------

  Dipole Moment: [D]
     X:     0.6664      Y:    -2.5896      Z:    -2.5537     Total:     3.6975

*** Psi4 exiting successfully. Buy a developer a beer!
