                               Psi4 1.4a3.dev225

  ==> Input File <==

--------------------------------------------------------------------------
#psi4
#
memory 32 gb

molecule  {
0 1
  O       -0.9795470    -0.0831330    -0.7231310
  O       -0.4899730     2.0087470     0.0897980
  O       -2.0025500    -0.0680990     1.3309880
  C        1.8485240    -0.5426110    -0.0314710
  C        1.2868380     0.6338010    -0.8471420
  C        1.7532090    -0.2607150     1.4674660
  C        3.2880220    -0.8256370    -0.4545800
  C       -0.1082690     0.9825120    -0.4201650
  C       -2.0332132    -0.3321891     0.2019429
  C       -3.1365800    -1.0497620    -0.5798680
  H        1.2371820    -1.4239180    -0.2609290
  H        1.9026850     1.5280430    -0.7082120
  H        1.2768590     0.3787260    -1.9135380
  H        2.3119230     0.6465730     1.7229020
  H        2.1770720    -1.0909040     2.0408530
  H        0.7169210    -0.1225920     1.7908070
  H        3.9287710     0.0354160    -0.2359390
  H        3.6876870    -1.6881060     0.0874480
  H        3.3559530    -1.0370340    -1.5265420
  H       -3.5589910    -0.3771620    -1.3307760
  H       -3.9066010    -1.3512680     0.1291360
  H       -2.7361560    -1.9219890    -1.1015230
units angstrom
no_reorient  #important for SAPT in psi4, default
symmetry c1  #important for SAPT in psi4, default
}

set PROPERTIES_ORIGIN ["COM"]
properties('MP2/aug-cc-pvtz', properties = ['dipole'])
--------------------------------------------------------------------------

    Molecular point group: c1
  Charge       = 0
  Multiplicity = 1
  Basis Set: AUG-CC-PVTZ
    Blend: AUG-CC-PVTZ
  Basis Set: (AUG-CC-PVTZ AUX)
    Blend: AUG-CC-PVTZ-JKFIT

    Orbital Energies [Eh]
    ---------------------

    Doubly Occupied:

       1A    -20.618957     2A    -20.573806     3A    -20.561875
       4A    -11.400138     5A    -11.394410     6A    -11.253930
       7A    -11.248334     8A    -11.244764     9A    -11.223897
      10A    -11.215913    11A     -1.488356    12A     -1.426018
      13A     -1.365423    14A     -1.111874    15A     -1.032939
      16A     -0.987847    17A     -0.938440    18A     -0.858655
      19A     -0.793180    20A     -0.741791    21A     -0.705820
      22A     -0.696865    23A     -0.683033    24A     -0.648213
      25A     -0.630011    26A     -0.625277    27A     -0.597457
      28A     -0.586079    29A     -0.567729    30A     -0.554293
      31A     -0.550904    32A     -0.539557    33A     -0.538394
      34A     -0.494940    35A     -0.491746    36A     -0.479557
      37A     -0.474425    38A     -0.471461    39A     -0.436574

  @DF-RHF Final Energy:  -496.86377670226676

   => Energetics <=

    Nuclear Repulsion Energy =            555.9000786541989783
    One-Electron Energy =               -1781.0219503904388603
    Two-Electron Energy =                 728.2580950339731771
    Total Energy =                       -496.8637767022667049
  Basis Set: (AUG-CC-PVTZ AUX)
    Blend: AUG-CC-PVTZ-RI
    Molecular point group: c1

    Geometry (in Angstrom), charge = 0, multiplicity = 1:

       Center              X                  Y                   Z               Mass
    ------------   -----------------  -----------------  -----------------  -----------------
         O           -0.908207762250    -0.128254856707    -0.736155775652    15.994914619570
         O           -0.418633762250     1.963625143293     0.076773224348    15.994914619570
         O           -1.931210762250    -0.113220856707     1.317963224348    15.994914619570
         C            1.919863237750    -0.587732856707    -0.044495775652    12.000000000000
         C            1.358177237750     0.588679143293    -0.860166775652    12.000000000000
         C            1.824548237750    -0.305836856707     1.454441224348    12.000000000000
         C            3.359361237750    -0.870758856707    -0.467604775652    12.000000000000
         C           -0.036929762250     0.937390143293    -0.433189775652    12.000000000000
         C           -1.961873962250    -0.377310956707     0.188918124348    12.000000000000
         C           -3.065240762250    -1.094883856707    -0.592892775652    12.000000000000
         H            1.308521237750    -1.469039856707    -0.273953775652     1.007825032230
         H            1.974024237750     1.482921143293    -0.721236775652     1.007825032230
         H            1.348198237750     0.333604143293    -1.926562775652     1.007825032230
         H            2.383262237750     0.601451143293     1.709877224348     1.007825032230
         H            2.248411237750    -1.136025856707     2.027828224348     1.007825032230
         H            0.788260237750    -0.167713856707     1.777782224348     1.007825032230
         H            4.000110237750    -0.009705856707    -0.248963775652     1.007825032230
         H            3.759026237750    -1.733227856707     0.074423224348     1.007825032230
         H            3.427292237750    -1.082155856707    -1.539566775652     1.007825032230
         H           -3.487651762250    -0.422283856707    -1.343800775652     1.007825032230
         H           -3.835261762250    -1.396389856707     0.116111224348     1.007825032230
         H           -2.664816762250    -1.967110856707    -1.114547775652     1.007825032230

  Basis Set: AUG-CC-PVTZ
    Blend: AUG-CC-PVTZ
  Basis Set: (AUG-CC-PVTZ AUX)
    Blend: AUG-CC-PVTZ-JKFIT
	 Reference Energy          =    -496.8637767022667617 [Eh]
	 Singles Energy            =      -0.0000000000000000 [Eh]
	 Same-Spin Energy          =      -0.4935852208436468 [Eh]
	 Opposite-Spin Energy      =      -1.5958336800936805 [Eh]
	 Correlation Energy        =      -2.0894189009373272 [Eh]
	 Total Energy              =    -498.9531956032041080 [Eh]

	 ================> DF-SCS-MP2 Energies <==================
	-----------------------------------------------------------
	 SCS Same-Spin Scale       =       0.3333333333333333 [-]
	 SCS Opposite-Spin Scale   =       1.2000000000000000 [-]
	 SCS Same-Spin Energy      =      -0.1645284069478823 [Eh]
	 SCS Opposite-Spin Energy  =      -1.9150004161124166 [Eh]
	 SCS Correlation Energy    =      -2.0795288230602988 [Eh]
	 SCS Total Energy          =    -498.9433055253270481 [Eh]
	-----------------------------------------------------------

  Dipole Moment: [D]
     X:     0.6662      Y:    -2.5031      Z:    -2.2215     Total:     3.4124

*** Psi4 exiting successfully. Buy a developer a beer!
