                               Psi4 1.4a3.dev225

  ==> Input File <==

--------------------------------------------------------------------------
#psi4
#
memory 32 gb

molecule  {
0 1
  O       -0.9795470    -0.0831330    -0.7231310
  O       -0.4899730     2.0087470     0.0897980
  O       -2.0025500    -0.0680990     1.3309880
  C        1.8485240    -0.5426110    -0.0314710
  C        1.2132011     0.5663998    -0.8865823
  C        1.7532090    -0.2607150     1.4674660
  C        3.2880220    -0.8256370    -0.4545800
  C       -0.1082690     0.9825120    -0.4201650
  C       -2.0345350    -0.3435730     0.1532740
  C       -3.1365800    -1.0497620    -0.5798680
  H        1.2371820    -1.4239180    -0.2609290
  H        1.9026850     1.5280430    -0.7082120
  H        1.2768590     0.3787260    -1.9135380
  H        2.3119230     0.6465730     1.7229020
  H        2.1770720    -1.0909040     2.0408530
  H        0.7169210    -0.1225920     1.7908070
  H        3.9287710     0.0354160    -0.2359390
  H        3.6876870    -1.6881060     0.0874480
  H        3.3559530    -1.0370340    -1.5265420
  H       -3.5589910    -0.3771620    -1.3307760
  H       -3.9066010    -1.3512680     0.1291360
  H       -2.7361560    -1.9219890    -1.1015230
units angstrom
no_reorient  #important for SAPT in psi4, default
symmetry c1  #important for SAPT in psi4, default
}

set PROPERTIES_ORIGIN ["COM"]
properties('MP2/aug-cc-pvtz', properties = ['dipole'])
--------------------------------------------------------------------------

    Molecular point group: c1
  Charge       = 0
  Multiplicity = 1
  Basis Set: AUG-CC-PVTZ
    Blend: AUG-CC-PVTZ
  Basis Set: (AUG-CC-PVTZ AUX)
    Blend: AUG-CC-PVTZ-JKFIT

    Orbital Energies [Eh]
    ---------------------

    Doubly Occupied:

       1A    -20.624662     2A    -20.568053     3A    -20.564392
       4A    -11.403058     5A    -11.399688     6A    -11.254353
       7A    -11.252634     8A    -11.247616     9A    -11.225971
      10A    -11.216902    11A     -1.486367    12A     -1.406203
      13A     -1.364216    14A     -1.116084    15A     -1.044086
      16A     -0.997451    17A     -0.939443    18A     -0.867311
      19A     -0.795636    20A     -0.741302    21A     -0.703981
      22A     -0.701341    23A     -0.683980    24A     -0.649810
      25A     -0.633728    26A     -0.621537    27A     -0.595982
      28A     -0.588522    29A     -0.569959    30A     -0.554703
      31A     -0.542810    32A     -0.535174    33A     -0.526526
      34A     -0.499353    35A     -0.487139    36A     -0.481673
      37A     -0.476481    38A     -0.461037    39A     -0.443683

  @DF-RHF Final Energy:  -496.85039026489153

   => Energetics <=

    Nuclear Repulsion Energy =            556.3771941714622926
    One-Electron Energy =               -1781.9094805586864823
    Two-Electron Energy =                 728.6818961223327733
    Total Energy =                       -496.8503902648915300
  Basis Set: (AUG-CC-PVTZ AUX)
    Blend: AUG-CC-PVTZ-RI
    Molecular point group: c1

    Geometry (in Angstrom), charge = 0, multiplicity = 1:

       Center              X                  Y                   Z               Mass
    ------------   -----------------  -----------------  -----------------  -----------------
         O           -0.901964613553    -0.121693015395    -0.728817350131    15.994914619570
         O           -0.412390613553     1.970186984605     0.084111649869    15.994914619570
         O           -1.924967613553    -0.106659015395     1.325301649869    15.994914619570
         C            1.926106386447    -0.581171015395    -0.037157350131    12.000000000000
         C            1.290783486447     0.527839784605    -0.892268650131    12.000000000000
         C            1.830791386447    -0.299275015395     1.461779649869    12.000000000000
         C            3.365604386447    -0.864197015395    -0.460266350131    12.000000000000
         C           -0.030686613553     0.943951984605    -0.425851350131    12.000000000000
         C           -1.956952613553    -0.382133015395     0.147587649869    12.000000000000
         C           -3.058997613553    -1.088322015395    -0.585554350131    12.000000000000
         H            1.314764386447    -1.462478015395    -0.266615350131     1.007825032230
         H            1.980267386447     1.489482984605    -0.713898350131     1.007825032230
         H            1.354441386447     0.340165984605    -1.919224350131     1.007825032230
         H            2.389505386447     0.608012984605     1.717215649869     1.007825032230
         H            2.254654386447    -1.129464015395     2.035166649869     1.007825032230
         H            0.794503386447    -0.161152015395     1.785120649869     1.007825032230
         H            4.006353386447    -0.003144015395    -0.241625350131     1.007825032230
         H            3.765269386447    -1.726666015395     0.081761649869     1.007825032230
         H            3.433535386447    -1.075594015395    -1.532228350131     1.007825032230
         H           -3.481408613553    -0.415722015395    -1.336462350131     1.007825032230
         H           -3.829018613553    -1.389828015395     0.123449649869     1.007825032230
         H           -2.658573613553    -1.960549015395    -1.107209350131     1.007825032230

  Basis Set: AUG-CC-PVTZ
    Blend: AUG-CC-PVTZ
  Basis Set: (AUG-CC-PVTZ AUX)
    Blend: AUG-CC-PVTZ-JKFIT
	 Reference Energy          =    -496.8503902648915300 [Eh]
	 Singles Energy            =      -0.0000000000000000 [Eh]
	 Same-Spin Energy          =      -0.4954513530989741 [Eh]
	 Opposite-Spin Energy      =      -1.5993411327501073 [Eh]
	 Correlation Energy        =      -2.0947924858490814 [Eh]
	 Total Energy              =    -498.9451827507406279 [Eh]

	 ================> DF-SCS-MP2 Energies <==================
	-----------------------------------------------------------
	 SCS Same-Spin Scale       =       0.3333333333333333 [-]
	 SCS Opposite-Spin Scale   =       1.2000000000000000 [-]
	 SCS Same-Spin Energy      =      -0.1651504510329914 [Eh]
	 SCS Opposite-Spin Energy  =      -1.9192093593001287 [Eh]
	 SCS Correlation Energy    =      -2.0843598103331202 [Eh]
	 SCS Total Energy          =    -498.9347500752246560 [Eh]
	-----------------------------------------------------------

  Dipole Moment: [D]
     X:     0.7994      Y:    -2.5367      Z:    -2.5521     Total:     3.6861

*** Psi4 exiting successfully. Buy a developer a beer!
