                               Psi4 1.4a3.dev225

  ==> Input File <==

--------------------------------------------------------------------------
#psi4
#
memory 32 gb

molecule  {
0 1
  O       -0.9795470    -0.0831330    -0.7231310
  O       -0.4899730     2.0087470     0.0897980
  O       -2.0025500    -0.0680990     1.3309880
  C        1.8485240    -0.5426110    -0.0314710
  C        1.2868380     0.6338010    -0.8471420
  C        1.7532090    -0.2607150     1.4674660
  C        3.2880220    -0.8256370    -0.4545800
  C       -0.1082690     0.9825120    -0.4201650
  C       -2.0345350    -0.3435730     0.1532740
  C       -3.1365800    -1.0497620    -0.5798680
  H        1.3486537    -1.2632210    -0.2190898
  H        1.9026850     1.5280430    -0.7082120
  H        1.2768590     0.3787260    -1.9135380
  H        2.3119230     0.6465730     1.7229020
  H        2.1770720    -1.0909040     2.0408530
  H        0.7169210    -0.1225920     1.7908070
  H        3.9287710     0.0354160    -0.2359390
  H        3.6876870    -1.6881060     0.0874480
  H        3.3559530    -1.0370340    -1.5265420
  H       -3.5589910    -0.3771620    -1.3307760
  H       -3.9066010    -1.3512680     0.1291360
  H       -2.7361560    -1.9219890    -1.1015230
units angstrom
no_reorient  #important for SAPT in psi4, default
symmetry c1  #important for SAPT in psi4, default
}

set PROPERTIES_ORIGIN ["COM"]
properties('MP2/aug-cc-pvtz', properties = ['dipole'])
--------------------------------------------------------------------------

    Molecular point group: c1
  Charge       = 0
  Multiplicity = 1
  Basis Set: AUG-CC-PVTZ
    Blend: AUG-CC-PVTZ
  Basis Set: (AUG-CC-PVTZ AUX)
    Blend: AUG-CC-PVTZ-JKFIT

    Orbital Energies [Eh]
    ---------------------

    Doubly Occupied:

       1A    -20.627339     2A    -20.565168     3A    -20.564333
       4A    -11.404448     5A    -11.398296     6A    -11.255211
       7A    -11.249057     8A    -11.223344     9A    -11.220521
      10A    -11.214115    11A     -1.485919    12A     -1.405194
      13A     -1.363742    14A     -1.122744    15A     -1.043845
      16A     -0.991826    17A     -0.937609    18A     -0.868935
      19A     -0.825750    20A     -0.740580    21A     -0.704088
      22A     -0.699297    23A     -0.683593    24A     -0.655189
      25A     -0.629167    26A     -0.620421    27A     -0.594369
      28A     -0.590432    29A     -0.571014    30A     -0.555051
      31A     -0.550938    32A     -0.539159    33A     -0.527399
      34A     -0.500598    35A     -0.494685    36A     -0.483980
      37A     -0.474658    38A     -0.472706    39A     -0.439286

  @DF-RHF Final Energy:  -496.83125034657894

   => Energetics <=

    Nuclear Repulsion Energy =            556.6761198238094721
    One-Electron Energy =               -1782.4267265305638830
    Two-Electron Energy =                 728.9193563601753567
    Total Energy =                       -496.8312503465789405
  Basis Set: (AUG-CC-PVTZ AUX)
    Blend: AUG-CC-PVTZ-RI
    Molecular point group: c1

    Geometry (in Angstrom), charge = 0, multiplicity = 1:

       Center              X                  Y                   Z               Mass
    ------------   -----------------  -----------------  -----------------  -----------------
         O           -0.908877412982    -0.128430786036    -0.732394911509    15.994914619570
         O           -0.419303412982     1.963449213964     0.080534088491    15.994914619570
         O           -1.931880412982    -0.113396786036     1.321724088491    15.994914619570
         C            1.919193587018    -0.587908786036    -0.040734911509    12.000000000000
         C            1.357507587018     0.588503213964    -0.856405911509    12.000000000000
         C            1.823878587018    -0.306012786036     1.458202088491    12.000000000000
         C            3.358691587018    -0.870934786036    -0.463843911509    12.000000000000
         C           -0.037599412982     0.937214213964    -0.429428911509    12.000000000000
         C           -1.963865412982    -0.388870786036     0.144010088491    12.000000000000
         C           -3.065910412982    -1.095059786036    -0.589131911509    12.000000000000
         H            1.419323287018    -1.308518786036    -0.228353711509     1.007825032230
         H            1.973354587018     1.482745213964    -0.717475911509     1.007825032230
         H            1.347528587018     0.333428213964    -1.922801911509     1.007825032230
         H            2.382592587018     0.601275213964     1.713638088491     1.007825032230
         H            2.247741587018    -1.136201786036     2.031589088491     1.007825032230
         H            0.787590587018    -0.167889786036     1.781543088491     1.007825032230
         H            3.999440587018    -0.009881786036    -0.245202911509     1.007825032230
         H            3.758356587018    -1.733403786036     0.078184088491     1.007825032230
         H            3.426622587018    -1.082331786036    -1.535805911509     1.007825032230
         H           -3.488321412982    -0.422459786036    -1.340039911509     1.007825032230
         H           -3.835931412982    -1.396565786036     0.119872088491     1.007825032230
         H           -2.665486412982    -1.967286786036    -1.110786911509     1.007825032230

  Basis Set: AUG-CC-PVTZ
    Blend: AUG-CC-PVTZ
  Basis Set: (AUG-CC-PVTZ AUX)
    Blend: AUG-CC-PVTZ-JKFIT
	 Reference Energy          =    -496.8312503465789405 [Eh]
	 Singles Energy            =      -0.0000000000000000 [Eh]
	 Same-Spin Energy          =      -0.4945117539808468 [Eh]
	 Opposite-Spin Energy      =      -1.5970725804300416 [Eh]
	 Correlation Energy        =      -2.0915843344108884 [Eh]
	 Total Energy              =    -498.9228346809898085 [Eh]

	 ================> DF-SCS-MP2 Energies <==================
	-----------------------------------------------------------
	 SCS Same-Spin Scale       =       0.3333333333333333 [-]
	 SCS Opposite-Spin Scale   =       1.2000000000000000 [-]
	 SCS Same-Spin Energy      =      -0.1648372513269489 [Eh]
	 SCS Opposite-Spin Energy  =      -1.9164870965160499 [Eh]
	 SCS Correlation Energy    =      -2.0813243478429988 [Eh]
	 SCS Total Energy          =    -498.9125746944219486 [Eh]
	-----------------------------------------------------------

  Dipole Moment: [D]
     X:     0.7406      Y:    -2.5591      Z:    -2.5570     Total:     3.6927

*** Psi4 exiting successfully. Buy a developer a beer!
