                               Psi4 1.4a3.dev225

  ==> Input File <==

--------------------------------------------------------------------------
#psi4
#
memory 32 gb

molecule  {
0 1
  O       -0.9795470    -0.0831330    -0.7231310
  O       -0.4899730     2.0087470     0.0897980
  O       -2.0025500    -0.0680990     1.3309880
  C        1.8485240    -0.5426110    -0.0314710
  C        1.2868380     0.6338010    -0.8471420
  C        1.7532090    -0.2607150     1.4674660
  C        3.0994645    -0.7885639    -0.3991576
  C       -0.1082690     0.9825120    -0.4201650
  C       -2.0345350    -0.3435730     0.1532740
  C       -3.1365800    -1.0497620    -0.5798680
  H        1.2371820    -1.4239180    -0.2609290
  H        1.9026850     1.5280430    -0.7082120
  H        1.2768590     0.3787260    -1.9135380
  H        2.3119230     0.6465730     1.7229020
  H        2.1770720    -1.0909040     2.0408530
  H        0.7169210    -0.1225920     1.7908070
  H        3.9287710     0.0354160    -0.2359390
  H        3.6876870    -1.6881060     0.0874480
  H        3.3559530    -1.0370340    -1.5265420
  H       -3.5589910    -0.3771620    -1.3307760
  H       -3.9066010    -1.3512680     0.1291360
  H       -2.7361560    -1.9219890    -1.1015230
units angstrom
no_reorient  #important for SAPT in psi4, default
symmetry c1  #important for SAPT in psi4, default
}

set PROPERTIES_ORIGIN ["COM"]
properties('MP2/aug-cc-pvtz', properties = ['dipole'])
--------------------------------------------------------------------------

    Molecular point group: c1
  Charge       = 0
  Multiplicity = 1
  Basis Set: AUG-CC-PVTZ
    Blend: AUG-CC-PVTZ
  Basis Set: (AUG-CC-PVTZ AUX)
    Blend: AUG-CC-PVTZ-JKFIT

    Orbital Energies [Eh]
    ---------------------

    Doubly Occupied:

       1A    -20.627571     2A    -20.565635     3A    -20.565484
       4A    -11.404767     5A    -11.399420     6A    -11.255406
       7A    -11.252680     8A    -11.238578     9A    -11.235768
      10A    -11.217688    11A     -1.486406    12A     -1.405995
      13A     -1.364350    14A     -1.144650    15A     -1.046561
      16A     -1.000009    17A     -0.939711    18A     -0.867369
      19A     -0.792103    20A     -0.740799    21A     -0.704837
      22A     -0.700146    23A     -0.685852    24A     -0.658685
      25A     -0.633963    26A     -0.628495    27A     -0.595384
      28A     -0.590789    29A     -0.581029    30A     -0.557664
      31A     -0.552114    32A     -0.528838    33A     -0.524677
      34A     -0.513457    35A     -0.484092    36A     -0.477588
      37A     -0.459714    38A     -0.450749    39A     -0.437371

  @DF-RHF Final Energy:  -496.81402603768407

   => Energetics <=

    Nuclear Repulsion Energy =            559.4641919726796004
    One-Electron Energy =               -1787.9236513456155535
    Two-Electron Energy =                 731.6454333352519370
    Total Energy =                       -496.8140260376840160
  Basis Set: (AUG-CC-PVTZ AUX)
    Blend: AUG-CC-PVTZ-RI
    Molecular point group: c1

    Geometry (in Angstrom), charge = 0, multiplicity = 1:

       Center              X                  Y                   Z               Mass
    ------------   -----------------  -----------------  -----------------  -----------------
         O           -0.892393124265    -0.130394454852    -0.736718260123    15.994914619570
         O           -0.402819124265     1.961485545148     0.076210739877    15.994914619570
         O           -1.915396124265    -0.115360454852     1.317400739877    15.994914619570
         C            1.935677875735    -0.589872454852    -0.045058260123    12.000000000000
         C            1.373991875735     0.586539545148    -0.860729260123    12.000000000000
         C            1.840362875735    -0.307976454852     1.453878739877    12.000000000000
         C            3.186618375735    -0.835825354852    -0.412744860123    12.000000000000
         C           -0.021115124265     0.935250545148    -0.433752260123    12.000000000000
         C           -1.947381124265    -0.390834454852     0.139686739877    12.000000000000
         C           -3.049426124265    -1.097023454852    -0.593455260123    12.000000000000
         H            1.324335875735    -1.471179454852    -0.274516260123     1.007825032230
         H            1.989838875735     1.480781545148    -0.721799260123     1.007825032230
         H            1.364012875735     0.331464545148    -1.927125260123     1.007825032230
         H            2.399076875735     0.599311545148     1.709314739877     1.007825032230
         H            2.264225875735    -1.138165454852     2.027265739877     1.007825032230
         H            0.804074875735    -0.169853454852     1.777219739877     1.007825032230
         H            4.015924875735    -0.011845454852    -0.249526260123     1.007825032230
         H            3.774840875735    -1.735367454852     0.073860739877     1.007825032230
         H            3.443106875735    -1.084295454852    -1.540129260123     1.007825032230
         H           -3.471837124265    -0.424423454852    -1.344363260123     1.007825032230
         H           -3.819447124265    -1.398529454852     0.115548739877     1.007825032230
         H           -2.649002124265    -1.969250454852    -1.115110260123     1.007825032230

  Basis Set: AUG-CC-PVTZ
    Blend: AUG-CC-PVTZ
  Basis Set: (AUG-CC-PVTZ AUX)
    Blend: AUG-CC-PVTZ-JKFIT
	 Reference Energy          =    -496.8140260376840729 [Eh]
	 Singles Energy            =      -0.0000000000000000 [Eh]
	 Same-Spin Energy          =      -0.4976886955073129 [Eh]
	 Opposite-Spin Energy      =      -1.6019136833320684 [Eh]
	 Correlation Energy        =      -2.0996023788393812 [Eh]
	 Total Energy              =    -498.9136284165234656 [Eh]

	 ================> DF-SCS-MP2 Energies <==================
	-----------------------------------------------------------
	 SCS Same-Spin Scale       =       0.3333333333333333 [-]
	 SCS Opposite-Spin Scale   =       1.2000000000000000 [-]
	 SCS Same-Spin Energy      =      -0.1658962318357710 [Eh]
	 SCS Opposite-Spin Energy  =      -1.9222964199984820 [Eh]
	 SCS Correlation Energy    =      -2.0881926518342531 [Eh]
	 SCS Total Energy          =    -498.9022186895183495 [Eh]
	-----------------------------------------------------------

  Dipole Moment: [D]
     X:     0.6912      Y:    -2.4816      Z:    -2.5107     Total:     3.5972

*** Psi4 exiting successfully. Buy a developer a beer!
