                               Psi4 1.4a3.dev225

  ==> Input File <==

--------------------------------------------------------------------------
#psi4
#
memory 32 gb

molecule  {
0 1
  O       -0.9795470    -0.0831330    -0.7231310
  O       -0.4899730     2.0087470     0.0897980
  O       -2.0025500    -0.0680990     1.3309880
  C        1.8485240    -0.5426110    -0.0314710
  C        1.2868380     0.6338010    -0.8471420
  C        1.7532090    -0.2607150     1.4674660
  C        3.2880220    -0.8256370    -0.4545800
  C       -0.1082690     0.9825120    -0.4201650
  C       -2.0345350    -0.3435730     0.1532740
  C       -3.1365800    -1.0497620    -0.5798680
  H        1.2260348    -1.4399877    -0.2651129
  H        1.9026850     1.5280430    -0.7082120
  H        1.2768590     0.3787260    -1.9135380
  H        2.3119230     0.6465730     1.7229020
  H        2.1770720    -1.0909040     2.0408530
  H        0.7169210    -0.1225920     1.7908070
  H        3.9287710     0.0354160    -0.2359390
  H        3.6876870    -1.6881060     0.0874480
  H        3.3559530    -1.0370340    -1.5265420
  H       -3.5589910    -0.3771620    -1.3307760
  H       -3.9066010    -1.3512680     0.1291360
  H       -2.7361560    -1.9219890    -1.1015230
units angstrom
no_reorient  #important for SAPT in psi4, default
symmetry c1  #important for SAPT in psi4, default
}

set PROPERTIES_ORIGIN ["COM"]
properties('MP2/aug-cc-pvtz', properties = ['dipole'])
--------------------------------------------------------------------------

    Molecular point group: c1
  Charge       = 0
  Multiplicity = 1
  Basis Set: AUG-CC-PVTZ
    Blend: AUG-CC-PVTZ
  Basis Set: (AUG-CC-PVTZ AUX)
    Blend: AUG-CC-PVTZ-JKFIT

    Orbital Energies [Eh]
    ---------------------

    Doubly Occupied:

       1A    -20.626603     2A    -20.564731     3A    -20.564649
       4A    -11.404028     5A    -11.398568     6A    -11.254853
       7A    -11.250866     8A    -11.248185     9A    -11.224822
      10A    -11.215772    11A     -1.485468    12A     -1.405144
      13A     -1.363459    14A     -1.113121    15A     -1.042809
      16A     -0.991199    17A     -0.938820    18A     -0.868152
      19A     -0.792398    20A     -0.739298    21A     -0.701927
      22A     -0.698283    23A     -0.682749    24A     -0.647853
      25A     -0.629238    26A     -0.620873    27A     -0.594330
      28A     -0.590010    29A     -0.570225    30A     -0.555601
      31A     -0.551536    32A     -0.539913    33A     -0.527392
      34A     -0.496014    35A     -0.486835    36A     -0.478860
      37A     -0.473849    38A     -0.470152    39A     -0.439626

  @DF-RHF Final Energy:  -496.86342346981257

   => Energetics <=

    Nuclear Repulsion Energy =            555.5555249119876180
    One-Electron Energy =               -1780.3414729800601890
    Two-Electron Energy =                 727.9225245982601109
    Total Energy =                       -496.8634234698125738
  Basis Set: (AUG-CC-PVTZ AUX)
    Blend: AUG-CC-PVTZ-RI
    Molecular point group: c1

    Geometry (in Angstrom), charge = 0, multiplicity = 1:

       Center              X                  Y                   Z               Mass
    ------------   -----------------  -----------------  -----------------  -----------------
         O           -0.908019698104    -0.127194309207    -0.732072981549    15.994914619570
         O           -0.418445698104     1.964685690793     0.080856018451    15.994914619570
         O           -1.931022698104    -0.112160309207     1.322046018451    15.994914619570
         C            1.920051301896    -0.586672309207    -0.040412981549    12.000000000000
         C            1.358365301896     0.589739690793    -0.856083981549    12.000000000000
         C            1.824736301896    -0.304776309207     1.458524018451    12.000000000000
         C            3.359549301896    -0.869698309207    -0.463521981549    12.000000000000
         C           -0.036741698104     0.938450690793    -0.429106981549    12.000000000000
         C           -1.963007698104    -0.387634309207     0.144332018451    12.000000000000
         C           -3.065052698104    -1.093823309207    -0.588809981549    12.000000000000
         H            1.297562101896    -1.484049009207    -0.274054881549     1.007825032230
         H            1.974212301896     1.483981690793    -0.717153981549     1.007825032230
         H            1.348386301896     0.334664690793    -1.922479981549     1.007825032230
         H            2.383450301896     0.602511690793     1.713960018451     1.007825032230
         H            2.248599301896    -1.134965309207     2.031911018451     1.007825032230
         H            0.788448301896    -0.166653309207     1.781865018451     1.007825032230
         H            4.000298301896    -0.008645309207    -0.244880981549     1.007825032230
         H            3.759214301896    -1.732167309207     0.078506018451     1.007825032230
         H            3.427480301896    -1.081095309207    -1.535483981549     1.007825032230
         H           -3.487463698104    -0.421223309207    -1.339717981549     1.007825032230
         H           -3.835073698104    -1.395329309207     0.120194018451     1.007825032230
         H           -2.664628698104    -1.966050309207    -1.110464981549     1.007825032230

  Basis Set: AUG-CC-PVTZ
    Blend: AUG-CC-PVTZ
  Basis Set: (AUG-CC-PVTZ AUX)
    Blend: AUG-CC-PVTZ-JKFIT
	 Reference Energy          =    -496.8634234698125738 [Eh]
	 Singles Energy            =      -0.0000000000000000 [Eh]
	 Same-Spin Energy          =      -0.4946324922787370 [Eh]
	 Opposite-Spin Energy      =      -1.5979650485119161 [Eh]
	 Correlation Energy        =      -2.0925975407906532 [Eh]
	 Total Energy              =    -498.9560210106032514 [Eh]

	 ================> DF-SCS-MP2 Energies <==================
	-----------------------------------------------------------
	 SCS Same-Spin Scale       =       0.3333333333333333 [-]
	 SCS Opposite-Spin Scale   =       1.2000000000000000 [-]
	 SCS Same-Spin Energy      =      -0.1648774974262456 [Eh]
	 SCS Opposite-Spin Energy  =      -1.9175580582142993 [Eh]
	 SCS Correlation Energy    =      -2.0824355556405449 [Eh]
	 SCS Total Energy          =    -498.9458590254531032 [Eh]
	-----------------------------------------------------------

  Dipole Moment: [D]
     X:     0.7934      Y:    -2.4868      Z:    -2.5384     Total:     3.6411

*** Psi4 exiting successfully. Buy a developer a beer!
