                               Psi4 1.4a3.dev225

  ==> Input File <==

--------------------------------------------------------------------------
#psi4
#
memory 32 gb

molecule  {
0 1
  O       -0.9795470    -0.0831330    -0.7231310
  O       -0.4899730     2.0087470     0.0897980
  O       -2.0025500    -0.0680990     1.3309880
  C        1.8485240    -0.5426110    -0.0314710
  C        1.2795328     0.6491012    -0.8577504
  C        1.7532090    -0.2607150     1.4674660
  C        3.2880220    -0.8256370    -0.4545800
  C       -0.1082690     0.9825120    -0.4201650
  C       -2.0345350    -0.3435730     0.1532740
  C       -3.1365800    -1.0497620    -0.5798680
  H        1.2371820    -1.4239180    -0.2609290
  H        1.9026850     1.5280430    -0.7082120
  H        1.2768590     0.3787260    -1.9135380
  H        2.3119230     0.6465730     1.7229020
  H        2.1770720    -1.0909040     2.0408530
  H        0.7169210    -0.1225920     1.7908070
  H        3.9287710     0.0354160    -0.2359390
  H        3.6876870    -1.6881060     0.0874480
  H        3.3559530    -1.0370340    -1.5265420
  H       -3.5589910    -0.3771620    -1.3307760
  H       -3.9066010    -1.3512680     0.1291360
  H       -2.7361560    -1.9219890    -1.1015230
units angstrom
no_reorient  #important for SAPT in psi4, default
symmetry c1  #important for SAPT in psi4, default
}

set PROPERTIES_ORIGIN ["COM"]
properties('MP2/aug-cc-pvtz', properties = ['dipole'])
--------------------------------------------------------------------------

    Molecular point group: c1
  Charge       = 0
  Multiplicity = 1
  Basis Set: AUG-CC-PVTZ
    Blend: AUG-CC-PVTZ
  Basis Set: (AUG-CC-PVTZ AUX)
    Blend: AUG-CC-PVTZ-JKFIT

    Orbital Energies [Eh]
    ---------------------

    Doubly Occupied:

       1A    -20.626835     2A    -20.564740     3A    -20.563893
       4A    -11.404062     5A    -11.398100     6A    -11.254902
       7A    -11.249642     8A    -11.247120     9A    -11.224734
      10A    -11.215620    11A     -1.485507    12A     -1.404991
      13A     -1.363371    14A     -1.111517    15A     -1.042935
      16A     -0.992579    17A     -0.938548    18A     -0.867895
      19A     -0.793873    20A     -0.739527    21A     -0.702215
      22A     -0.698975    23A     -0.682714    24A     -0.648202
      25A     -0.629389    26A     -0.620391    27A     -0.594106
      28A     -0.590155    29A     -0.570877    30A     -0.557453
      31A     -0.551929    32A     -0.540033    33A     -0.527262
      34A     -0.494947    35A     -0.486581    36A     -0.479406
      37A     -0.474369    38A     -0.469701    39A     -0.439492

  @DF-RHF Final Energy:  -496.86388385963511

   => Energetics <=

    Nuclear Repulsion Energy =            555.4898070727614368
    One-Electron Energy =               -1780.2102091935598764
    Two-Electron Energy =                 727.8565182611635009
    Total Energy =                       -496.8638838596350524
  Basis Set: (AUG-CC-PVTZ AUX)
    Blend: AUG-CC-PVTZ-RI
    Molecular point group: c1

    Geometry (in Angstrom), charge = 0, multiplicity = 1:

       Center              X                  Y                   Z               Mass
    ------------   -----------------  -----------------  -----------------  -----------------
         O           -0.907489237998    -0.128581036900    -0.731218696991    15.994914619570
         O           -0.417915237998     1.963298963100     0.081710303009    15.994914619570
         O           -1.930492237998    -0.113547036900     1.322900303009    15.994914619570
         C            1.920581762002    -0.588059036900    -0.039558696991    12.000000000000
         C            1.351590562002     0.603653163100    -0.865838096991    12.000000000000
         C            1.825266762002    -0.306163036900     1.459378303009    12.000000000000
         C            3.360079762002    -0.871085036900    -0.462667696991    12.000000000000
         C           -0.036211237998     0.937063963100    -0.428252696991    12.000000000000
         C           -1.962477237998    -0.389021036900     0.145186303009    12.000000000000
         C           -3.064522237998    -1.095210036900    -0.587955696991    12.000000000000
         H            1.309239762002    -1.469366036900    -0.269016696991     1.007825032230
         H            1.974742762002     1.482594963100    -0.716299696991     1.007825032230
         H            1.348916762002     0.333277963100    -1.921625696991     1.007825032230
         H            2.383980762002     0.601124963100     1.714814303009     1.007825032230
         H            2.249129762002    -1.136352036900     2.032765303009     1.007825032230
         H            0.788978762002    -0.168040036900     1.782719303009     1.007825032230
         H            4.000828762002    -0.010032036900    -0.244026696991     1.007825032230
         H            3.759744762002    -1.733554036900     0.079360303009     1.007825032230
         H            3.428010762002    -1.082482036900    -1.534629696991     1.007825032230
         H           -3.486933237998    -0.422610036900    -1.338863696991     1.007825032230
         H           -3.834543237998    -1.396716036900     0.121048303009     1.007825032230
         H           -2.664098237998    -1.967437036900    -1.109610696991     1.007825032230

  Basis Set: AUG-CC-PVTZ
    Blend: AUG-CC-PVTZ
  Basis Set: (AUG-CC-PVTZ AUX)
    Blend: AUG-CC-PVTZ-JKFIT
	 Reference Energy          =    -496.8638838596351093 [Eh]
	 Singles Energy            =      -0.0000000000000000 [Eh]
	 Same-Spin Energy          =      -0.4945284498787164 [Eh]
	 Opposite-Spin Energy      =      -1.5977101236903528 [Eh]
	 Correlation Energy        =      -2.0922385735690692 [Eh]
	 Total Energy              =    -498.9561224332042002 [Eh]

	 ================> DF-SCS-MP2 Energies <==================
	-----------------------------------------------------------
	 SCS Same-Spin Scale       =       0.3333333333333333 [-]
	 SCS Opposite-Spin Scale   =       1.2000000000000000 [-]
	 SCS Same-Spin Energy      =      -0.1648428166262388 [Eh]
	 SCS Opposite-Spin Energy  =      -1.9172521484284233 [Eh]
	 SCS Correlation Energy    =      -2.0820949650546621 [Eh]
	 SCS Total Energy          =    -498.9459788246897460 [Eh]
	-----------------------------------------------------------

  Dipole Moment: [D]
     X:     0.8048      Y:    -2.5078      Z:    -2.5449     Total:     3.6624

*** Psi4 exiting successfully. Buy a developer a beer!
