                               Psi4 1.4a3.dev225

  ==> Input File <==

--------------------------------------------------------------------------
#psi4
#
memory 32 gb

molecule  {
0 1
  O       -0.9795470    -0.0831330    -0.7231310
  O       -0.4899730     2.0087470     0.0897980
  O       -2.0025500    -0.0680990     1.3309880
  C        1.8485240    -0.5426110    -0.0314710
  C        1.2868380     0.6338010    -0.8471420
  C        1.6885237    -0.3451538     1.4754374
  C        3.2880220    -0.8256370    -0.4545800
  C       -0.1082690     0.9825120    -0.4201650
  C       -2.0345350    -0.3435730     0.1532740
  C       -3.1365800    -1.0497620    -0.5798680
  H        1.2371820    -1.4239180    -0.2609290
  H        1.9026850     1.5280430    -0.7082120
  H        1.2768590     0.3787260    -1.9135380
  H        2.3119230     0.6465730     1.7229020
  H        2.1770720    -1.0909040     2.0408530
  H        0.7169210    -0.1225920     1.7908070
  H        3.9287710     0.0354160    -0.2359390
  H        3.6876870    -1.6881060     0.0874480
  H        3.3559530    -1.0370340    -1.5265420
  H       -3.5589910    -0.3771620    -1.3307760
  H       -3.9066010    -1.3512680     0.1291360
  H       -2.7361560    -1.9219890    -1.1015230
units angstrom
no_reorient  #important for SAPT in psi4, default
symmetry c1  #important for SAPT in psi4, default
}

set PROPERTIES_ORIGIN ["COM"]
properties('MP2/aug-cc-pvtz', properties = ['dipole'])
--------------------------------------------------------------------------

    Molecular point group: c1
  Charge       = 0
  Multiplicity = 1
  Basis Set: AUG-CC-PVTZ
    Blend: AUG-CC-PVTZ
  Basis Set: (AUG-CC-PVTZ AUX)
    Blend: AUG-CC-PVTZ-JKFIT

    Orbital Energies [Eh]
    ---------------------

    Doubly Occupied:

       1A    -20.627081     2A    -20.565293     3A    -20.565200
       4A    -11.404469     5A    -11.399022     6A    -11.255137
       7A    -11.251662     8A    -11.246564     9A    -11.225835
      10A    -11.218101    11A     -1.485982    12A     -1.405658
      13A     -1.363958    14A     -1.113469    15A     -1.043151
      16A     -0.991873    17A     -0.941409    18A     -0.868728
      19A     -0.794499    20A     -0.739838    21A     -0.702471
      22A     -0.698552    23A     -0.683688    24A     -0.648088
      25A     -0.630481    26A     -0.626874    27A     -0.597250
      28A     -0.590423    29A     -0.573740    30A     -0.555284
      31A     -0.553055    32A     -0.530143    33A     -0.526539
      34A     -0.505786    35A     -0.489829    36A     -0.478333
      37A     -0.475961    38A     -0.456066    39A     -0.440343

  @DF-RHF Final Energy:  -496.85310421607841

   => Energetics <=

    Nuclear Repulsion Energy =            555.7346483430584385
    One-Electron Energy =               -1780.6358419164891984
    Two-Electron Energy =                 728.0480893573522962
    Total Energy =                       -496.8531042160783500
  Basis Set: (AUG-CC-PVTZ AUX)
    Blend: AUG-CC-PVTZ-RI
    Molecular point group: c1

    Geometry (in Angstrom), charge = 0, multiplicity = 1:

       Center              X                  Y                   Z               Mass
    ------------   -----------------  -----------------  -----------------  -----------------
         O           -0.902710173040    -0.120273990382    -0.732766168521    15.994914619570
         O           -0.413136173040     1.971606009618     0.080162831479    15.994914619570
         O           -1.925713173040    -0.105239990382     1.321352831479    15.994914619570
         C            1.925360826960    -0.579751990382    -0.041106168521    12.000000000000
         C            1.363674826960     0.596660009618    -0.856777168521    12.000000000000
         C            1.765360526960    -0.382294790382     1.465802231479    12.000000000000
         C            3.364858826960    -0.862777990382    -0.464215168521    12.000000000000
         C           -0.031432173040     0.945371009618    -0.429800168521    12.000000000000
         C           -1.957698173040    -0.380713990382     0.143638831479    12.000000000000
         C           -3.059743173040    -1.086902990382    -0.589503168521    12.000000000000
         H            1.314018826960    -1.461058990382    -0.270564168521     1.007825032230
         H            1.979521826960     1.490902009618    -0.717847168521     1.007825032230
         H            1.353695826960     0.341585009618    -1.923173168521     1.007825032230
         H            2.388759826960     0.609432009618     1.713266831479     1.007825032230
         H            2.253908826960    -1.128044990382     2.031217831479     1.007825032230
         H            0.793757826960    -0.159732990382     1.781171831479     1.007825032230
         H            4.005607826960    -0.001724990382    -0.245574168521     1.007825032230
         H            3.764523826960    -1.725246990382     0.077812831479     1.007825032230
         H            3.432789826960    -1.074174990382    -1.536177168521     1.007825032230
         H           -3.482154173040    -0.414302990382    -1.340411168521     1.007825032230
         H           -3.829764173040    -1.388408990382     0.119500831479     1.007825032230
         H           -2.659319173040    -1.959129990382    -1.111158168521     1.007825032230

  Basis Set: AUG-CC-PVTZ
    Blend: AUG-CC-PVTZ
  Basis Set: (AUG-CC-PVTZ AUX)
    Blend: AUG-CC-PVTZ-JKFIT
	 Reference Energy          =    -496.8531042160784068 [Eh]
	 Singles Energy            =      -0.0000000000000000 [Eh]
	 Same-Spin Energy          =      -0.4947257262822372 [Eh]
	 Opposite-Spin Energy      =      -1.5982657481243374 [Eh]
	 Correlation Energy        =      -2.0929914744065745 [Eh]
	 Total Energy              =    -498.9460956904849809 [Eh]

	 ================> DF-SCS-MP2 Energies <==================
	-----------------------------------------------------------
	 SCS Same-Spin Scale       =       0.3333333333333333 [-]
	 SCS Opposite-Spin Scale   =       1.2000000000000000 [-]
	 SCS Same-Spin Energy      =      -0.1649085754274124 [Eh]
	 SCS Opposite-Spin Energy  =      -1.9179188977492048 [Eh]
	 SCS Correlation Energy    =      -2.0828274731766170 [Eh]
	 SCS Total Energy          =    -498.9359316892550282 [Eh]
	-----------------------------------------------------------

  Dipole Moment: [D]
     X:     0.7596      Y:    -2.5464      Z:    -2.5778     Total:     3.7021

*** Psi4 exiting successfully. Buy a developer a beer!
