                               Psi4 1.4a3.dev225

  ==> Input File <==

--------------------------------------------------------------------------
#psi4
#
memory 32 gb

molecule  {
0 1
  O       -0.9795470    -0.0831330    -0.7231310
  O       -0.4899730     2.0087470     0.0897980
  O       -2.0025500    -0.0680990     1.3309880
  C        1.8485240    -0.5426110    -0.0314710
  C        1.2868380     0.6338010    -0.8471420
  C        1.7532090    -0.2607150     1.4674660
  C        3.2408826    -0.8163687    -0.4407244
  C       -0.1082690     0.9825120    -0.4201650
  C       -2.0345350    -0.3435730     0.1532740
  C       -3.1365800    -1.0497620    -0.5798680
  H        1.2371820    -1.4239180    -0.2609290
  H        1.9026850     1.5280430    -0.7082120
  H        1.2768590     0.3787260    -1.9135380
  H        2.3119230     0.6465730     1.7229020
  H        2.1770720    -1.0909040     2.0408530
  H        0.7169210    -0.1225920     1.7908070
  H        3.9287710     0.0354160    -0.2359390
  H        3.6876870    -1.6881060     0.0874480
  H        3.3559530    -1.0370340    -1.5265420
  H       -3.5589910    -0.3771620    -1.3307760
  H       -3.9066010    -1.3512680     0.1291360
  H       -2.7361560    -1.9219890    -1.1015230
units angstrom
no_reorient  #important for SAPT in psi4, default
symmetry c1  #important for SAPT in psi4, default
}

set PROPERTIES_ORIGIN ["COM"]
properties('MP2/aug-cc-pvtz', properties = ['dipole'])
--------------------------------------------------------------------------

    Molecular point group: c1
  Charge       = 0
  Multiplicity = 1
  Basis Set: AUG-CC-PVTZ
    Blend: AUG-CC-PVTZ
  Basis Set: (AUG-CC-PVTZ AUX)
    Blend: AUG-CC-PVTZ-JKFIT

    Orbital Energies [Eh]
    ---------------------

    Doubly Occupied:

       1A    -20.626830     2A    -20.564897     3A    -20.564773
       4A    -11.404190     5A    -11.398673     6A    -11.254980
       7A    -11.250902     8A    -11.243610     9A    -11.227206
      10A    -11.215828    11A     -1.485664    12A     -1.405285
      13A     -1.363631    14A     -1.119255    15A     -1.043656
      16A     -0.993054    17A     -0.938232    18A     -0.867920
      19A     -0.794670    20A     -0.739667    21A     -0.702510
      22A     -0.698780    23A     -0.683348    24A     -0.650292
      25A     -0.629802    26A     -0.622305    27A     -0.594023
      28A     -0.590084    29A     -0.571678    30A     -0.555479
      31A     -0.549837    32A     -0.534565    33A     -0.527319
      34A     -0.502212    35A     -0.486503    36A     -0.477591
      37A     -0.472823    38A     -0.470001    39A     -0.440577

  @DF-RHF Final Energy:  -496.86094446655335

   => Energetics <=

    Nuclear Repulsion Energy =            556.5445771557559738
    One-Electron Energy =               -1782.2857358039859719
    Two-Electron Energy =                 728.8802141816764788
    Total Energy =                       -496.8609444665534056
  Basis Set: (AUG-CC-PVTZ AUX)
    Blend: AUG-CC-PVTZ-RI
    Molecular point group: c1

    Geometry (in Angstrom), charge = 0, multiplicity = 1:

       Center              X                  Y                   Z               Mass
    ------------   -----------------  -----------------  -----------------  -----------------
         O           -0.904171533265    -0.128078652939    -0.733256250867    15.994914619570
         O           -0.414597533265     1.963801347061     0.079672749133    15.994914619570
         O           -1.927174533265    -0.113044652939     1.320862749133    15.994914619570
         C            1.923899466735    -0.587556652939    -0.041596250867    12.000000000000
         C            1.362213466735     0.588855347061    -0.857267250867    12.000000000000
         C            1.828584466735    -0.305660652939     1.457340749133    12.000000000000
         C            3.316258066735    -0.861314352939    -0.450849650867    12.000000000000
         C           -0.032893533265     0.937566347061    -0.430290250867    12.000000000000
         C           -1.959159533265    -0.388518652939     0.143148749133    12.000000000000
         C           -3.061204533265    -1.094707652939    -0.589993250867    12.000000000000
         H            1.312557466735    -1.468863652939    -0.271054250867     1.007825032230
         H            1.978060466735     1.483097347061    -0.718337250867     1.007825032230
         H            1.352234466735     0.333780347061    -1.923663250867     1.007825032230
         H            2.387298466735     0.601627347061     1.712776749133     1.007825032230
         H            2.252447466735    -1.135849652939     2.030727749133     1.007825032230
         H            0.792296466735    -0.167537652939     1.780681749133     1.007825032230
         H            4.004146466735    -0.009529652939    -0.246064250867     1.007825032230
         H            3.763062466735    -1.733051652939     0.077322749133     1.007825032230
         H            3.431328466735    -1.081979652939    -1.536667250867     1.007825032230
         H           -3.483615533265    -0.422107652939    -1.340901250867     1.007825032230
         H           -3.831225533265    -1.396213652939     0.119010749133     1.007825032230
         H           -2.660780533265    -1.966934652939    -1.111648250867     1.007825032230

  Basis Set: AUG-CC-PVTZ
    Blend: AUG-CC-PVTZ
  Basis Set: (AUG-CC-PVTZ AUX)
    Blend: AUG-CC-PVTZ-JKFIT
	 Reference Energy          =    -496.8609444665533488 [Eh]
	 Singles Energy            =      -0.0000000000000000 [Eh]
	 Same-Spin Energy          =      -0.4950511211966909 [Eh]
	 Opposite-Spin Energy      =      -1.5982775813118824 [Eh]
	 Correlation Energy        =      -2.0933287025085732 [Eh]
	 Total Energy              =    -498.9542731690619348 [Eh]

	 ================> DF-SCS-MP2 Energies <==================
	-----------------------------------------------------------
	 SCS Same-Spin Scale       =       0.3333333333333333 [-]
	 SCS Opposite-Spin Scale   =       1.2000000000000000 [-]
	 SCS Same-Spin Energy      =      -0.1650170403988969 [Eh]
	 SCS Opposite-Spin Energy  =      -1.9179330975742588 [Eh]
	 SCS Correlation Energy    =      -2.0829501379731559 [Eh]
	 SCS Total Energy          =    -498.9438946045265197 [Eh]
	-----------------------------------------------------------

  Dipole Moment: [D]
     X:     0.7802      Y:    -2.4968      Z:    -2.5393     Total:     3.6457

*** Psi4 exiting successfully. Buy a developer a beer!
