                               Psi4 1.4a3.dev225

  ==> Input File <==

--------------------------------------------------------------------------
#psi4
#
memory 32 gb

molecule  {
0 1
  O       -0.9795470    -0.0831330    -0.7231310
  O       -0.4899730     2.0087470     0.0897980
  O       -2.0025500    -0.0680990     1.3309880
  C        1.8485240    -0.5426110    -0.0314710
  C        1.2868380     0.6338010    -0.8471420
  C        1.7532090    -0.2607150     1.4674660
  C        3.2880220    -0.8256370    -0.4545800
  C       -0.1082690     0.9825120    -0.4201650
  C       -2.0345350    -0.3435730     0.1532740
  C       -3.1365800    -1.0497620    -0.5798680
  H        1.2371820    -1.4239180    -0.2609290
  H        1.9026850     1.5280430    -0.7082120
  H        1.2768590     0.3787260    -1.9135380
  H        2.3119230     0.6465730     1.7229020
  H        2.1770720    -1.0909040     2.0408530
  H        0.7169210    -0.1225920     1.7908070
  H        3.9287710     0.0354160    -0.2359390
  H        3.6876870    -1.6881060     0.0874480
  H        3.3528503    -1.0273787    -1.4775813
  H       -3.5589910    -0.3771620    -1.3307760
  H       -3.9066010    -1.3512680     0.1291360
  H       -2.7361560    -1.9219890    -1.1015230
units angstrom
no_reorient  #important for SAPT in psi4, default
symmetry c1  #important for SAPT in psi4, default
}

set PROPERTIES_ORIGIN ["COM"]
properties('MP2/aug-cc-pvtz', properties = ['dipole'])
--------------------------------------------------------------------------

    Molecular point group: c1
  Charge       = 0
  Multiplicity = 1
  Basis Set: AUG-CC-PVTZ
    Blend: AUG-CC-PVTZ
  Basis Set: (AUG-CC-PVTZ AUX)
    Blend: AUG-CC-PVTZ-JKFIT

    Orbital Energies [Eh]
    ---------------------

    Doubly Occupied:

       1A    -20.626621     2A    -20.564706     3A    -20.564539
       4A    -11.404007     5A    -11.398485     6A    -11.254858
       7A    -11.250604     8A    -11.245237     9A    -11.218326
      10A    -11.215059    11A     -1.485449    12A     -1.405073
      13A     -1.363419    14A     -1.113901    15A     -1.042958
      16A     -0.991951    17A     -0.941639    18A     -0.868409
      19A     -0.795465    20A     -0.739359    21A     -0.702024
      22A     -0.698343    23A     -0.682914    24A     -0.649179
      25A     -0.629146    26A     -0.622955    27A     -0.596071
      28A     -0.589997    29A     -0.570763    30A     -0.555373
      31A     -0.553305    32A     -0.539651    33A     -0.527403
      34A     -0.496905    35A     -0.487053    36A     -0.480318
      37A     -0.473969    38A     -0.471101    39A     -0.439426

  @DF-RHF Final Energy:  -496.86296643578464

   => Energetics <=

    Nuclear Repulsion Energy =            555.8686071367357044
    One-Electron Energy =               -1780.9512272207471142
    Two-Electron Energy =                 728.2196536482268812
    Total Energy =                       -496.8629664357846423
  Basis Set: (AUG-CC-PVTZ AUX)
    Blend: AUG-CC-PVTZ-RI
    Molecular point group: c1

    Geometry (in Angstrom), charge = 0, multiplicity = 1:

       Center              X                  Y                   Z               Mass
    ------------   -----------------  -----------------  -----------------  -----------------
         O           -0.908075969097    -0.127374254674    -0.732444726151    15.994914619570
         O           -0.418501969097     1.964505745326     0.080484273849    15.994914619570
         O           -1.931078969097    -0.112340254674     1.321674273849    15.994914619570
         C            1.919995030903    -0.586852254674    -0.040784726151    12.000000000000
         C            1.358309030903     0.589559745326    -0.856455726151    12.000000000000
         C            1.824680030903    -0.304956254674     1.458152273849    12.000000000000
         C            3.359493030903    -0.869878254674    -0.463893726151    12.000000000000
         C           -0.036797969097     0.938270745326    -0.429478726151    12.000000000000
         C           -1.963063969097    -0.387814254674     0.143960273849    12.000000000000
         C           -3.065108969097    -1.094003254674    -0.589181726151    12.000000000000
         H            1.308653030903    -1.468159254674    -0.270242726151     1.007825032230
         H            1.974156030903     1.483801745326    -0.717525726151     1.007825032230
         H            1.348330030903     0.334484745326    -1.922851726151     1.007825032230
         H            2.383394030903     0.602331745326     1.713588273849     1.007825032230
         H            2.248543030903    -1.135145254674     2.031539273849     1.007825032230
         H            0.788392030903    -0.166833254674     1.781493273849     1.007825032230
         H            4.000242030903    -0.008825254674    -0.245252726151     1.007825032230
         H            3.759158030903    -1.732347254674     0.078134273849     1.007825032230
         H            3.424321330903    -1.071619954674    -1.486895026151     1.007825032230
         H           -3.487519969097    -0.421403254674    -1.340089726151     1.007825032230
         H           -3.835129969097    -1.395509254674     0.119822273849     1.007825032230
         H           -2.664684969097    -1.966230254674    -1.110836726151     1.007825032230

  Basis Set: AUG-CC-PVTZ
    Blend: AUG-CC-PVTZ
  Basis Set: (AUG-CC-PVTZ AUX)
    Blend: AUG-CC-PVTZ-JKFIT
	 Reference Energy          =    -496.8629664357846423 [Eh]
	 Singles Energy            =      -0.0000000000000000 [Eh]
	 Same-Spin Energy          =      -0.4946272898851012 [Eh]
	 Opposite-Spin Energy      =      -1.5975419981886891 [Eh]
	 Correlation Energy        =      -2.0921692880737903 [Eh]
	 Total Energy              =    -498.9551357238584046 [Eh]

	 ================> DF-SCS-MP2 Energies <==================
	-----------------------------------------------------------
	 SCS Same-Spin Scale       =       0.3333333333333333 [-]
	 SCS Opposite-Spin Scale   =       1.2000000000000000 [-]
	 SCS Same-Spin Energy      =      -0.1648757632950337 [Eh]
	 SCS Opposite-Spin Energy  =      -1.9170503978264268 [Eh]
	 SCS Correlation Energy    =      -2.0819261611214603 [Eh]
	 SCS Total Energy          =    -498.9448925969061293 [Eh]
	-----------------------------------------------------------

  Dipole Moment: [D]
     X:     0.7980      Y:    -2.5040      Z:    -2.5725     Total:     3.6776

*** Psi4 exiting successfully. Buy a developer a beer!
