                               Psi4 1.4a3.dev225

  ==> Input File <==

--------------------------------------------------------------------------
#psi4
#
memory 32 gb

molecule  {
0 1
  O       -0.9795470    -0.0831330    -0.7231310
  O       -0.4899730     2.0087470     0.0897980
  O       -2.0025500    -0.0680990     1.3309880
  C        1.8475631    -0.5016197    -0.0655164
  C        1.2868380     0.6338010    -0.8471420
  C        1.7532090    -0.2607150     1.4674660
  C        3.2880220    -0.8256370    -0.4545800
  C       -0.1082690     0.9825120    -0.4201650
  C       -2.0345350    -0.3435730     0.1532740
  C       -3.1365800    -1.0497620    -0.5798680
  H        1.2371820    -1.4239180    -0.2609290
  H        1.9026850     1.5280430    -0.7082120
  H        1.2768590     0.3787260    -1.9135380
  H        2.3119230     0.6465730     1.7229020
  H        2.1770720    -1.0909040     2.0408530
  H        0.7169210    -0.1225920     1.7908070
  H        3.9287710     0.0354160    -0.2359390
  H        3.6876870    -1.6881060     0.0874480
  H        3.3559530    -1.0370340    -1.5265420
  H       -3.5589910    -0.3771620    -1.3307760
  H       -3.9066010    -1.3512680     0.1291360
  H       -2.7361560    -1.9219890    -1.1015230
units angstrom
no_reorient  #important for SAPT in psi4, default
symmetry c1  #important for SAPT in psi4, default
}

set PROPERTIES_ORIGIN ["COM"]
properties('MP2/aug-cc-pvtz', properties = ['dipole'])
--------------------------------------------------------------------------

    Molecular point group: c1
  Charge       = 0
  Multiplicity = 1
  Basis Set: AUG-CC-PVTZ
    Blend: AUG-CC-PVTZ
  Basis Set: (AUG-CC-PVTZ AUX)
    Blend: AUG-CC-PVTZ-JKFIT

    Orbital Energies [Eh]
    ---------------------

    Doubly Occupied:

       1A    -20.627266     2A    -20.566021     3A    -20.565026
       4A    -11.404367     5A    -11.400019     6A    -11.255060
       7A    -11.250297     8A    -11.245820     9A    -11.224728
      10A    -11.216128    11A     -1.486166    12A     -1.405909
      13A     -1.364149    14A     -1.118438    15A     -1.042795
      16A     -0.991453    17A     -0.936133    18A     -0.870995
      19A     -0.792959    20A     -0.739924    21A     -0.703401
      22A     -0.699867    23A     -0.683197    24A     -0.650226
      25A     -0.630749    26A     -0.620864    27A     -0.594060
      28A     -0.590193    29A     -0.570084    30A     -0.556143
      31A     -0.550402    32A     -0.540086    33A     -0.528318
      34A     -0.501755    35A     -0.488293    36A     -0.477988
      37A     -0.472099    38A     -0.463623    39A     -0.440975

  @DF-RHF Final Energy:  -496.86075474894392

   => Energetics <=

    Nuclear Repulsion Energy =            555.9918189584790298
    One-Electron Energy =               -1781.1731945194378568
    Two-Electron Energy =                 728.3206208120147949
    Total Energy =                       -496.8607547489439185
  Basis Set: (AUG-CC-PVTZ AUX)
    Blend: AUG-CC-PVTZ-RI
    Molecular point group: c1

    Geometry (in Angstrom), charge = 0, multiplicity = 1:

       Center              X                  Y                   Z               Mass
    ------------   -----------------  -----------------  -----------------  -----------------
         O           -0.908017641083    -0.130720793292    -0.729266679734    15.994914619570
         O           -0.418443641083     1.961159206708     0.083662320266    15.994914619570
         O           -1.931020641083    -0.115686793292     1.324852320266    15.994914619570
         C            1.919092458917    -0.549207493292    -0.071652079734    12.000000000000
         C            1.358367358917     0.586213206708    -0.853277679734    12.000000000000
         C            1.824738358917    -0.308302793292     1.461330320266    12.000000000000
         C            3.359551358917    -0.873224793292    -0.460715679734    12.000000000000
         C           -0.036739641083     0.934924206708    -0.426300679734    12.000000000000
         C           -1.963005641083    -0.391160793292     0.147138320266    12.000000000000
         C           -3.065050641083    -1.097349793292    -0.586003679734    12.000000000000
         H            1.308711358917    -1.471505793292    -0.267064679734     1.007825032230
         H            1.974214358917     1.480455206708    -0.714347679734     1.007825032230
         H            1.348388358917     0.331138206708    -1.919673679734     1.007825032230
         H            2.383452358917     0.598985206708     1.716766320266     1.007825032230
         H            2.248601358917    -1.138491793292     2.034717320266     1.007825032230
         H            0.788450358917    -0.170179793292     1.784671320266     1.007825032230
         H            4.000300358917    -0.012171793292    -0.242074679734     1.007825032230
         H            3.759216358917    -1.735693793292     0.081312320266     1.007825032230
         H            3.427482358917    -1.084621793292    -1.532677679734     1.007825032230
         H           -3.487461641083    -0.424749793292    -1.336911679734     1.007825032230
         H           -3.835071641083    -1.398855793292     0.123000320266     1.007825032230
         H           -2.664626641083    -1.969576793292    -1.107658679734     1.007825032230

  Basis Set: AUG-CC-PVTZ
    Blend: AUG-CC-PVTZ
  Basis Set: (AUG-CC-PVTZ AUX)
    Blend: AUG-CC-PVTZ-JKFIT
	 Reference Energy          =    -496.8607547489439185 [Eh]
	 Singles Energy            =      -0.0000000000000000 [Eh]
	 Same-Spin Energy          =      -0.4948417853489883 [Eh]
	 Opposite-Spin Energy      =      -1.5982440215052875 [Eh]
	 Correlation Energy        =      -2.0930858068542757 [Eh]
	 Total Energy              =    -498.9538405557981946 [Eh]

	 ================> DF-SCS-MP2 Energies <==================
	-----------------------------------------------------------
	 SCS Same-Spin Scale       =       0.3333333333333333 [-]
	 SCS Opposite-Spin Scale   =       1.2000000000000000 [-]
	 SCS Same-Spin Energy      =      -0.1649472617829961 [Eh]
	 SCS Opposite-Spin Energy  =      -1.9178928258063450 [Eh]
	 SCS Correlation Energy    =      -2.0828400875893411 [Eh]
	 SCS Total Energy          =    -498.9435948365332365 [Eh]
	-----------------------------------------------------------

  Dipole Moment: [D]
     X:     0.7457      Y:    -2.4655      Z:    -2.5595     Total:     3.6313

*** Psi4 exiting successfully. Buy a developer a beer!
