                               Psi4 1.4a3.dev225

  ==> Input File <==

--------------------------------------------------------------------------
#psi4
#
memory 32 gb

molecule  {
0 1
  O       -0.9795470    -0.0831330    -0.7231310
  O       -0.4899730     2.0087470     0.0897980
  O       -2.0025500    -0.0680990     1.3309880
  C        1.8485240    -0.5426110    -0.0314710
  C        1.2868380     0.6338010    -0.8471420
  C        1.7532090    -0.2607150     1.4674660
  C        3.2880220    -0.8256370    -0.4545800
  C       -0.1082690     0.9825120    -0.4201650
  C       -2.0345350    -0.3435730     0.1532740
  C       -3.1365800    -1.0497620    -0.5798680
  H        1.2371820    -1.4239180    -0.2609290
  H        1.9026850     1.5280430    -0.7082120
  H        1.2770410     0.3833784    -1.8940875
  H        2.3119230     0.6465730     1.7229020
  H        2.1770720    -1.0909040     2.0408530
  H        0.7169210    -0.1225920     1.7908070
  H        3.9287710     0.0354160    -0.2359390
  H        3.6876870    -1.6881060     0.0874480
  H        3.3559530    -1.0370340    -1.5265420
  H       -3.5589910    -0.3771620    -1.3307760
  H       -3.9066010    -1.3512680     0.1291360
  H       -2.7361560    -1.9219890    -1.1015230
units angstrom
no_reorient  #important for SAPT in psi4, default
symmetry c1  #important for SAPT in psi4, default
}

set PROPERTIES_ORIGIN ["COM"]
properties('MP2/aug-cc-pvtz', properties = ['dipole'])
--------------------------------------------------------------------------

    Molecular point group: c1
  Charge       = 0
  Multiplicity = 1
  Basis Set: AUG-CC-PVTZ
    Blend: AUG-CC-PVTZ
  Basis Set: (AUG-CC-PVTZ AUX)
    Blend: AUG-CC-PVTZ-JKFIT

    Orbital Energies [Eh]
    ---------------------

    Doubly Occupied:

       1A    -20.626701     2A    -20.564787     3A    -20.564495
       4A    -11.404090     5A    -11.398371     6A    -11.254907
       7A    -11.248308     8A    -11.245589     9A    -11.224641
      10A    -11.215417    11A     -1.485513    12A     -1.405095
      13A     -1.363465    14A     -1.114085    15A     -1.042911
      16A     -0.992026    17A     -0.938665    18A     -0.868490
      19A     -0.794669    20A     -0.739703    21A     -0.702106
      22A     -0.699218    23A     -0.682816    24A     -0.650032
      25A     -0.629612    26A     -0.620753    27A     -0.594380
      28A     -0.590050    29A     -0.570707    30A     -0.555533
      31A     -0.551813    32A     -0.539967    33A     -0.527379
      34A     -0.495867    35A     -0.487163    36A     -0.479760
      37A     -0.474236    38A     -0.471215    39A     -0.439519

  @DF-RHF Final Energy:  -496.86404946139959

   => Energetics <=

    Nuclear Repulsion Energy =            555.7509907135304275
    One-Electron Energy =               -1780.7219733919291684
    Two-Electron Energy =                 728.1069332169990957
    Total Energy =                       -496.8640494613996452
  Basis Set: (AUG-CC-PVTZ AUX)
    Blend: AUG-CC-PVTZ-RI
    Molecular point group: c1

    Geometry (in Angstrom), charge = 0, multiplicity = 1:

       Center              X                  Y                   Z               Mass
    ------------   -----------------  -----------------  -----------------  -----------------
         O           -0.908098945458    -0.127339259565    -0.732238303343    15.994914619570
         O           -0.418524945458     1.964540740435     0.080690696657    15.994914619570
         O           -1.931101945458    -0.112305259565     1.321880696657    15.994914619570
         C            1.919972054542    -0.586817259565    -0.040578303343    12.000000000000
         C            1.358286054542     0.589594740435    -0.856249303343    12.000000000000
         C            1.824657054542    -0.304921259565     1.458358696657    12.000000000000
         C            3.359470054542    -0.869843259565    -0.463687303343    12.000000000000
         C           -0.036820945458     0.938305740435    -0.429272303343    12.000000000000
         C           -1.963086945458    -0.387779259565     0.144166696657    12.000000000000
         C           -3.065131945458    -1.093968259565    -0.588975303343    12.000000000000
         H            1.308630054542    -1.468124259565    -0.270036303343     1.007825032230
         H            1.974133054542     1.483836740435    -0.717319303343     1.007825032230
         H            1.348489054542     0.339172140435    -1.903194803343     1.007825032230
         H            2.383371054542     0.602366740435     1.713794696657     1.007825032230
         H            2.248520054542    -1.135110259565     2.031745696657     1.007825032230
         H            0.788369054542    -0.166798259565     1.781699696657     1.007825032230
         H            4.000219054542    -0.008790259565    -0.245046303343     1.007825032230
         H            3.759135054542    -1.732312259565     0.078340696657     1.007825032230
         H            3.427401054542    -1.081240259565    -1.535649303343     1.007825032230
         H           -3.487542945458    -0.421368259565    -1.339883303343     1.007825032230
         H           -3.835152945458    -1.395474259565     0.120028696657     1.007825032230
         H           -2.664707945458    -1.966195259565    -1.110630303343     1.007825032230

  Basis Set: AUG-CC-PVTZ
    Blend: AUG-CC-PVTZ
  Basis Set: (AUG-CC-PVTZ AUX)
    Blend: AUG-CC-PVTZ-JKFIT
	 Reference Energy          =    -496.8640494613995884 [Eh]
	 Singles Energy            =      -0.0000000000000000 [Eh]
	 Same-Spin Energy          =      -0.4945927937991186 [Eh]
	 Opposite-Spin Energy      =      -1.5976787499692948 [Eh]
	 Correlation Energy        =      -2.0922715437684136 [Eh]
	 Total Energy              =    -498.9563210051679789 [Eh]

	 ================> DF-SCS-MP2 Energies <==================
	-----------------------------------------------------------
	 SCS Same-Spin Scale       =       0.3333333333333333 [-]
	 SCS Opposite-Spin Scale   =       1.2000000000000000 [-]
	 SCS Same-Spin Energy      =      -0.1648642645997062 [Eh]
	 SCS Opposite-Spin Energy  =      -1.9172144999631537 [Eh]
	 SCS Correlation Energy    =      -2.0820787645628598 [Eh]
	 SCS Total Energy          =    -498.9461282259624682 [Eh]
	-----------------------------------------------------------

  Dipole Moment: [D]
     X:     0.7862      Y:    -2.4961      Z:    -2.5478     Total:     3.6523

*** Psi4 exiting successfully. Buy a developer a beer!
