                               Psi4 1.4a3.dev225

  ==> Input File <==

--------------------------------------------------------------------------
#psi4
#
memory 32 gb

molecule  {
0 1
  O       -0.9795470    -0.0831330    -0.7231310
  O       -0.4899730     2.0087470     0.0897980
  O       -2.0025500    -0.0680990     1.3309880
  C        1.8485240    -0.5426110    -0.0314710
  C        1.2496547     0.6007969    -0.8673714
  C        1.7532090    -0.2607150     1.4674660
  C        3.2880220    -0.8256370    -0.4545800
  C       -0.1082690     0.9825120    -0.4201650
  C       -2.0345350    -0.3435730     0.1532740
  C       -3.1365800    -1.0497620    -0.5798680
  H        1.2371820    -1.4239180    -0.2609290
  H        1.9026850     1.5280430    -0.7082120
  H        1.2768590     0.3787260    -1.9135380
  H        2.3119230     0.6465730     1.7229020
  H        2.1770720    -1.0909040     2.0408530
  H        0.7169210    -0.1225920     1.7908070
  H        3.9287710     0.0354160    -0.2359390
  H        3.6876870    -1.6881060     0.0874480
  H        3.3559530    -1.0370340    -1.5265420
  H       -3.5589910    -0.3771620    -1.3307760
  H       -3.9066010    -1.3512680     0.1291360
  H       -2.7361560    -1.9219890    -1.1015230
units angstrom
no_reorient  #important for SAPT in psi4, default
symmetry c1  #important for SAPT in psi4, default
}

set PROPERTIES_ORIGIN ["COM"]
properties('MP2/aug-cc-pvtz', properties = ['dipole'])
--------------------------------------------------------------------------

    Molecular point group: c1
  Charge       = 0
  Multiplicity = 1
  Basis Set: AUG-CC-PVTZ
    Blend: AUG-CC-PVTZ
  Basis Set: (AUG-CC-PVTZ AUX)
    Blend: AUG-CC-PVTZ-JKFIT

    Orbital Energies [Eh]
    ---------------------

    Doubly Occupied:

       1A    -20.625628     2A    -20.566292     3A    -20.564549
       4A    -11.403543     5A    -11.398958     6A    -11.254602
       7A    -11.251205     8A    -11.246498     9A    -11.225278
      10A    -11.216186    11A     -1.485861    12A     -1.405655
      13A     -1.363793    14A     -1.114705    15A     -1.043385
      16A     -0.994371    17A     -0.939004    18A     -0.867497
      19A     -0.794966    20A     -0.740086    21A     -0.701614
      22A     -0.700710    23A     -0.683354    24A     -0.649432
      25A     -0.631706    26A     -0.620964    27A     -0.595127
      28A     -0.588999    29A     -0.569785    30A     -0.553217
      31A     -0.546226    32A     -0.539848    33A     -0.527487
      34A     -0.497337    35A     -0.485938    36A     -0.481431
      37A     -0.475395    38A     -0.467610    39A     -0.441918

  @DF-RHF Final Energy:  -496.86010245828294

   => Energetics <=

    Nuclear Repulsion Energy =            556.0158742362996236
    One-Electron Energy =               -1781.2316354219387904
    Two-Electron Energy =                 728.3556587273562855
    Total Energy =                       -496.8601024582828813
  Basis Set: (AUG-CC-PVTZ AUX)
    Blend: AUG-CC-PVTZ-RI
    Molecular point group: c1

    Geometry (in Angstrom), charge = 0, multiplicity = 1:

       Center              X                  Y                   Z               Mass
    ------------   -----------------  -----------------  -----------------  -----------------
         O           -0.905000755393    -0.124557875778    -0.730417384621    15.994914619570
         O           -0.415426755393     1.967322124222     0.082511615379    15.994914619570
         O           -1.928003755393    -0.109523875778     1.323701615379    15.994914619570
         C            1.923070244607    -0.584035875778    -0.038757384621    12.000000000000
         C            1.324200944607     0.559372024222    -0.874657784621    12.000000000000
         C            1.827755244607    -0.302139875778     1.460179615379    12.000000000000
         C            3.362568244607    -0.867061875778    -0.461866384621    12.000000000000
         C           -0.033722755393     0.941087124222    -0.427451384621    12.000000000000
         C           -1.959988755393    -0.384997875778     0.145987615379    12.000000000000
         C           -3.062033755393    -1.091186875778    -0.587154384621    12.000000000000
         H            1.311728244607    -1.465342875778    -0.268215384621     1.007825032230
         H            1.977231244607     1.486618124222    -0.715498384621     1.007825032230
         H            1.351405244607     0.337301124222    -1.920824384621     1.007825032230
         H            2.386469244607     0.605148124222     1.715615615379     1.007825032230
         H            2.251618244607    -1.132328875778     2.033566615379     1.007825032230
         H            0.791467244607    -0.164016875778     1.783520615379     1.007825032230
         H            4.003317244607    -0.006008875778    -0.243225384621     1.007825032230
         H            3.762233244607    -1.729530875778     0.080161615379     1.007825032230
         H            3.430499244607    -1.078458875778    -1.533828384621     1.007825032230
         H           -3.484444755393    -0.418586875778    -1.338062384621     1.007825032230
         H           -3.832054755393    -1.392692875778     0.121849615379     1.007825032230
         H           -2.661609755393    -1.963413875778    -1.108809384621     1.007825032230

  Basis Set: AUG-CC-PVTZ
    Blend: AUG-CC-PVTZ
  Basis Set: (AUG-CC-PVTZ AUX)
    Blend: AUG-CC-PVTZ-JKFIT
	 Reference Energy          =    -496.8601024582829382 [Eh]
	 Singles Energy            =      -0.0000000000000000 [Eh]
	 Same-Spin Energy          =      -0.4949587903691002 [Eh]
	 Opposite-Spin Energy      =      -1.5983930138274083 [Eh]
	 Correlation Energy        =      -2.0933518041965087 [Eh]
	 Total Energy              =    -498.9534542624794540 [Eh]

	 ================> DF-SCS-MP2 Energies <==================
	-----------------------------------------------------------
	 SCS Same-Spin Scale       =       0.3333333333333333 [-]
	 SCS Opposite-Spin Scale   =       1.2000000000000000 [-]
	 SCS Same-Spin Energy      =      -0.1649862634563667 [Eh]
	 SCS Opposite-Spin Energy  =      -1.9180716165928899 [Eh]
	 SCS Correlation Energy    =      -2.0830578800492567 [Eh]
	 SCS Total Energy          =    -498.9431603383321772 [Eh]
	-----------------------------------------------------------

  Dipole Moment: [D]
     X:     0.7967      Y:    -2.5133      Z:    -2.5497     Total:     3.6678

*** Psi4 exiting successfully. Buy a developer a beer!
