                               Psi4 1.4a3.dev225

  ==> Input File <==

--------------------------------------------------------------------------
#psi4
#
memory 32 gb

molecule  {
0 1
  O       -0.9795470    -0.0831330    -0.7231310
  O       -0.4899730     2.0087470     0.0897980
  O       -2.0025500    -0.0680990     1.3309880
  C        1.8485240    -0.5426110    -0.0314710
  C        1.2868380     0.6338010    -0.8471420
  C        1.7532090    -0.2607150     1.4674660
  C        3.2880220    -0.8256370    -0.4545800
  C       -0.1082690     0.9825120    -0.4201650
  C       -2.0345350    -0.3435730     0.1532740
  C       -3.1365800    -1.0497620    -0.5798680
  H        1.2371820    -1.4239180    -0.2609290
  H        1.9026850     1.5280430    -0.7082120
  H        1.2768590     0.3787260    -1.9135380
  H        2.3119230     0.6465730     1.7229020
  H        2.1770720    -1.0909040     2.0408530
  H        0.7169210    -0.1225920     1.7908070
  H        3.9872686     0.1140264    -0.2159780
  H        3.6876870    -1.6881060     0.0874480
  H        3.3559530    -1.0370340    -1.5265420
  H       -3.5589910    -0.3771620    -1.3307760
  H       -3.9066010    -1.3512680     0.1291360
  H       -2.7361560    -1.9219890    -1.1015230
units angstrom
no_reorient  #important for SAPT in psi4, default
symmetry c1  #important for SAPT in psi4, default
}

set PROPERTIES_ORIGIN ["COM"]
properties('MP2/aug-cc-pvtz', properties = ['dipole'])
--------------------------------------------------------------------------

    Molecular point group: c1
  Charge       = 0
  Multiplicity = 1
  Basis Set: AUG-CC-PVTZ
    Blend: AUG-CC-PVTZ
  Basis Set: (AUG-CC-PVTZ AUX)
    Blend: AUG-CC-PVTZ-JKFIT

    Orbital Energies [Eh]
    ---------------------

    Doubly Occupied:

       1A    -20.626911     2A    -20.564980     3A    -20.564799
       4A    -11.404268     5A    -11.398694     6A    -11.255073
       7A    -11.250825     8A    -11.247099     9A    -11.236712
      10A    -11.215775    11A     -1.485738    12A     -1.405329
      13A     -1.363693    14A     -1.113360    15A     -1.042885
      16A     -0.990052    17A     -0.934920    18A     -0.867793
      19A     -0.791910    20A     -0.739600    21A     -0.702274
      22A     -0.698642    23A     -0.682911    24A     -0.647233
      25A     -0.629366    26A     -0.621269    27A     -0.594889
      28A     -0.589887    29A     -0.570430    30A     -0.555406
      31A     -0.545856    32A     -0.533134    33A     -0.526612
      34A     -0.496785    35A     -0.486918    36A     -0.478386
      37A     -0.474166    38A     -0.469969    39A     -0.439927

  @DF-RHF Final Energy:  -496.85760697973382

   => Energetics <=

    Nuclear Repulsion Energy =            555.2389323808665722
    One-Electron Energy =               -1779.7041252262720263
    Two-Electron Energy =                 727.6075858656715809
    Total Energy =                       -496.8576069797338732
  Basis Set: (AUG-CC-PVTZ AUX)
    Blend: AUG-CC-PVTZ-RI
    Molecular point group: c1

    Geometry (in Angstrom), charge = 0, multiplicity = 1:

       Center              X                  Y                   Z               Mass
    ------------   -----------------  -----------------  -----------------  -----------------
         O           -0.908506861022    -0.127856593165    -0.732241874272    15.994914619570
         O           -0.418932861022     1.964023406835     0.080687125728    15.994914619570
         O           -1.931509861022    -0.112822593165     1.321877125728    15.994914619570
         C            1.919564138978    -0.587334593165    -0.040581874272    12.000000000000
         C            1.357878138978     0.589077406835    -0.856252874272    12.000000000000
         C            1.824249138978    -0.305438593165     1.458355125728    12.000000000000
         C            3.359062138978    -0.870360593165    -0.463690874272    12.000000000000
         C           -0.037228861022     0.937788406835    -0.429275874272    12.000000000000
         C           -1.963494861022    -0.388296593165     0.144163125728    12.000000000000
         C           -3.065539861022    -1.094485593165    -0.588978874272    12.000000000000
         H            1.308222138978    -1.468641593165    -0.270039874272     1.007825032230
         H            1.973725138978     1.483319406835    -0.717322874272     1.007825032230
         H            1.347899138978     0.334002406835    -1.922648874272     1.007825032230
         H            2.382963138978     0.601849406835     1.713791125728     1.007825032230
         H            2.248112138978    -1.135627593165     2.031742125728     1.007825032230
         H            0.787961138978    -0.167315593165     1.781696125728     1.007825032230
         H            4.058308738978     0.069302806835    -0.225088874272     1.007825032230
         H            3.758727138978    -1.732829593165     0.078337125728     1.007825032230
         H            3.426993138978    -1.081757593165    -1.535652874272     1.007825032230
         H           -3.487950861022    -0.421885593165    -1.339886874272     1.007825032230
         H           -3.835560861022    -1.395991593165     0.120025125728     1.007825032230
         H           -2.665115861022    -1.966712593165    -1.110633874272     1.007825032230

  Basis Set: AUG-CC-PVTZ
    Blend: AUG-CC-PVTZ
  Basis Set: (AUG-CC-PVTZ AUX)
    Blend: AUG-CC-PVTZ-JKFIT
	 Reference Energy          =    -496.8576069797338164 [Eh]
	 Singles Energy            =      -0.0000000000000000 [Eh]
	 Same-Spin Energy          =      -0.4946088074582868 [Eh]
	 Opposite-Spin Energy      =      -1.5985134238702279 [Eh]
	 Correlation Energy        =      -2.0931222313285147 [Eh]
	 Total Energy              =    -498.9507292110623098 [Eh]

	 ================> DF-SCS-MP2 Energies <==================
	-----------------------------------------------------------
	 SCS Same-Spin Scale       =       0.3333333333333333 [-]
	 SCS Opposite-Spin Scale   =       1.2000000000000000 [-]
	 SCS Same-Spin Energy      =      -0.1648696024860956 [Eh]
	 SCS Opposite-Spin Energy  =      -1.9182161086442733 [Eh]
	 SCS Correlation Energy    =      -2.0830857111303689 [Eh]
	 SCS Total Energy          =    -498.9406926908641822 [Eh]
	-----------------------------------------------------------

  Dipole Moment: [D]
     X:     0.7321      Y:    -2.5392      Z:    -2.5467     Total:     3.6700

*** Psi4 exiting successfully. Buy a developer a beer!
