                               Psi4 1.4a3.dev225

  ==> Input File <==

--------------------------------------------------------------------------
#psi4
#
memory 32 gb

molecule  {
0 1
  O       -0.9795470    -0.0831330    -0.7231310
  O       -0.4899730     2.0087470     0.0897980
  O       -2.0025500    -0.0680990     1.3309880
  C        1.8485240    -0.5426110    -0.0314710
  C        1.2868380     0.6338010    -0.8471420
  C        1.7532090    -0.2607150     1.4674660
  C        3.2880220    -0.8256370    -0.4545800
  C        0.0777357     0.9360196    -0.4770923
  C       -2.0345350    -0.3435730     0.1532740
  C       -3.1365800    -1.0497620    -0.5798680
  H        1.2371820    -1.4239180    -0.2609290
  H        1.9026850     1.5280430    -0.7082120
  H        1.2768590     0.3787260    -1.9135380
  H        2.3119230     0.6465730     1.7229020
  H        2.1770720    -1.0909040     2.0408530
  H        0.7169210    -0.1225920     1.7908070
  H        3.9287710     0.0354160    -0.2359390
  H        3.6876870    -1.6881060     0.0874480
  H        3.3559530    -1.0370340    -1.5265420
  H       -3.5589910    -0.3771620    -1.3307760
  H       -3.9066010    -1.3512680     0.1291360
  H       -2.7361560    -1.9219890    -1.1015230
units angstrom
no_reorient  #important for SAPT in psi4, default
symmetry c1  #important for SAPT in psi4, default
}

set PROPERTIES_ORIGIN ["COM"]
properties('MP2/aug-cc-pvtz', properties = ['dipole'])
--------------------------------------------------------------------------

    Molecular point group: c1
  Charge       = 0
  Multiplicity = 1
  Basis Set: AUG-CC-PVTZ
    Blend: AUG-CC-PVTZ
  Basis Set: (AUG-CC-PVTZ AUX)
    Blend: AUG-CC-PVTZ-JKFIT

    Orbital Energies [Eh]
    ---------------------

    Doubly Occupied:

       1A    -20.611127     2A    -20.555732     3A    -20.551582
       4A    -11.415785     5A    -11.394530     6A    -11.263786
       7A    -11.255617     8A    -11.248732     9A    -11.235352
      10A    -11.223137    11A     -1.450722    12A     -1.370080
      13A     -1.302160    14A     -1.157715    15A     -1.049762
      16A     -1.021836    17A     -0.948502    18A     -0.853212
      19A     -0.815706    20A     -0.735356    21A     -0.696317
      22A     -0.690631    23A     -0.666264    24A     -0.658840
      25A     -0.629622    26A     -0.619953    27A     -0.594527
      28A     -0.579889    29A     -0.566314    30A     -0.556110
      31A     -0.552381    32A     -0.543759    33A     -0.511869
      34A     -0.496582    35A     -0.492106    36A     -0.483147
      37A     -0.459718    38A     -0.444360    39A     -0.437962

  @DF-RHF Final Energy:  -496.78397489526520

   => Energetics <=

    Nuclear Repulsion Energy =            554.8988709874745382
    One-Electron Energy =               -1779.0841326242548348
    Two-Electron Energy =                 727.4012867415151504
    Total Energy =                       -496.7839748952651462
  Basis Set: (AUG-CC-PVTZ AUX)
    Blend: AUG-CC-PVTZ-RI
    Molecular point group: c1

    Geometry (in Angstrom), charge = 0, multiplicity = 1:

       Center              X                  Y                   Z               Mass
    ------------   -----------------  -----------------  -----------------  -----------------
         O           -0.923589603269    -0.123434464319    -0.727360895560    15.994914619570
         O           -0.434015603269     1.968445535681     0.085568104440    15.994914619570
         O           -1.946592603269    -0.108400464319     1.326758104440    15.994914619570
         C            1.904481396731    -0.582912464319    -0.035700895560    12.000000000000
         C            1.342795396731     0.593499535681    -0.851371895560    12.000000000000
         C            1.809166396731    -0.301016464319     1.463236104440    12.000000000000
         C            3.343979396731    -0.865938464319    -0.458809895560    12.000000000000
         C            0.133693096731     0.895718135681    -0.481322195560    12.000000000000
         C           -1.978577603269    -0.383874464319     0.149044104440    12.000000000000
         C           -3.080622603269    -1.090063464319    -0.584097895560    12.000000000000
         H            1.293139396731    -1.464219464319    -0.265158895560     1.007825032230
         H            1.958642396731     1.487741535681    -0.712441895560     1.007825032230
         H            1.332816396731     0.338424535681    -1.917767895560     1.007825032230
         H            2.367880396731     0.606271535681     1.718672104440     1.007825032230
         H            2.233029396731    -1.131205464319     2.036623104440     1.007825032230
         H            0.772878396731    -0.162893464319     1.786577104440     1.007825032230
         H            3.984728396731    -0.004885464319    -0.240168895560     1.007825032230
         H            3.743644396731    -1.728407464319     0.083218104440     1.007825032230
         H            3.411910396731    -1.077335464319    -1.530771895560     1.007825032230
         H           -3.503033603269    -0.417463464319    -1.335005895560     1.007825032230
         H           -3.850643603269    -1.391569464319     0.124906104440     1.007825032230
         H           -2.680198603269    -1.962290464319    -1.105752895560     1.007825032230

  Basis Set: AUG-CC-PVTZ
    Blend: AUG-CC-PVTZ
  Basis Set: (AUG-CC-PVTZ AUX)
    Blend: AUG-CC-PVTZ-JKFIT
	 Reference Energy          =    -496.7839748952652030 [Eh]
	 Singles Energy            =      -0.0000000000000000 [Eh]
	 Same-Spin Energy          =      -0.5020740498983888 [Eh]
	 Opposite-Spin Energy      =      -1.6113455852129213 [Eh]
	 Correlation Energy        =      -2.1134196351113101 [Eh]
	 Total Energy              =    -498.8973945303765163 [Eh]

	 ================> DF-SCS-MP2 Energies <==================
	-----------------------------------------------------------
	 SCS Same-Spin Scale       =       0.3333333333333333 [-]
	 SCS Opposite-Spin Scale   =       1.2000000000000000 [-]
	 SCS Same-Spin Energy      =      -0.1673580166327963 [Eh]
	 SCS Opposite-Spin Energy  =      -1.9336147022555055 [Eh]
	 SCS Correlation Energy    =      -2.1009727188883018 [Eh]
	 SCS Total Energy          =    -498.8849476141535320 [Eh]
	-----------------------------------------------------------

  Dipole Moment: [D]
     X:     2.1141      Y:    -2.7183      Z:    -2.7581     Total:     4.4120

*** Psi4 exiting successfully. Buy a developer a beer!
