                               Psi4 1.4a3.dev225

  ==> Input File <==

--------------------------------------------------------------------------
#psi4
#
memory 32 gb

molecule  {
0 1
  O       -0.9795470    -0.0831330    -0.7231310
  O       -0.4899730     2.0087470     0.0897980
  O       -2.0025500    -0.0680990     1.3309880
  C        1.8485240    -0.5426110    -0.0314710
  C        1.2868380     0.6338010    -0.8471420
  C        1.7532090    -0.2607150     1.4674660
  C        3.2880220    -0.8256370    -0.4545800
  C       -0.1082690     0.9825120    -0.4201650
  C       -2.0345350    -0.3435730     0.1532740
  C       -3.1365800    -1.0497620    -0.5798680
  H        1.1814461    -1.5042665    -0.2818486
  H        1.9026850     1.5280430    -0.7082120
  H        1.2768590     0.3787260    -1.9135380
  H        2.3119230     0.6465730     1.7229020
  H        2.1770720    -1.0909040     2.0408530
  H        0.7169210    -0.1225920     1.7908070
  H        3.9287710     0.0354160    -0.2359390
  H        3.6876870    -1.6881060     0.0874480
  H        3.3559530    -1.0370340    -1.5265420
  H       -3.5589910    -0.3771620    -1.3307760
  H       -3.9066010    -1.3512680     0.1291360
  H       -2.7361560    -1.9219890    -1.1015230
units angstrom
no_reorient  #important for SAPT in psi4, default
symmetry c1  #important for SAPT in psi4, default
}

set PROPERTIES_ORIGIN ["COM"]
properties('MP2/aug-cc-pvtz', properties = ['dipole'])
--------------------------------------------------------------------------

    Molecular point group: c1
  Charge       = 0
  Multiplicity = 1
  Basis Set: AUG-CC-PVTZ
    Blend: AUG-CC-PVTZ
  Basis Set: (AUG-CC-PVTZ AUX)
    Blend: AUG-CC-PVTZ-JKFIT

    Orbital Energies [Eh]
    ---------------------

    Doubly Occupied:

       1A    -20.626260     2A    -20.564850     3A    -20.564504
       4A    -11.403811     5A    -11.398762     6A    -11.257766
       7A    -11.254649     8A    -11.251797     9A    -11.225682
      10A    -11.216697    11A     -1.485261    12A     -1.405140
      13A     -1.363331    14A     -1.111588    15A     -1.042510
      16A     -0.991384    17A     -0.939539    18A     -0.868093
      19A     -0.784901    20A     -0.738791    21A     -0.701327
      22A     -0.697803    23A     -0.682514    24A     -0.644844
      25A     -0.629296    26A     -0.621203    27A     -0.594363
      28A     -0.589811    29A     -0.570097    30A     -0.555910
      31A     -0.551994    32A     -0.540409    33A     -0.527413
      34A     -0.496794    35A     -0.486280    36A     -0.477297
      37A     -0.474148    38A     -0.462662    39A     -0.439810

  @DF-RHF Final Energy:  -496.85744067976867

   => Energetics <=

    Nuclear Repulsion Energy =            555.2132740167803604
    One-Electron Energy =               -1779.6628477731537714
    Two-Electron Energy =                 727.5921330766047959
    Total Energy =                       -496.8574406797686152
  Basis Set: (AUG-CC-PVTZ AUX)
    Blend: AUG-CC-PVTZ-RI
    Molecular point group: c1

    Geometry (in Angstrom), charge = 0, multiplicity = 1:

       Center              X                  Y                   Z               Mass
    ------------   -----------------  -----------------  -----------------  -----------------
         O           -0.907707801721    -0.126744681269    -0.731955915918    15.994914619570
         O           -0.418133801721     1.965135318731     0.080973084082    15.994914619570
         O           -1.930710801721    -0.111710681269     1.322163084082    15.994914619570
         C            1.920363198279    -0.586222681269    -0.040295915918    12.000000000000
         C            1.358677198279     0.590189318731    -0.855966915918    12.000000000000
         C            1.825048198279    -0.304326681269     1.458641084082    12.000000000000
         C            3.359861198279    -0.869248681269    -0.463404915918    12.000000000000
         C           -0.036429801721     0.938900318731    -0.428989915918    12.000000000000
         C           -1.962695801721    -0.387184681269     0.144449084082    12.000000000000
         C           -3.064740801721    -1.093373681269    -0.588692915918    12.000000000000
         H            1.253285298279    -1.547878181269    -0.290673515918     1.007825032230
         H            1.974524198279     1.484431318731    -0.717036915918     1.007825032230
         H            1.348698198279     0.335114318731    -1.922362915918     1.007825032230
         H            2.383762198279     0.602961318731     1.714077084082     1.007825032230
         H            2.248911198279    -1.134515681269     2.032028084082     1.007825032230
         H            0.788760198279    -0.166203681269     1.781982084082     1.007825032230
         H            4.000610198279    -0.008195681269    -0.244763915918     1.007825032230
         H            3.759526198279    -1.731717681269     0.078623084082     1.007825032230
         H            3.427792198279    -1.080645681269    -1.535366915918     1.007825032230
         H           -3.487151801721    -0.420773681269    -1.339600915918     1.007825032230
         H           -3.834761801721    -1.394879681269     0.120311084082     1.007825032230
         H           -2.664316801721    -1.965600681269    -1.110347915918     1.007825032230

  Basis Set: AUG-CC-PVTZ
    Blend: AUG-CC-PVTZ
  Basis Set: (AUG-CC-PVTZ AUX)
    Blend: AUG-CC-PVTZ-JKFIT
	 Reference Energy          =    -496.8574406797686720 [Eh]
	 Singles Energy            =      -0.0000000000000000 [Eh]
	 Same-Spin Energy          =      -0.4947200631970327 [Eh]
	 Opposite-Spin Energy      =      -1.5986469152732199 [Eh]
	 Correlation Energy        =      -2.0933669784702524 [Eh]
	 Total Energy              =    -498.9508076582389435 [Eh]

	 ================> DF-SCS-MP2 Energies <==================
	-----------------------------------------------------------
	 SCS Same-Spin Scale       =       0.3333333333333333 [-]
	 SCS Opposite-Spin Scale   =       1.2000000000000000 [-]
	 SCS Same-Spin Energy      =      -0.1649066877323442 [Eh]
	 SCS Opposite-Spin Energy  =      -1.9183762983278638 [Eh]
	 SCS Correlation Energy    =      -2.0832829860602082 [Eh]
	 SCS Total Energy          =    -498.9407236658288980 [Eh]
	-----------------------------------------------------------

  Dipole Moment: [D]
     X:     0.8258      Y:    -2.4402      Z:    -2.5269     Total:     3.6085

*** Psi4 exiting successfully. Buy a developer a beer!
