                               Psi4 1.4a3.dev225

  ==> Input File <==

--------------------------------------------------------------------------
#psi4
#
memory 32 gb

molecule  {
0 1
  O       -0.9795470    -0.0831330    -0.7231310
  O       -0.4899730     2.0087470     0.0897980
  O       -2.0025500    -0.0680990     1.3309880
  C        1.8485240    -0.5426110    -0.0314710
  C        1.2868380     0.6338010    -0.8471420
  C        1.7532090    -0.2607150     1.4674660
  C        3.2880220    -0.8256370    -0.4545800
  C       -0.1082690     0.9825120    -0.4201650
  C       -2.0345350    -0.3435730     0.1532740
  C       -3.1365800    -1.0497620    -0.5798680
  H        1.2371820    -1.4239180    -0.2609290
  H        1.9026850     1.5280430    -0.7082120
  H        1.2768590     0.3787260    -1.9135380
  H        2.3119230     0.6465730     1.7229020
  H        2.1770720    -1.0909040     2.0408530
  H        0.7169210    -0.1225920     1.7908070
  H        3.9287710     0.0354160    -0.2359390
  H        3.7065939    -1.7360289    -0.0148489
  H        3.3559530    -1.0370340    -1.5265420
  H       -3.5589910    -0.3771620    -1.3307760
  H       -3.9066010    -1.3512680     0.1291360
  H       -2.7361560    -1.9219890    -1.1015230
units angstrom
no_reorient  #important for SAPT in psi4, default
symmetry c1  #important for SAPT in psi4, default
}

set PROPERTIES_ORIGIN ["COM"]
properties('MP2/aug-cc-pvtz', properties = ['dipole'])
--------------------------------------------------------------------------

    Molecular point group: c1
  Charge       = 0
  Multiplicity = 1
  Basis Set: AUG-CC-PVTZ
    Blend: AUG-CC-PVTZ
  Basis Set: (AUG-CC-PVTZ AUX)
    Blend: AUG-CC-PVTZ-JKFIT

    Orbital Energies [Eh]
    ---------------------

    Doubly Occupied:

       1A    -20.626796     2A    -20.564838     3A    -20.564831
       4A    -11.404141     5A    -11.398775     6A    -11.254945
       7A    -11.250967     8A    -11.246388     9A    -11.224483
      10A    -11.215320    11A     -1.485634    12A     -1.405272
      13A     -1.363607    14A     -1.113520    15A     -1.042883
      16A     -0.990925    17A     -0.939216    18A     -0.868304
      19A     -0.795190    20A     -0.739518    21A     -0.702251
      22A     -0.698623    23A     -0.682995    24A     -0.650098
      25A     -0.629423    26A     -0.619431    27A     -0.592305
      28A     -0.589775    29A     -0.571898    30A     -0.556417
      31A     -0.550563    32A     -0.538960    33A     -0.527266
      34A     -0.496704    35A     -0.487062    36A     -0.478605
      37A     -0.473754    38A     -0.470712    39A     -0.440316

  @DF-RHF Final Energy:  -496.86276620496852

   => Energetics <=

    Nuclear Repulsion Energy =            555.5447807122519635
    One-Electron Energy =               -1780.3096656164887008
    Two-Electron Energy =                 727.9021186992681578
    Total Energy =                       -496.8627662049684659
  Basis Set: (AUG-CC-PVTZ AUX)
    Blend: AUG-CC-PVTZ-RI
    Molecular point group: c1

    Geometry (in Angstrom), charge = 0, multiplicity = 1:

       Center              X                  Y                   Z               Mass
    ------------   -----------------  -----------------  -----------------  -----------------
         O           -0.908229925473    -0.126971497197    -0.731386684576    15.994914619570
         O           -0.418655925473     1.964908502803     0.081542315424    15.994914619570
         O           -1.931232925473    -0.111937497197     1.322732315424    15.994914619570
         C            1.919841074527    -0.586449497197    -0.039726684576    12.000000000000
         C            1.358155074527     0.589962502803    -0.855397684576    12.000000000000
         C            1.824526074527    -0.304553497197     1.459210315424    12.000000000000
         C            3.359339074527    -0.869475497197    -0.462835684576    12.000000000000
         C           -0.036951925473     0.938673502803    -0.428420684576    12.000000000000
         C           -1.963217925473    -0.387411497197     0.145018315424    12.000000000000
         C           -3.065262925473    -1.093600497197    -0.588123684576    12.000000000000
         H            1.308499074527    -1.467756497197    -0.269184684576     1.007825032230
         H            1.974002074527     1.484204502803    -0.716467684576     1.007825032230
         H            1.348176074527     0.334887502803    -1.921793684576     1.007825032230
         H            2.383240074527     0.602734502803     1.714646315424     1.007825032230
         H            2.248389074527    -1.134742497197     2.032597315424     1.007825032230
         H            0.788238074527    -0.166430497197     1.782551315424     1.007825032230
         H            4.000088074527    -0.008422497197    -0.244194684576     1.007825032230
         H            3.777910974527    -1.779867397197    -0.023104584576     1.007825032230
         H            3.427270074527    -1.080872497197    -1.534797684576     1.007825032230
         H           -3.487673925473    -0.421000497197    -1.339031684576     1.007825032230
         H           -3.835283925473    -1.395106497197     0.120880315424     1.007825032230
         H           -2.664838925473    -1.965827497197    -1.109778684576     1.007825032230

  Basis Set: AUG-CC-PVTZ
    Blend: AUG-CC-PVTZ
  Basis Set: (AUG-CC-PVTZ AUX)
    Blend: AUG-CC-PVTZ-JKFIT
	 Reference Energy          =    -496.8627662049685227 [Eh]
	 Singles Energy            =      -0.0000000000000000 [Eh]
	 Same-Spin Energy          =      -0.4946191062999728 [Eh]
	 Opposite-Spin Energy      =      -1.5978191649842446 [Eh]
	 Correlation Energy        =      -2.0924382712842173 [Eh]
	 Total Energy              =    -498.9552044762527316 [Eh]

	 ================> DF-SCS-MP2 Energies <==================
	-----------------------------------------------------------
	 SCS Same-Spin Scale       =       0.3333333333333333 [-]
	 SCS Opposite-Spin Scale   =       1.2000000000000000 [-]
	 SCS Same-Spin Energy      =      -0.1648730354333243 [Eh]
	 SCS Opposite-Spin Energy  =      -1.9173829979810935 [Eh]
	 SCS Correlation Energy    =      -2.0822560334144176 [Eh]
	 SCS Total Energy          =    -498.9450222383829328 [Eh]
	-----------------------------------------------------------

  Dipole Moment: [D]
     X:     0.7827      Y:    -2.5190      Z:    -2.5675     Total:     3.6810

*** Psi4 exiting successfully. Buy a developer a beer!
