                               Psi4 1.4a3.dev225

  ==> Input File <==

--------------------------------------------------------------------------
#psi4
#
memory 32 gb

molecule  {
0 1
  O       -0.9795470    -0.0831330    -0.7231310
  O       -0.4899730     2.0087470     0.0897980
  O       -2.0025500    -0.0680990     1.3309880
  C        1.8485240    -0.5426110    -0.0314710
  C        1.2868380     0.6338010    -0.8471420
  C        1.7532090    -0.2607150     1.4674660
  C        3.2880220    -0.8256370    -0.4545800
  C       -0.1082690     0.9825120    -0.4201650
  C       -2.0345350    -0.3435730     0.1532740
  C       -3.2834964    -1.1439058    -0.6776050
  H        1.2371820    -1.4239180    -0.2609290
  H        1.9026850     1.5280430    -0.7082120
  H        1.2768590     0.3787260    -1.9135380
  H        2.3119230     0.6465730     1.7229020
  H        2.1770720    -1.0909040     2.0408530
  H        0.7169210    -0.1225920     1.7908070
  H        3.9287710     0.0354160    -0.2359390
  H        3.6876870    -1.6881060     0.0874480
  H        3.3559530    -1.0370340    -1.5265420
  H       -3.5589910    -0.3771620    -1.3307760
  H       -3.9066010    -1.3512680     0.1291360
  H       -2.7361560    -1.9219890    -1.1015230
units angstrom
no_reorient  #important for SAPT in psi4, default
symmetry c1  #important for SAPT in psi4, default
}

set PROPERTIES_ORIGIN ["COM"]
properties('MP2/aug-cc-pvtz', properties = ['dipole'])
--------------------------------------------------------------------------

    Molecular point group: c1
  Charge       = 0
  Multiplicity = 1
  Basis Set: AUG-CC-PVTZ
    Blend: AUG-CC-PVTZ
  Basis Set: (AUG-CC-PVTZ AUX)
    Blend: AUG-CC-PVTZ-JKFIT

    Orbital Energies [Eh]
    ---------------------

    Doubly Occupied:

       1A    -20.627558     2A    -20.566015     3A    -20.564603
       4A    -11.406302     5A    -11.398520     6A    -11.258047
       7A    -11.250745     8A    -11.245802     9A    -11.224690
      10A    -11.215610    11A     -1.483518    12A     -1.403607
      13A     -1.362611    14A     -1.113215    15A     -1.023416
      16A     -0.990674    17A     -0.938714    18A     -0.870866
      19A     -0.794498    20A     -0.737274    21A     -0.697809
      22A     -0.690326    23A     -0.677093    24A     -0.648447
      25A     -0.635143    26A     -0.621039    27A     -0.609954
      28A     -0.592070    29A     -0.570438    30A     -0.559044
      31A     -0.551766    32A     -0.539578    33A     -0.531298
      34A     -0.495559    35A     -0.488009    36A     -0.478784
      37A     -0.472117    38A     -0.466052    39A     -0.424369

  @DF-RHF Final Energy:  -496.83586976201531

   => Energetics <=

    Nuclear Repulsion Energy =            552.0154148641083793
    One-Electron Energy =               -1773.2522073982504480
    Two-Electron Energy =                 724.4009227721267052
    Total Energy =                       -496.8358697620153634
  Basis Set: (AUG-CC-PVTZ AUX)
    Blend: AUG-CC-PVTZ-RI
    Molecular point group: c1

    Geometry (in Angstrom), charge = 0, multiplicity = 1:

       Center              X                  Y                   Z               Mass
    ------------   -----------------  -----------------  -----------------  -----------------
         O           -0.895861321809    -0.119465681832    -0.723961943532    15.994914619570
         O           -0.406287321809     1.972414318168     0.088967056468    15.994914619570
         O           -1.918864321809    -0.104431681832     1.330157056468    15.994914619570
         C            1.932209678191    -0.578943681832    -0.032301943532    12.000000000000
         C            1.370523678191     0.597468318168    -0.847972943532    12.000000000000
         C            1.836894678191    -0.297047681832     1.466635056468    12.000000000000
         C            3.371707678191    -0.861969681832    -0.455410943532    12.000000000000
         C           -0.024583321809     0.946179318168    -0.420995943532    12.000000000000
         C           -1.950849321809    -0.379905681832     0.152443056468    12.000000000000
         C           -3.199810721809    -1.180238481832    -0.678435943532    12.000000000000
         H            1.320867678191    -1.460250681832    -0.261759943532     1.007825032230
         H            1.986370678191     1.491710318168    -0.709042943532     1.007825032230
         H            1.360544678191     0.342393318168    -1.914368943532     1.007825032230
         H            2.395608678191     0.610240318168     1.722071056468     1.007825032230
         H            2.260757678191    -1.127236681832     2.040022056468     1.007825032230
         H            0.800606678191    -0.158924681832     1.789976056468     1.007825032230
         H            4.012456678191    -0.000916681832    -0.236769943532     1.007825032230
         H            3.771372678191    -1.724438681832     0.086617056468     1.007825032230
         H            3.439638678191    -1.073366681832    -1.527372943532     1.007825032230
         H           -3.475305321809    -0.413494681832    -1.331606943532     1.007825032230
         H           -3.822915321809    -1.387600681832     0.128305056468     1.007825032230
         H           -2.652470321809    -1.958321681832    -1.102353943532     1.007825032230

  Basis Set: AUG-CC-PVTZ
    Blend: AUG-CC-PVTZ
  Basis Set: (AUG-CC-PVTZ AUX)
    Blend: AUG-CC-PVTZ-JKFIT
	 Reference Energy          =    -496.8358697620153066 [Eh]
	 Singles Energy            =      -0.0000000000000000 [Eh]
	 Same-Spin Energy          =      -0.4947061615512693 [Eh]
	 Opposite-Spin Energy      =      -1.5994775127060619 [Eh]
	 Correlation Energy        =      -2.0941836742573310 [Eh]
	 Total Energy              =    -498.9300534362726580 [Eh]

	 ================> DF-SCS-MP2 Energies <==================
	-----------------------------------------------------------
	 SCS Same-Spin Scale       =       0.3333333333333333 [-]
	 SCS Opposite-Spin Scale   =       1.2000000000000000 [-]
	 SCS Same-Spin Energy      =      -0.1649020538504231 [Eh]
	 SCS Opposite-Spin Energy  =      -1.9193730152472741 [Eh]
	 SCS Correlation Energy    =      -2.0842750690976972 [Eh]
	 SCS Total Energy          =    -498.9201448311130207 [Eh]
	-----------------------------------------------------------

  Dipole Moment: [D]
     X:     0.9934      Y:    -2.3694      Z:    -2.3972     Total:     3.5139

*** Psi4 exiting successfully. Buy a developer a beer!
