                               Psi4 1.4a3.dev225

  ==> Input File <==

--------------------------------------------------------------------------
#psi4
#
memory 32 gb

molecule  {
0 1
  O       -0.9795470    -0.0831330    -0.7231310
  O       -0.4899730     2.0087470     0.0897980
  O       -2.0025500    -0.0680990     1.3309880
  C        1.8485240    -0.5426110    -0.0314710
  C        1.2868380     0.6338010    -0.8471420
  C        1.7532090    -0.2607150     1.4674660
  C        3.2880220    -0.8256370    -0.4545800
  C       -0.1082690     0.9825120    -0.4201650
  C       -2.0345350    -0.3435730     0.1532740
  C       -3.1365800    -1.0497620    -0.5798680
  H        1.2371820    -1.4239180    -0.2609290
  H        1.9026850     1.5280430    -0.7082120
  H        1.2768590     0.3787260    -1.9135380
  H        2.3119230     0.6465730     1.7229020
  H        2.1770720    -1.0909040     2.0408530
  H        0.7169210    -0.1225920     1.7908070
  H        3.9287710     0.0354160    -0.2359390
  H        3.6726349    -1.6508710     0.1524134
  H        3.3559530    -1.0370340    -1.5265420
  H       -3.5589910    -0.3771620    -1.3307760
  H       -3.9066010    -1.3512680     0.1291360
  H       -2.7361560    -1.9219890    -1.1015230
units angstrom
no_reorient  #important for SAPT in psi4, default
symmetry c1  #important for SAPT in psi4, default
}

set PROPERTIES_ORIGIN ["COM"]
properties('MP2/aug-cc-pvtz', properties = ['dipole'])
--------------------------------------------------------------------------

    Molecular point group: c1
  Charge       = 0
  Multiplicity = 1
  Basis Set: AUG-CC-PVTZ
    Blend: AUG-CC-PVTZ
  Basis Set: (AUG-CC-PVTZ AUX)
    Blend: AUG-CC-PVTZ-JKFIT

    Orbital Energies [Eh]
    ---------------------

    Doubly Occupied:

       1A    -20.626602     2A    -20.564744     3A    -20.564439
       4A    -11.404033     5A    -11.398336     6A    -11.254866
       7A    -11.250374     8A    -11.245370     9A    -11.224750
      10A    -11.215772    11A     -1.485432    12A     -1.405055
      13A     -1.363403    14A     -1.113783    15A     -1.042909
      16A     -0.991435    17A     -0.938432    18A     -0.868108
      19A     -0.794375    20A     -0.739358    21A     -0.701999
      22A     -0.698243    23A     -0.682710    24A     -0.647758
      25A     -0.629134    26A     -0.622181    27A     -0.596017
      28A     -0.590031    29A     -0.569565    30A     -0.555156
      31A     -0.552682    32A     -0.538608    33A     -0.527374
      34A     -0.495200    35A     -0.487203    36A     -0.480247
      37A     -0.473875    38A     -0.471222    39A     -0.438964

  @DF-RHF Final Energy:  -496.86335918569443

   => Energetics <=

    Nuclear Repulsion Energy =            555.7230512049876552
    One-Electron Energy =               -1780.6733298839517374
    Two-Electron Energy =                 728.0869194932695336
    Total Energy =                       -496.8633591856944349
  Basis Set: (AUG-CC-PVTZ AUX)
    Blend: AUG-CC-PVTZ-RI
    Molecular point group: c1

    Geometry (in Angstrom), charge = 0, multiplicity = 1:

       Center              X                  Y                   Z               Mass
    ------------   -----------------  -----------------  -----------------  -----------------
         O           -0.907992383466    -0.127567173702    -0.732556678462    15.994914619570
         O           -0.418418383466     1.964312826298     0.080372321538    15.994914619570
         O           -1.930995383466    -0.112533173702     1.321562321538    15.994914619570
         C            1.920078616534    -0.587045173702    -0.040896678462    12.000000000000
         C            1.358392616534     0.589366826298    -0.856567678462    12.000000000000
         C            1.824763616534    -0.305149173702     1.458040321538    12.000000000000
         C            3.359576616534    -0.870071173702    -0.464005678462    12.000000000000
         C           -0.036714383466     0.938077826298    -0.429590678462    12.000000000000
         C           -1.962980383466    -0.388007173702     0.143848321538    12.000000000000
         C           -3.065025383466    -1.094196173702    -0.589293678462    12.000000000000
         H            1.308736616534    -1.468352173702    -0.270354678462     1.007825032230
         H            1.974239616534     1.483608826298    -0.717637678462     1.007825032230
         H            1.348413616534     0.334291826298    -1.922963678462     1.007825032230
         H            2.383477616534     0.602138826298     1.713476321538     1.007825032230
         H            2.248626616534    -1.135338173702     2.031427321538     1.007825032230
         H            0.788475616534    -0.167026173702     1.781381321538     1.007825032230
         H            4.000325616534    -0.009018173702    -0.245364678462     1.007825032230
         H            3.744189516534    -1.695305173702     0.142987721538     1.007825032230
         H            3.427507616534    -1.081468173702    -1.535967678462     1.007825032230
         H           -3.487436383466    -0.421596173702    -1.340201678462     1.007825032230
         H           -3.835046383466    -1.395702173702     0.119710321538     1.007825032230
         H           -2.664601383466    -1.966423173702    -1.110948678462     1.007825032230

  Basis Set: AUG-CC-PVTZ
    Blend: AUG-CC-PVTZ
  Basis Set: (AUG-CC-PVTZ AUX)
    Blend: AUG-CC-PVTZ-JKFIT
	 Reference Energy          =    -496.8633591856944349 [Eh]
	 Singles Energy            =      -0.0000000000000000 [Eh]
	 Same-Spin Energy          =      -0.4946791237200936 [Eh]
	 Opposite-Spin Energy      =      -1.5979136198228505 [Eh]
	 Correlation Energy        =      -2.0925927435429443 [Eh]
	 Total Energy              =    -498.9559519292373579 [Eh]

	 ================> DF-SCS-MP2 Energies <==================
	-----------------------------------------------------------
	 SCS Same-Spin Scale       =       0.3333333333333333 [-]
	 SCS Opposite-Spin Scale   =       1.2000000000000000 [-]
	 SCS Same-Spin Energy      =      -0.1648930412400312 [Eh]
	 SCS Opposite-Spin Energy  =      -1.9174963437874206 [Eh]
	 SCS Correlation Energy    =      -2.0823893850274517 [Eh]
	 SCS Total Energy          =    -498.9457485707218893 [Eh]
	-----------------------------------------------------------

  Dipole Moment: [D]
     X:     0.7881      Y:    -2.4809      Z:    -2.5267     Total:     3.6277

*** Psi4 exiting successfully. Buy a developer a beer!
