                               Psi4 1.4a3.dev225

  ==> Input File <==

--------------------------------------------------------------------------
#psi4
#
memory 32 gb

molecule  {
0 1
  O       -0.9795470    -0.0831330    -0.7231310
  O       -0.4899730     2.0087470     0.0897980
  O       -2.0025500    -0.0680990     1.3309880
  C        1.8485240    -0.5426110    -0.0314710
  C        1.2868380     0.6338010    -0.8471420
  C        1.7407348    -0.2238222     1.6636376
  C        3.2880220    -0.8256370    -0.4545800
  C       -0.1082690     0.9825120    -0.4201650
  C       -2.0345350    -0.3435730     0.1532740
  C       -3.1365800    -1.0497620    -0.5798680
  H        1.2371820    -1.4239180    -0.2609290
  H        1.9026850     1.5280430    -0.7082120
  H        1.2768590     0.3787260    -1.9135380
  H        2.3119230     0.6465730     1.7229020
  H        2.1770720    -1.0909040     2.0408530
  H        0.7169210    -0.1225920     1.7908070
  H        3.9287710     0.0354160    -0.2359390
  H        3.6876870    -1.6881060     0.0874480
  H        3.3559530    -1.0370340    -1.5265420
  H       -3.5589910    -0.3771620    -1.3307760
  H       -3.9066010    -1.3512680     0.1291360
  H       -2.7361560    -1.9219890    -1.1015230
units angstrom
no_reorient  #important for SAPT in psi4, default
symmetry c1  #important for SAPT in psi4, default
}

set PROPERTIES_ORIGIN ["COM"]
properties('MP2/aug-cc-pvtz', properties = ['dipole'])
--------------------------------------------------------------------------

    Molecular point group: c1
  Charge       = 0
  Multiplicity = 1
  Basis Set: AUG-CC-PVTZ
    Blend: AUG-CC-PVTZ
  Basis Set: (AUG-CC-PVTZ AUX)
    Blend: AUG-CC-PVTZ-JKFIT

    Orbital Energies [Eh]
    ---------------------

    Doubly Occupied:

       1A    -20.626823     2A    -20.565207     3A    -20.564812
       4A    -11.404408     5A    -11.398421     6A    -11.255055
       7A    -11.251894     8A    -11.250541     9A    -11.224909
      10A    -11.213463    11A     -1.485716    12A     -1.405467
      13A     -1.363747    14A     -1.099641    15A     -1.041396
      16A     -0.986900    17A     -0.941471    18A     -0.868560
      19A     -0.794269    20A     -0.739428    21A     -0.701836
      22A     -0.698054    23A     -0.682210    24A     -0.643271
      25A     -0.628706    26A     -0.619359    27A     -0.595708
      28A     -0.590921    29A     -0.576768    30A     -0.567290
      31A     -0.552630    32A     -0.551961    33A     -0.530360
      34A     -0.507624    35A     -0.491348    36A     -0.477710
      37A     -0.474446    38A     -0.442239    39A     -0.421300

  @DF-RHF Final Energy:  -496.83768982783602

   => Energetics <=

    Nuclear Repulsion Energy =            552.6655236878224287
    One-Electron Energy =               -1774.5346898731559122
    Two-Electron Energy =                 725.0314763574975814
    Total Energy =                       -496.8376898278360159
  Basis Set: (AUG-CC-PVTZ AUX)
    Blend: AUG-CC-PVTZ-RI
    Molecular point group: c1

    Geometry (in Angstrom), charge = 0, multiplicity = 1:

       Center              X                  Y                   Z               Mass
    ------------   -----------------  -----------------  -----------------  -----------------
         O           -0.907058723120    -0.130379438053    -0.748440957882    15.994914619570
         O           -0.417484723120     1.961500561947     0.064488042118    15.994914619570
         O           -1.930061723120    -0.115345438053     1.305678042118    15.994914619570
         C            1.921012276880    -0.589857438053    -0.056780957882    12.000000000000
         C            1.359326276880     0.586554561947    -0.872451957882    12.000000000000
         C            1.813223076880    -0.271068638053     1.638327642118    12.000000000000
         C            3.360510276880    -0.872883438053    -0.479889957882    12.000000000000
         C           -0.035780723120     0.935265561947    -0.445474957882    12.000000000000
         C           -1.962046723120    -0.390819438053     0.127964042118    12.000000000000
         C           -3.064091723120    -1.097008438053    -0.605177957882    12.000000000000
         H            1.309670276880    -1.471164438053    -0.286238957882     1.007825032230
         H            1.975173276880     1.480796561947    -0.733521957882     1.007825032230
         H            1.349347276880     0.331479561947    -1.938847957882     1.007825032230
         H            2.384411276880     0.599326561947     1.697592042118     1.007825032230
         H            2.249560276880    -1.138150438053     2.015543042118     1.007825032230
         H            0.789409276880    -0.169838438053     1.765497042118     1.007825032230
         H            4.001259276880    -0.011830438053    -0.261248957882     1.007825032230
         H            3.760175276880    -1.735352438053     0.062138042118     1.007825032230
         H            3.428441276880    -1.084280438053    -1.551851957882     1.007825032230
         H           -3.486502723120    -0.424408438053    -1.356085957882     1.007825032230
         H           -3.834112723120    -1.398514438053     0.103826042118     1.007825032230
         H           -2.663667723120    -1.969235438053    -1.126832957882     1.007825032230

  Basis Set: AUG-CC-PVTZ
    Blend: AUG-CC-PVTZ
  Basis Set: (AUG-CC-PVTZ AUX)
    Blend: AUG-CC-PVTZ-JKFIT
	 Reference Energy          =    -496.8376898278360159 [Eh]
	 Singles Energy            =      -0.0000000000000000 [Eh]
	 Same-Spin Energy          =      -0.4943736773371945 [Eh]
	 Opposite-Spin Energy      =      -1.5989095617636622 [Eh]
	 Correlation Energy        =      -2.0932832391008569 [Eh]
	 Total Energy              =    -498.9309730669368719 [Eh]

	 ================> DF-SCS-MP2 Energies <==================
	-----------------------------------------------------------
	 SCS Same-Spin Scale       =       0.3333333333333333 [-]
	 SCS Opposite-Spin Scale   =       1.2000000000000000 [-]
	 SCS Same-Spin Energy      =      -0.1647912257790648 [Eh]
	 SCS Opposite-Spin Energy  =      -1.9186914741163945 [Eh]
	 SCS Correlation Energy    =      -2.0834826998954594 [Eh]
	 SCS Total Energy          =    -498.9211725277314713 [Eh]
	-----------------------------------------------------------

  Dipole Moment: [D]
     X:     0.8048      Y:    -2.5046      Z:    -2.6347     Total:     3.7232

*** Psi4 exiting successfully. Buy a developer a beer!
