                               Psi4 1.4a3.dev225

  ==> Input File <==

--------------------------------------------------------------------------
#psi4
#
memory 32 gb

molecule  {
0 1
  O       -0.9795470    -0.0831330    -0.7231310
  O       -0.4899730     2.0087470     0.0897980
  O       -2.0025500    -0.0680990     1.3309880
  C        1.8485240    -0.5426110    -0.0314710
  C        1.2868380     0.6338010    -0.8471420
  C        1.7532090    -0.2607150     1.4674660
  C        3.2880220    -0.8256370    -0.4545800
  C       -0.1082690     0.9825120    -0.4201650
  C       -2.0345350    -0.3435730     0.1532740
  C       -3.1365800    -1.0497620    -0.5798680
  H        1.2371820    -1.4239180    -0.2609290
  H        1.9026850     1.5280430    -0.7082120
  H        1.2768590     0.3787260    -1.9135380
  H        2.3119230     0.6465730     1.7229020
  H        2.1770720    -1.0909040     2.0408530
  H        0.7169210    -0.1225920     1.7908070
  H        3.8702734    -0.0431944    -0.2559000
  H        3.6876870    -1.6881060     0.0874480
  H        3.3559530    -1.0370340    -1.5265420
  H       -3.5589910    -0.3771620    -1.3307760
  H       -3.9066010    -1.3512680     0.1291360
  H       -2.7361560    -1.9219890    -1.1015230
units angstrom
no_reorient  #important for SAPT in psi4, default
symmetry c1  #important for SAPT in psi4, default
}

set PROPERTIES_ORIGIN ["COM"]
properties('MP2/aug-cc-pvtz', properties = ['dipole'])
--------------------------------------------------------------------------

    Molecular point group: c1
  Charge       = 0
  Multiplicity = 1
  Basis Set: AUG-CC-PVTZ
    Blend: AUG-CC-PVTZ
  Basis Set: (AUG-CC-PVTZ AUX)
    Blend: AUG-CC-PVTZ-JKFIT

    Orbital Energies [Eh]
    ---------------------

    Doubly Occupied:

       1A    -20.626522     2A    -20.564639     3A    -20.564476
       4A    -11.403940     5A    -11.398422     6A    -11.254769
       7A    -11.250523     8A    -11.244663     9A    -11.215443
      10A    -11.211987    11A     -1.485359    12A     -1.405021
      13A     -1.363345    14A     -1.114530    15A     -1.043110
      16A     -0.993459    17A     -0.944104    18A     -0.868828
      19A     -0.798358    20A     -0.739314    21A     -0.701989
      22A     -0.698225    23A     -0.682874    24A     -0.650714
      25A     -0.629211    26A     -0.620595    27A     -0.593941
      28A     -0.590707    29A     -0.571005    30A     -0.564320
      31A     -0.554635    32A     -0.540739    33A     -0.527435
      34A     -0.495155    35A     -0.487529    36A     -0.480409
      37A     -0.473542    38A     -0.471662    39A     -0.439318

  @DF-RHF Final Energy:  -496.85791054275910

   => Energetics <=

    Nuclear Repulsion Energy =            556.1026751009859481
    One-Electron Energy =               -1781.3915318328315607
    Two-Electron Energy =                 728.4309461890863986
    Total Energy =                       -496.8579105427591003
  Basis Set: (AUG-CC-PVTZ AUX)
    Blend: AUG-CC-PVTZ-RI
    Molecular point group: c1

    Geometry (in Angstrom), charge = 0, multiplicity = 1:

       Center              X                  Y                   Z               Mass
    ------------   -----------------  -----------------  -----------------  -----------------
         O           -0.907688483727    -0.126756839217    -0.731962621291    15.994914619570
         O           -0.418114483727     1.965123160783     0.080966378709    15.994914619570
         O           -1.930691483727    -0.111722839217     1.322156378709    15.994914619570
         C            1.920382516273    -0.586234839217    -0.040302621291    12.000000000000
         C            1.358696516273     0.590177160783    -0.855973621291    12.000000000000
         C            1.825067516273    -0.304338839217     1.458634378709    12.000000000000
         C            3.359880516273    -0.869260839217    -0.463411621291    12.000000000000
         C           -0.036410483727     0.938888160783    -0.428996621291    12.000000000000
         C           -1.962676483727    -0.387196839217     0.144442378709    12.000000000000
         C           -3.064721483727    -1.093385839217    -0.588699621291    12.000000000000
         H            1.309040516273    -1.467541839217    -0.269760621291     1.007825032230
         H            1.974543516273     1.484419160783    -0.717043621291     1.007825032230
         H            1.348717516273     0.335102160783    -1.922369621291     1.007825032230
         H            2.383781516273     0.602949160783     1.714070378709     1.007825032230
         H            2.248930516273    -1.134527839217     2.032021378709     1.007825032230
         H            0.788779516273    -0.166215839217     1.781975378709     1.007825032230
         H            3.942131916273    -0.086818239217    -0.264731621291     1.007825032230
         H            3.759545516273    -1.731729839217     0.078616378709     1.007825032230
         H            3.427811516273    -1.080657839217    -1.535373621291     1.007825032230
         H           -3.487132483727    -0.420785839217    -1.339607621291     1.007825032230
         H           -3.834742483727    -1.394891839217     0.120304378709     1.007825032230
         H           -2.664297483727    -1.965612839217    -1.110354621291     1.007825032230

  Basis Set: AUG-CC-PVTZ
    Blend: AUG-CC-PVTZ
  Basis Set: (AUG-CC-PVTZ AUX)
    Blend: AUG-CC-PVTZ-JKFIT
	 Reference Energy          =    -496.8579105427591003 [Eh]
	 Singles Energy            =      -0.0000000000000000 [Eh]
	 Same-Spin Energy          =      -0.4946351535531773 [Eh]
	 Opposite-Spin Energy      =      -1.5973505606055665 [Eh]
	 Correlation Energy        =      -2.0919857141587439 [Eh]
	 Total Energy              =    -498.9498962569178389 [Eh]

	 ================> DF-SCS-MP2 Energies <==================
	-----------------------------------------------------------
	 SCS Same-Spin Scale       =       0.3333333333333333 [-]
	 SCS Opposite-Spin Scale   =       1.2000000000000000 [-]
	 SCS Same-Spin Energy      =      -0.1648783845177258 [Eh]
	 SCS Opposite-Spin Energy  =      -1.9168206727266797 [Eh]
	 SCS Correlation Energy    =      -2.0816990572444056 [Eh]
	 SCS Total Energy          =    -498.9396096000035072 [Eh]
	-----------------------------------------------------------

  Dipole Moment: [D]
     X:     0.8288      Y:    -2.4636      Z:    -2.5364     Total:     3.6317

*** Psi4 exiting successfully. Buy a developer a beer!
