                               Psi4 1.4a3.dev225

  ==> Input File <==

--------------------------------------------------------------------------
#psi4
#
memory 32 gb

molecule  {
0 1
  O       -0.9795470    -0.0831330    -0.7231310
  O       -0.4899730     2.0087470     0.0897980
  O       -2.0025500    -0.0680990     1.3309880
  C        1.8485240    -0.5426110    -0.0314710
  C        1.2868380     0.6338010    -0.8471420
  C        1.7532090    -0.2607150     1.4674660
  C        3.2880220    -0.8256370    -0.4545800
  C       -0.1082690     0.9825120    -0.4201650
  C       -2.0345350    -0.3435730     0.1532740
  C       -3.1365800    -1.0497620    -0.5798680
  H        1.2371820    -1.4239180    -0.2609290
  H        1.9026850     1.5280430    -0.7082120
  H        1.2768590     0.3787260    -1.9135380
  H        2.3119230     0.6465730     1.7229020
  H        2.1770720    -1.0909040     2.0408530
  H        0.7169210    -0.1225920     1.7908070
  H        3.9287710     0.0354160    -0.2359390
  H        3.6876870    -1.6881060     0.0874480
  H        3.3559530    -1.0370340    -1.5265420
  H       -3.5487716    -0.4020377    -1.3578371
  H       -3.9066010    -1.3512680     0.1291360
  H       -2.7361560    -1.9219890    -1.1015230
units angstrom
no_reorient  #important for SAPT in psi4, default
symmetry c1  #important for SAPT in psi4, default
}

set PROPERTIES_ORIGIN ["COM"]
properties('MP2/aug-cc-pvtz', properties = ['dipole'])
--------------------------------------------------------------------------

    Molecular point group: c1
  Charge       = 0
  Multiplicity = 1
  Basis Set: AUG-CC-PVTZ
    Blend: AUG-CC-PVTZ
  Basis Set: (AUG-CC-PVTZ AUX)
    Blend: AUG-CC-PVTZ-JKFIT

    Orbital Energies [Eh]
    ---------------------

    Doubly Occupied:

       1A    -20.626662     2A    -20.564995     3A    -20.564598
       4A    -11.404352     5A    -11.398524     6A    -11.254876
       7A    -11.250635     8A    -11.245740     9A    -11.224633
      10A    -11.215569    11A     -1.485538    12A     -1.405221
      13A     -1.363543    14A     -1.113639    15A     -1.042775
      16A     -0.991171    17A     -0.938665    18A     -0.868246
      19A     -0.794666    20A     -0.739634    21A     -0.702805
      22A     -0.698410    23A     -0.682824    24A     -0.648709
      25A     -0.628241    26A     -0.621157    27A     -0.594247
      28A     -0.590654    29A     -0.569408    30A     -0.555764
      31A     -0.551374    32A     -0.539809    33A     -0.526904
      34A     -0.495843    35A     -0.487210    36A     -0.479725
      37A     -0.474014    38A     -0.471361    39A     -0.439720

  @DF-RHF Final Energy:  -496.86380559726615

   => Energetics <=

    Nuclear Repulsion Energy =            555.6263975867218505
    One-Electron Energy =               -1780.4766866007096269
    Two-Electron Energy =                 727.9864834167216259
    Total Energy =                       -496.8638055972661505
  Basis Set: (AUG-CC-PVTZ AUX)
    Blend: AUG-CC-PVTZ-RI
    Molecular point group: c1

    Geometry (in Angstrom), charge = 0, multiplicity = 1:

       Center              X                  Y                   Z               Mass
    ------------   -----------------  -----------------  -----------------  -----------------
         O           -0.908169156717    -0.127132711548    -0.731912956342    15.994914619570
         O           -0.418595156717     1.964747288452     0.081016043658    15.994914619570
         O           -1.931172156717    -0.112098711548     1.322206043658    15.994914619570
         C            1.919901843283    -0.586610711548    -0.040252956342    12.000000000000
         C            1.358215843283     0.589801288452    -0.855923956342    12.000000000000
         C            1.824586843283    -0.304714711548     1.458684043658    12.000000000000
         C            3.359399843283    -0.869636711548    -0.463361956342    12.000000000000
         C           -0.036891156717     0.938512288452    -0.428946956342    12.000000000000
         C           -1.963157156717    -0.387572711548     0.144492043658    12.000000000000
         C           -3.065202156717    -1.093761711548    -0.588649956342    12.000000000000
         H            1.308559843283    -1.467917711548    -0.269710956342     1.007825032230
         H            1.974062843283     1.484043288452    -0.716993956342     1.007825032230
         H            1.348236843283     0.334726288452    -1.922319956342     1.007825032230
         H            2.383300843283     0.602573288452     1.714120043658     1.007825032230
         H            2.248449843283    -1.134903711548     2.032071043658     1.007825032230
         H            0.788298843283    -0.166591711548     1.782025043658     1.007825032230
         H            4.000148843283    -0.008583711548    -0.244720956342     1.007825032230
         H            3.759064843283    -1.732105711548     0.078666043658     1.007825032230
         H            3.427330843283    -1.081033711548    -1.535323956342     1.007825032230
         H           -3.477393756717    -0.446037411548    -1.366619056342     1.007825032230
         H           -3.835223156717    -1.395267711548     0.120354043658     1.007825032230
         H           -2.664778156717    -1.965988711548    -1.110304956342     1.007825032230

  Basis Set: AUG-CC-PVTZ
    Blend: AUG-CC-PVTZ
  Basis Set: (AUG-CC-PVTZ AUX)
    Blend: AUG-CC-PVTZ-JKFIT
	 Reference Energy          =    -496.8638055972661505 [Eh]
	 Singles Energy            =      -0.0000000000000000 [Eh]
	 Same-Spin Energy          =      -0.4946296893754062 [Eh]
	 Opposite-Spin Energy      =      -1.5978201188291465 [Eh]
	 Correlation Energy        =      -2.0924498082045528 [Eh]
	 Total Energy              =    -498.9562554054706993 [Eh]

	 ================> DF-SCS-MP2 Energies <==================
	-----------------------------------------------------------
	 SCS Same-Spin Scale       =       0.3333333333333333 [-]
	 SCS Opposite-Spin Scale   =       1.2000000000000000 [-]
	 SCS Same-Spin Energy      =      -0.1648765631251354 [Eh]
	 SCS Opposite-Spin Energy  =      -1.9173841425949758 [Eh]
	 SCS Correlation Energy    =      -2.0822607057201110 [Eh]
	 SCS Total Energy          =    -498.9460663029862530 [Eh]
	-----------------------------------------------------------

  Dipole Moment: [D]
     X:     0.7902      Y:    -2.5058      Z:    -2.5547     Total:     3.6647

*** Psi4 exiting successfully. Buy a developer a beer!
