                               Psi4 1.4a3.dev225

  ==> Input File <==

--------------------------------------------------------------------------
#psi4
#
memory 32 gb

molecule  {
0 1
  O       -0.9795470    -0.0831330    -0.7231310
  O       -0.4899730     2.0087470     0.0897980
  O       -2.0025500    -0.0680990     1.3309880
  C        1.8485240    -0.5426110    -0.0314710
  C        1.2868380     0.6338010    -0.8471420
  C        1.7532090    -0.2607150     1.4674660
  C        3.2880220    -0.8256370    -0.4545800
  C       -0.1082690     0.9825120    -0.4201650
  C       -2.0345350    -0.3435730     0.1532740
  C       -3.1365800    -1.0497620    -0.5798680
  H        1.2371820    -1.4239180    -0.2609290
  H        1.9026850     1.5280430    -0.7082120
  H        1.2768590     0.3787260    -1.9135380
  H        2.3119230     0.6465730     1.7229020
  H        2.1770720    -1.0909040     2.0408530
  H        0.7169210    -0.1225920     1.7908070
  H        3.9170715     0.0196939    -0.2399312
  H        3.6876870    -1.6881060     0.0874480
  H        3.3559530    -1.0370340    -1.5265420
  H       -3.5589910    -0.3771620    -1.3307760
  H       -3.9066010    -1.3512680     0.1291360
  H       -2.7361560    -1.9219890    -1.1015230
units angstrom
no_reorient  #important for SAPT in psi4, default
symmetry c1  #important for SAPT in psi4, default
}

set PROPERTIES_ORIGIN ["COM"]
properties('MP2/aug-cc-pvtz', properties = ['dipole'])
--------------------------------------------------------------------------

    Molecular point group: c1
  Charge       = 0
  Multiplicity = 1
  Basis Set: AUG-CC-PVTZ
    Blend: AUG-CC-PVTZ
  Basis Set: (AUG-CC-PVTZ AUX)
    Blend: AUG-CC-PVTZ-JKFIT

    Orbital Energies [Eh]
    ---------------------

    Doubly Occupied:

       1A    -20.626646     2A    -20.564749     3A    -20.564576
       4A    -11.404046     5A    -11.398502     6A    -11.254868
       7A    -11.250606     8A    -11.245505     9A    -11.222137
      10A    -11.215537    11A     -1.485481    12A     -1.405118
      13A     -1.363456    14A     -1.113765    15A     -1.042914
      16A     -0.991530    17A     -0.939616    18A     -0.868287
      19A     -0.795315    20A     -0.739399    21A     -0.702070
      22A     -0.698358    23A     -0.682815    24A     -0.648959
      25A     -0.629213    26A     -0.620743    27A     -0.594235
      28A     -0.590134    29A     -0.570290    30A     -0.556069
      31A     -0.553203    32A     -0.540233    33A     -0.527413
      34A     -0.495688    35A     -0.487271    36A     -0.479825
      37A     -0.473737    38A     -0.471413    39A     -0.439523

  @DF-RHF Final Energy:  -496.86398042942625

   => Energetics <=

    Nuclear Repulsion Energy =            555.7325525670963771
    One-Electron Energy =               -1780.6865713797260469
    Two-Electron Energy =                 728.0900383832034777
    Total Energy =                       -496.8639804294263058
  Basis Set: (AUG-CC-PVTZ AUX)
    Blend: AUG-CC-PVTZ-RI
    Molecular point group: c1

    Geometry (in Angstrom), charge = 0, multiplicity = 1:

       Center              X                  Y                   Z               Mass
    ------------   -----------------  -----------------  -----------------  -----------------
         O           -0.908015834785    -0.127196740657    -0.732074322484    15.994914619570
         O           -0.418441834785     1.964683259343     0.080854677516    15.994914619570
         O           -1.931018834785    -0.112162740657     1.322044677516    15.994914619570
         C            1.920055165215    -0.586674740657    -0.040414322484    12.000000000000
         C            1.358369165215     0.589737259343    -0.856085322484    12.000000000000
         C            1.824740165215    -0.304778740657     1.458522677516    12.000000000000
         C            3.359553165215    -0.869700740657    -0.463523322484    12.000000000000
         C           -0.036737834785     0.938448259343    -0.429108322484    12.000000000000
         C           -1.963003834785    -0.387636740657     0.144330677516    12.000000000000
         C           -3.065048834785    -1.093825740657    -0.588811322484    12.000000000000
         H            1.308713165215    -1.467981740657    -0.269872322484     1.007825032230
         H            1.974216165215     1.483979259343    -0.717155322484     1.007825032230
         H            1.348390165215     0.334662259343    -1.922481322484     1.007825032230
         H            2.383454165215     0.602509259343     1.713958677516     1.007825032230
         H            2.248603165215    -1.134967740657     2.031909677516     1.007825032230
         H            0.788452165215    -0.166655740657     1.781863677516     1.007825032230
         H            3.988602665215    -0.024369840657    -0.248874522484     1.007825032230
         H            3.759218165215    -1.732169740657     0.078504677516     1.007825032230
         H            3.427484165215    -1.081097740657    -1.535485322484     1.007825032230
         H           -3.487459834785    -0.421225740657    -1.339719322484     1.007825032230
         H           -3.835069834785    -1.395331740657     0.120192677516     1.007825032230
         H           -2.664624834785    -1.966052740657    -1.110466322484     1.007825032230

  Basis Set: AUG-CC-PVTZ
    Blend: AUG-CC-PVTZ
  Basis Set: (AUG-CC-PVTZ AUX)
    Blend: AUG-CC-PVTZ-JKFIT
	 Reference Energy          =    -496.8639804294262490 [Eh]
	 Singles Energy            =      -0.0000000000000000 [Eh]
	 Same-Spin Energy          =      -0.4946138874737303 [Eh]
	 Opposite-Spin Energy      =      -1.5976997047445898 [Eh]
	 Correlation Energy        =      -2.0923135922183200 [Eh]
	 Total Energy              =    -498.9562940216445668 [Eh]

	 ================> DF-SCS-MP2 Energies <==================
	-----------------------------------------------------------
	 SCS Same-Spin Scale       =       0.3333333333333333 [-]
	 SCS Opposite-Spin Scale   =       1.2000000000000000 [-]
	 SCS Same-Spin Energy      =      -0.1648712958245767 [Eh]
	 SCS Opposite-Spin Energy  =      -1.9172396456935077 [Eh]
	 SCS Correlation Energy    =      -2.0821109415180845 [Eh]
	 SCS Total Energy          =    -498.9460913709443162 [Eh]
	-----------------------------------------------------------

  Dipole Moment: [D]
     X:     0.7959      Y:    -2.4894      Z:    -2.5399     Total:     3.6444

*** Psi4 exiting successfully. Buy a developer a beer!
