                               Psi4 1.4a3.dev225

  ==> Input File <==

--------------------------------------------------------------------------
#psi4
#
memory 32 gb

molecule  {
0 1
  O       -0.9795470    -0.0831330    -0.7231310
  O       -0.4899730     2.0087470     0.0897980
  O       -2.0025500    -0.0680990     1.3309880
  C        1.8485240    -0.5426110    -0.0314710
  C        1.2868380     0.6338010    -0.8471420
  C        1.7532090    -0.2607150     1.4674660
  C        3.2880220    -0.8256370    -0.4545800
  C       -0.1082690     0.9825120    -0.4201650
  C       -2.0345350    -0.3435730     0.1532740
  C       -3.1365800    -1.0497620    -0.5798680
  H        1.2371820    -1.4239180    -0.2609290
  H        1.9026850     1.5280430    -0.7082120
  H        1.2768590     0.3787260    -1.9135380
  H        2.3119230     0.6465730     1.7229020
  H        2.1770720    -1.0909040     2.0408530
  H        0.7169210    -0.1225920     1.7908070
  H        3.9287710     0.0354160    -0.2359390
  H        3.6876870    -1.6881060     0.0874480
  H        3.3559530    -1.0370340    -1.5265420
  H       -3.5865147    -0.3075679    -1.2442409
  H       -3.9066010    -1.3512680     0.1291360
  H       -2.7361560    -1.9219890    -1.1015230
units angstrom
no_reorient  #important for SAPT in psi4, default
symmetry c1  #important for SAPT in psi4, default
}

set PROPERTIES_ORIGIN ["COM"]
properties('MP2/aug-cc-pvtz', properties = ['dipole'])
--------------------------------------------------------------------------

    Molecular point group: c1
  Charge       = 0
  Multiplicity = 1
  Basis Set: AUG-CC-PVTZ
    Blend: AUG-CC-PVTZ
  Basis Set: (AUG-CC-PVTZ AUX)
    Blend: AUG-CC-PVTZ-JKFIT

    Orbital Energies [Eh]
    ---------------------

    Doubly Occupied:

       1A    -20.626744     2A    -20.564624     3A    -20.564025
       4A    -11.403304     5A    -11.398533     6A    -11.255059
       7A    -11.250627     8A    -11.245749     9A    -11.224630
      10A    -11.215557    11A     -1.485442    12A     -1.404895
      13A     -1.363300    14A     -1.113647    15A     -1.043485
      16A     -0.991279    17A     -0.938658    18A     -0.868050
      19A     -0.794601    20A     -0.738874    21A     -0.700696
      22A     -0.697909    23A     -0.682818    24A     -0.648292
      25A     -0.632686    26A     -0.619882    27A     -0.596418
      28A     -0.587301    29A     -0.571456    30A     -0.554371
      31A     -0.551579    32A     -0.539802    33A     -0.528342
      34A     -0.495843    35A     -0.487157    36A     -0.479372
      37A     -0.473105    38A     -0.470990    39A     -0.439084

  @DF-RHF Final Energy:  -496.86291360504077

   => Energetics <=

    Nuclear Repulsion Energy =            555.7111355797137549
    One-Electron Energy =               -1780.6517313725285021
    Two-Electron Energy =                 728.0776821877739167
    Total Energy =                       -496.8629136050408306
  Basis Set: (AUG-CC-PVTZ AUX)
    Blend: AUG-CC-PVTZ-RI
    Molecular point group: c1

    Geometry (in Angstrom), charge = 0, multiplicity = 1:

       Center              X                  Y                   Z               Mass
    ------------   -----------------  -----------------  -----------------  -----------------
         O           -0.907905145064    -0.127793524465    -0.732707557753    15.994914619570
         O           -0.418331145064     1.964086475535     0.080221442247    15.994914619570
         O           -1.930908145064    -0.112759524465     1.321411442247    15.994914619570
         C            1.920165854936    -0.587271524465    -0.041047557753    12.000000000000
         C            1.358479854936     0.589140475535    -0.856718557753    12.000000000000
         C            1.824850854936    -0.305375524465     1.457889442247    12.000000000000
         C            3.359663854936    -0.870297524465    -0.464156557753    12.000000000000
         C           -0.036627145064     0.937851475535    -0.429741557753    12.000000000000
         C           -1.962893145064    -0.388233524465     0.143697442247    12.000000000000
         C           -3.064938145064    -1.094422524465    -0.589444557753    12.000000000000
         H            1.308823854936    -1.468578524465    -0.270505557753     1.007825032230
         H            1.974326854936     1.483382475535    -0.717788557753     1.007825032230
         H            1.348500854936     0.334065475535    -1.923114557753     1.007825032230
         H            2.383564854936     0.601912475535     1.713325442247     1.007825032230
         H            2.248713854936    -1.135564524465     2.031276442247     1.007825032230
         H            0.788562854936    -0.167252524465     1.781230442247     1.007825032230
         H            4.000412854936    -0.009244524465    -0.245515557753     1.007825032230
         H            3.759328854936    -1.732766524465     0.077871442247     1.007825032230
         H            3.427594854936    -1.081694524465    -1.536118557753     1.007825032230
         H           -3.514872845064    -0.352228424465    -1.253817457753     1.007825032230
         H           -3.834959145064    -1.395928524465     0.119559442247     1.007825032230
         H           -2.664514145064    -1.966649524465    -1.111099557753     1.007825032230

  Basis Set: AUG-CC-PVTZ
    Blend: AUG-CC-PVTZ
  Basis Set: (AUG-CC-PVTZ AUX)
    Blend: AUG-CC-PVTZ-JKFIT
	 Reference Energy          =    -496.8629136050407737 [Eh]
	 Singles Energy            =      -0.0000000000000000 [Eh]
	 Same-Spin Energy          =      -0.4946381661951513 [Eh]
	 Opposite-Spin Energy      =      -1.5978844118921012 [Eh]
	 Correlation Energy        =      -2.0925225780872525 [Eh]
	 Total Energy              =    -498.9554361831280289 [Eh]

	 ================> DF-SCS-MP2 Energies <==================
	-----------------------------------------------------------
	 SCS Same-Spin Scale       =       0.3333333333333333 [-]
	 SCS Opposite-Spin Scale   =       1.2000000000000000 [-]
	 SCS Same-Spin Energy      =      -0.1648793887317171 [Eh]
	 SCS Opposite-Spin Energy  =      -1.9174612942705214 [Eh]
	 SCS Correlation Energy    =      -2.0823406830022386 [Eh]
	 SCS Total Energy          =    -498.9452542880430315 [Eh]
	-----------------------------------------------------------

  Dipole Moment: [D]
     X:     0.7752      Y:    -2.4756      Z:    -2.5005     Total:     3.6031

*** Psi4 exiting successfully. Buy a developer a beer!
