                               Psi4 1.4a3.dev225

  ==> Input File <==

--------------------------------------------------------------------------
#psi4
#
memory 32 gb

molecule  {
0 1
  O       -0.9795470    -0.0831330    -0.7231310
  O       -0.4899730     2.0087470     0.0897980
  O       -2.0025500    -0.0680990     1.3309880
  C        1.8485240    -0.5426110    -0.0314710
  C        1.2868380     0.6338010    -0.8471420
  C        1.7532090    -0.2607150     1.4674660
  C        3.2880220    -0.8256370    -0.4545800
  C       -0.1082690     0.9825120    -0.4201650
  C       -2.0345350    -0.3435730     0.1532740
  C       -3.1218884    -1.0403476    -0.5700943
  H        1.2371820    -1.4239180    -0.2609290
  H        1.9026850     1.5280430    -0.7082120
  H        1.2768590     0.3787260    -1.9135380
  H        2.3119230     0.6465730     1.7229020
  H        2.1770720    -1.0909040     2.0408530
  H        0.7169210    -0.1225920     1.7908070
  H        3.9287710     0.0354160    -0.2359390
  H        3.6876870    -1.6881060     0.0874480
  H        3.3559530    -1.0370340    -1.5265420
  H       -3.5589910    -0.3771620    -1.3307760
  H       -3.9066010    -1.3512680     0.1291360
  H       -2.7361560    -1.9219890    -1.1015230
units angstrom
no_reorient  #important for SAPT in psi4, default
symmetry c1  #important for SAPT in psi4, default
}

set PROPERTIES_ORIGIN ["COM"]
properties('MP2/aug-cc-pvtz', properties = ['dipole'])
--------------------------------------------------------------------------

    Molecular point group: c1
  Charge       = 0
  Multiplicity = 1
  Basis Set: AUG-CC-PVTZ
    Blend: AUG-CC-PVTZ
  Basis Set: (AUG-CC-PVTZ AUX)
    Blend: AUG-CC-PVTZ-JKFIT

    Orbital Energies [Eh]
    ---------------------

    Doubly Occupied:

       1A    -20.626462     2A    -20.564534     3A    -20.564513
       4A    -11.403366     5A    -11.398443     6A    -11.255251
       7A    -11.250572     8A    -11.245695     9A    -11.224596
      10A    -11.215523    11A     -1.485685    12A     -1.405253
      13A     -1.363495    14A     -1.113678    15A     -1.045824
      16A     -0.991236    17A     -0.938622    18A     -0.867708
      19A     -0.794620    20A     -0.739751    21A     -0.703701
      22A     -0.698684    23A     -0.683257    24A     -0.648625
      25A     -0.629066    26A     -0.622180    27A     -0.594975
      28A     -0.587076    29A     -0.569154    30A     -0.554433
      31A     -0.551306    32A     -0.539783    33A     -0.526392
      34A     -0.495834    35A     -0.486964    36A     -0.479717
      37A     -0.474083    38A     -0.471311    39A     -0.440282

  @DF-RHF Final Energy:  -496.86342500168223

   => Energetics <=

    Nuclear Repulsion Energy =            556.0319947833648939
    One-Electron Energy =               -1781.2875394072123072
    Two-Electron Energy =                 728.3921196221652963
    Total Energy =                       -496.8634250016822307
  Basis Set: (AUG-CC-PVTZ AUX)
    Blend: AUG-CC-PVTZ-RI
    Molecular point group: c1

    Geometry (in Angstrom), charge = 0, multiplicity = 1:

       Center              X                  Y                   Z               Mass
    ------------   -----------------  -----------------  -----------------  -----------------
         O           -0.909321304099    -0.128090821293    -0.732916278207    15.994914619570
         O           -0.419747304099     1.963789178707     0.080012721793    15.994914619570
         O           -1.932324304099    -0.113056821293     1.321202721793    15.994914619570
         C            1.918749695901    -0.587568821293    -0.041256278207    12.000000000000
         C            1.357063695901     0.588843178707    -0.856927278207    12.000000000000
         C            1.823434695901    -0.305672821293     1.457680721793    12.000000000000
         C            3.358247695901    -0.870594821293    -0.464365278207    12.000000000000
         C           -0.038043304099     0.937554178707    -0.429950278207    12.000000000000
         C           -1.964309304099    -0.388530821293     0.143488721793    12.000000000000
         C           -3.051662704099    -1.085305421293    -0.579879578207    12.000000000000
         H            1.307407695901    -1.468875821293    -0.270714278207     1.007825032230
         H            1.972910695901     1.483085178707    -0.717997278207     1.007825032230
         H            1.347084695901     0.333768178707    -1.923323278207     1.007825032230
         H            2.382148695901     0.601615178707     1.713116721793     1.007825032230
         H            2.247297695901    -1.135861821293     2.031067721793     1.007825032230
         H            0.787146695901    -0.167549821293     1.781021721793     1.007825032230
         H            3.998996695901    -0.009541821293    -0.245724278207     1.007825032230
         H            3.757912695901    -1.733063821293     0.077662721793     1.007825032230
         H            3.426178695901    -1.081991821293    -1.536327278207     1.007825032230
         H           -3.488765304099    -0.422119821293    -1.340561278207     1.007825032230
         H           -3.836375304099    -1.396225821293     0.119350721793     1.007825032230
         H           -2.665930304099    -1.966946821293    -1.111308278207     1.007825032230

  Basis Set: AUG-CC-PVTZ
    Blend: AUG-CC-PVTZ
  Basis Set: (AUG-CC-PVTZ AUX)
    Blend: AUG-CC-PVTZ-JKFIT
	 Reference Energy          =    -496.8634250016822307 [Eh]
	 Singles Energy            =      -0.0000000000000000 [Eh]
	 Same-Spin Energy          =      -0.4947603927430506 [Eh]
	 Opposite-Spin Energy      =      -1.5979274573412097 [Eh]
	 Correlation Energy        =      -2.0926878500842605 [Eh]
	 Total Energy              =    -498.9561128517664770 [Eh]

	 ================> DF-SCS-MP2 Energies <==================
	-----------------------------------------------------------
	 SCS Same-Spin Scale       =       0.3333333333333333 [-]
	 SCS Opposite-Spin Scale   =       1.2000000000000000 [-]
	 SCS Same-Spin Energy      =      -0.1649201309143502 [Eh]
	 SCS Opposite-Spin Energy  =      -1.9175129488094516 [Eh]
	 SCS Correlation Energy    =      -2.0824330797238018 [Eh]
	 SCS Total Energy          =    -498.9458580814060156 [Eh]
	-----------------------------------------------------------

  Dipole Moment: [D]
     X:     0.7624      Y:    -2.5112      Z:    -2.5572     Total:     3.6643

*** Psi4 exiting successfully. Buy a developer a beer!
