                               Psi4 1.4a3.dev225

  ==> Input File <==

--------------------------------------------------------------------------
#psi4
#
memory 32 gb

molecule  {
0 1
  O       -0.9795470    -0.0831330    -0.7231310
  O       -0.4899730     2.0087470     0.0897980
  O       -2.0025500    -0.0680990     1.3309880
  C        1.8485240    -0.5426110    -0.0314710
  C        1.2868380     0.6338010    -0.8471420
  C        1.7532090    -0.2607150     1.4674660
  C        3.2880220    -0.8256370    -0.4545800
  C       -0.1082690     0.9825120    -0.4201650
  C       -2.0345350    -0.3435730     0.1532740
  C       -3.1365800    -1.0497620    -0.5798680
  H        1.2371820    -1.4239180    -0.2609290
  H        1.9026850     1.5280430    -0.7082120
  H        1.2766770     0.3740736    -1.9329885
  H        2.3119230     0.6465730     1.7229020
  H        2.1770720    -1.0909040     2.0408530
  H        0.7169210    -0.1225920     1.7908070
  H        3.9287710     0.0354160    -0.2359390
  H        3.6876870    -1.6881060     0.0874480
  H        3.3559530    -1.0370340    -1.5265420
  H       -3.5589910    -0.3771620    -1.3307760
  H       -3.9066010    -1.3512680     0.1291360
  H       -2.7361560    -1.9219890    -1.1015230
units angstrom
no_reorient  #important for SAPT in psi4, default
symmetry c1  #important for SAPT in psi4, default
}

set PROPERTIES_ORIGIN ["COM"]
properties('MP2/aug-cc-pvtz', properties = ['dipole'])
--------------------------------------------------------------------------

    Molecular point group: c1
  Charge       = 0
  Multiplicity = 1
  Basis Set: AUG-CC-PVTZ
    Blend: AUG-CC-PVTZ
  Basis Set: (AUG-CC-PVTZ AUX)
    Blend: AUG-CC-PVTZ-JKFIT

    Orbital Energies [Eh]
    ---------------------

    Doubly Occupied:

       1A    -20.626669     2A    -20.564780     3A    -20.564728
       4A    -11.404067     5A    -11.398694     6A    -11.254890
       7A    -11.252940     8A    -11.245896     9A    -11.224626
      10A    -11.215727    11A     -1.485525    12A     -1.405204
      13A     -1.363518    14A     -1.113246    15A     -1.042872
      16A     -0.990407    17A     -0.938671    18A     -0.867890
      19A     -0.794643    20A     -0.739181    21A     -0.702105
      22A     -0.697655    23A     -0.682823    24A     -0.647241
      25A     -0.628786    26A     -0.620864    27A     -0.594276
      28A     -0.590065    29A     -0.569851    30A     -0.555555
      31A     -0.551037    32A     -0.539623    33A     -0.527399
      34A     -0.495826    35A     -0.487253    36A     -0.479521
      37A     -0.473302    38A     -0.471384    39A     -0.439651

  @DF-RHF Final Energy:  -496.86340558016889

   => Energetics <=

    Nuclear Repulsion Energy =            555.5423062613889442
    One-Electron Energy =               -1780.3146420778848551
    Two-Electron Energy =                 727.9089302363269098
    Total Energy =                       -496.8634055801688874
  Basis Set: (AUG-CC-PVTZ AUX)
    Blend: AUG-CC-PVTZ-RI
    Molecular point group: c1

    Geometry (in Angstrom), charge = 0, multiplicity = 1:

       Center              X                  Y                   Z               Mass
    ------------   -----------------  -----------------  -----------------  -----------------
         O           -0.908096399291    -0.127274172818    -0.731966192221    15.994914619570
         O           -0.418522399291     1.964605827182     0.080962807779    15.994914619570
         O           -1.931099399291    -0.112240172818     1.322152807779    15.994914619570
         C            1.919974600709    -0.586752172818    -0.040306192221    12.000000000000
         C            1.358288600709     0.589659827182    -0.855977192221    12.000000000000
         C            1.824659600709    -0.304856172818     1.458630807779    12.000000000000
         C            3.359472600709    -0.869778172818    -0.463415192221    12.000000000000
         C           -0.036818399291     0.938370827182    -0.429000192221    12.000000000000
         C           -1.963084399291    -0.387714172818     0.144438807779    12.000000000000
         C           -3.065129399291    -1.093903172818    -0.588703192221    12.000000000000
         H            1.308632600709    -1.468059172818    -0.269764192221     1.007825032230
         H            1.974135600709     1.483901827182    -0.717047192221     1.007825032230
         H            1.348127600709     0.329932427182    -1.941823692221     1.007825032230
         H            2.383373600709     0.602431827182     1.714066807779     1.007825032230
         H            2.248522600709    -1.135045172818     2.032017807779     1.007825032230
         H            0.788371600709    -0.166733172818     1.781971807779     1.007825032230
         H            4.000221600709    -0.008725172818    -0.244774192221     1.007825032230
         H            3.759137600709    -1.732247172818     0.078612807779     1.007825032230
         H            3.427403600709    -1.081175172818    -1.535377192221     1.007825032230
         H           -3.487540399291    -0.421303172818    -1.339611192221     1.007825032230
         H           -3.835150399291    -1.395409172818     0.120300807779     1.007825032230
         H           -2.664705399291    -1.966130172818    -1.110358192221     1.007825032230

  Basis Set: AUG-CC-PVTZ
    Blend: AUG-CC-PVTZ
  Basis Set: (AUG-CC-PVTZ AUX)
    Blend: AUG-CC-PVTZ-JKFIT
	 Reference Energy          =    -496.8634055801688874 [Eh]
	 Singles Energy            =      -0.0000000000000000 [Eh]
	 Same-Spin Energy          =      -0.4946327344225367 [Eh]
	 Opposite-Spin Energy      =      -1.5979624523871072 [Eh]
	 Correlation Energy        =      -2.0925951868096440 [Eh]
	 Total Energy              =    -498.9560007669785477 [Eh]

	 ================> DF-SCS-MP2 Energies <==================
	-----------------------------------------------------------
	 SCS Same-Spin Scale       =       0.3333333333333333 [-]
	 SCS Opposite-Spin Scale   =       1.2000000000000000 [-]
	 SCS Same-Spin Energy      =      -0.1648775781408456 [Eh]
	 SCS Opposite-Spin Energy  =      -1.9175549428645287 [Eh]
	 SCS Correlation Energy    =      -2.0824325210053742 [Eh]
	 SCS Total Energy          =    -498.9458381011742745 [Eh]
	-----------------------------------------------------------

  Dipole Moment: [D]
     X:     0.7866      Y:    -2.4975      Z:    -2.5334     Total:     3.6434

*** Psi4 exiting successfully. Buy a developer a beer!
