                               Psi4 1.4a3.dev225

  ==> Input File <==

--------------------------------------------------------------------------
#psi4
#
memory 32 gb

molecule  {
0 1
  O       -0.9795470    -0.0831330    -0.7231310
  O       -0.4899730     2.0087470     0.0897980
  O       -2.0025500    -0.0680990     1.3309880
  C        1.8485240    -0.5426110    -0.0314710
  C        1.2868380     0.6338010    -0.8471420
  C        1.7369818    -0.2817119     1.4701456
  C        3.2880220    -0.8256370    -0.4545800
  C       -0.1082690     0.9825120    -0.4201650
  C       -2.0345350    -0.3435730     0.1532740
  C       -3.1365800    -1.0497620    -0.5798680
  H        1.2371820    -1.4239180    -0.2609290
  H        1.9026850     1.5280430    -0.7082120
  H        1.2768590     0.3787260    -1.9135380
  H        2.3119230     0.6465730     1.7229020
  H        2.1770720    -1.0909040     2.0408530
  H        0.7169210    -0.1225920     1.7908070
  H        3.9287710     0.0354160    -0.2359390
  H        3.6876870    -1.6881060     0.0874480
  H        3.3559530    -1.0370340    -1.5265420
  H       -3.5589910    -0.3771620    -1.3307760
  H       -3.9066010    -1.3512680     0.1291360
  H       -2.7361560    -1.9219890    -1.1015230
units angstrom
no_reorient  #important for SAPT in psi4, default
symmetry c1  #important for SAPT in psi4, default
}

set PROPERTIES_ORIGIN ["COM"]
properties('MP2/aug-cc-pvtz', properties = ['dipole'])
--------------------------------------------------------------------------

    Molecular point group: c1
  Charge       = 0
  Multiplicity = 1
  Basis Set: AUG-CC-PVTZ
    Blend: AUG-CC-PVTZ
  Basis Set: (AUG-CC-PVTZ AUX)
    Blend: AUG-CC-PVTZ-JKFIT

    Orbital Energies [Eh]
    ---------------------

    Doubly Occupied:

       1A    -20.626764     2A    -20.564873     3A    -20.564768
       4A    -11.404162     5A    -11.398635     6A    -11.254946
       7A    -11.250853     8A    -11.245782     9A    -11.224895
      10A    -11.215836    11A     -1.485617    12A     -1.405264
      13A     -1.363593    14A     -1.113501    15A     -1.042932
      16A     -0.991296    17A     -0.939182    18A     -0.868286
      19A     -0.794347    20A     -0.739491    21A     -0.702158
      22A     -0.698367    23A     -0.682995    24A     -0.648555
      25A     -0.629394    26A     -0.622052    27A     -0.594890
      28A     -0.590088    29A     -0.570815    30A     -0.555069
      31A     -0.550911    32A     -0.537535    33A     -0.527964
      34A     -0.498759    35A     -0.487492    36A     -0.478348
      37A     -0.474541    38A     -0.469583    39A     -0.439837

  @DF-RHF Final Energy:  -496.86325692699552

   => Energetics <=

    Nuclear Repulsion Energy =            555.6655542921508868
    One-Electron Energy =               -1780.5488772516905556
    Two-Electron Energy =                 728.0200660325442641
    Total Energy =                       -496.8632569269955184
  Basis Set: (AUG-CC-PVTZ AUX)
    Blend: AUG-CC-PVTZ-RI
    Molecular point group: c1

    Geometry (in Angstrom), charge = 0, multiplicity = 1:

       Center              X                  Y                   Z               Mass
    ------------   -----------------  -----------------  -----------------  -----------------
         O           -0.906746143832    -0.125557929608    -0.732325425895    15.994914619570
         O           -0.417172143832     1.966322070392     0.080603574105    15.994914619570
         O           -1.929749143832    -0.110523929608     1.321793574105    15.994914619570
         C            1.921324856168    -0.585035929608    -0.040665425895    12.000000000000
         C            1.359638856168     0.591376070392    -0.856336425895    12.000000000000
         C            1.809782656168    -0.324136829608     1.460951174105    12.000000000000
         C            3.360822856168    -0.868061929608    -0.463774425895    12.000000000000
         C           -0.035468143832     0.940087070392    -0.429359425895    12.000000000000
         C           -1.961734143832    -0.385997929608     0.144079574105    12.000000000000
         C           -3.063779143832    -1.092186929608    -0.589062425895    12.000000000000
         H            1.309982856168    -1.466342929608    -0.270123425895     1.007825032230
         H            1.975485856168     1.485618070392    -0.717406425895     1.007825032230
         H            1.349659856168     0.336301070392    -1.922732425895     1.007825032230
         H            2.384723856168     0.604148070392     1.713707574105     1.007825032230
         H            2.249872856168    -1.133328929608     2.031658574105     1.007825032230
         H            0.789721856168    -0.165016929608     1.781612574105     1.007825032230
         H            4.001571856168    -0.007008929608    -0.245133425895     1.007825032230
         H            3.760487856168    -1.730530929608     0.078253574105     1.007825032230
         H            3.428753856168    -1.079458929608    -1.535736425895     1.007825032230
         H           -3.486190143832    -0.419586929608    -1.339970425895     1.007825032230
         H           -3.833800143832    -1.393692929608     0.119941574105     1.007825032230
         H           -2.663355143832    -1.964413929608    -1.110717425895     1.007825032230

  Basis Set: AUG-CC-PVTZ
    Blend: AUG-CC-PVTZ
  Basis Set: (AUG-CC-PVTZ AUX)
    Blend: AUG-CC-PVTZ-JKFIT
	 Reference Energy          =    -496.8632569269955184 [Eh]
	 Singles Energy            =      -0.0000000000000000 [Eh]
	 Same-Spin Energy          =      -0.4946037167127289 [Eh]
	 Opposite-Spin Energy      =      -1.5978238834052334 [Eh]
	 Correlation Energy        =      -2.0924276001179622 [Eh]
	 Total Energy              =    -498.9556845271134762 [Eh]

	 ================> DF-SCS-MP2 Energies <==================
	-----------------------------------------------------------
	 SCS Same-Spin Scale       =       0.3333333333333333 [-]
	 SCS Opposite-Spin Scale   =       1.2000000000000000 [-]
	 SCS Same-Spin Energy      =      -0.1648679055709096 [Eh]
	 SCS Opposite-Spin Energy  =      -1.9173886600862800 [Eh]
	 SCS Correlation Energy    =      -2.0822565656571896 [Eh]
	 SCS Total Energy          =    -498.9455134926527080 [Eh]
	-----------------------------------------------------------

  Dipole Moment: [D]
     X:     0.7810      Y:    -2.5073      Z:    -2.5474     Total:     3.6587

*** Psi4 exiting successfully. Buy a developer a beer!
