                               Psi4 1.4a3.dev225

  ==> Input File <==

--------------------------------------------------------------------------
#psi4
#
memory 32 gb

molecule  {
0 1
  O       -0.9795470    -0.0831330    -0.7231310
  O       -0.4899730     2.0087470     0.0897980
  O       -2.0025500    -0.0680990     1.3309880
  C        1.8485240    -0.5426110    -0.0314710
  C        1.2868380     0.6338010    -0.8471420
  C        1.6564538    -0.3877599     1.4766711
  C        3.2880220    -0.8256370    -0.4545800
  C       -0.1082690     0.9825120    -0.4201650
  C       -2.0345350    -0.3435730     0.1532740
  C       -3.1365800    -1.0497620    -0.5798680
  H        1.2371820    -1.4239180    -0.2609290
  H        1.9026850     1.5280430    -0.7082120
  H        1.2768590     0.3787260    -1.9135380
  H        2.3119230     0.6465730     1.7229020
  H        2.1770720    -1.0909040     2.0408530
  H        0.7169210    -0.1225920     1.7908070
  H        3.9287710     0.0354160    -0.2359390
  H        3.6876870    -1.6881060     0.0874480
  H        3.3559530    -1.0370340    -1.5265420
  H       -3.5589910    -0.3771620    -1.3307760
  H       -3.9066010    -1.3512680     0.1291360
  H       -2.7361560    -1.9219890    -1.1015230
units angstrom
no_reorient  #important for SAPT in psi4, default
symmetry c1  #important for SAPT in psi4, default
}

set PROPERTIES_ORIGIN ["COM"]
properties('MP2/aug-cc-pvtz', properties = ['dipole'])
--------------------------------------------------------------------------

    Molecular point group: c1
  Charge       = 0
  Multiplicity = 1
  Basis Set: AUG-CC-PVTZ
    Blend: AUG-CC-PVTZ
  Basis Set: (AUG-CC-PVTZ AUX)
    Blend: AUG-CC-PVTZ-JKFIT

    Orbital Energies [Eh]
    ---------------------

    Doubly Occupied:

       1A    -20.627352     2A    -20.565673     3A    -20.565459
       4A    -11.404714     5A    -11.399327     6A    -11.255303
       7A    -11.252312     8A    -11.247593     9A    -11.226576
      10A    -11.220836    11A     -1.486277    12A     -1.405953
      13A     -1.364245    14A     -1.113758    15A     -1.043370
      16A     -0.992442    17A     -0.943283    18A     -0.869099
      19A     -0.795280    20A     -0.740170    21A     -0.702779
      22A     -0.698883    23A     -0.684280    24A     -0.647630
      25A     -0.633341    26A     -0.629233    27A     -0.599064
      28A     -0.590722    29A     -0.576157    30A     -0.556372
      31A     -0.554119    32A     -0.530689    33A     -0.521873
      34A     -0.508690    35A     -0.491603    36A     -0.479376
      37A     -0.476196    38A     -0.444987    39A     -0.439194

  @DF-RHF Final Energy:  -496.84092780379541

   => Energetics <=

    Nuclear Repulsion Energy =            555.7839449406817494
    One-Electron Energy =               -1780.6813274745315994
    Two-Electron Energy =                 728.0564547300543836
    Total Energy =                       -496.8409278037954664
  Basis Set: (AUG-CC-PVTZ AUX)
    Blend: AUG-CC-PVTZ-RI
    Molecular point group: c1

    Geometry (in Angstrom), charge = 0, multiplicity = 1:

       Center              X                  Y                   Z               Mass
    ------------   -----------------  -----------------  -----------------  -----------------
         O           -0.900039140132    -0.116725420067    -0.732868920737    15.994914619570
         O           -0.410465140132     1.975154579933     0.080060079263    15.994914619570
         O           -1.923042140132    -0.101691420067     1.321250079263    15.994914619570
         C            1.928031859868    -0.576203420067    -0.041208920737    12.000000000000
         C            1.366345859868     0.600208579933    -0.856879920737    12.000000000000
         C            1.735961659868    -0.421352320067     1.466933179263    12.000000000000
         C            3.367529859868    -0.859229420067    -0.464317920737    12.000000000000
         C           -0.028761140132     0.948919579933    -0.429902920737    12.000000000000
         C           -1.955027140132    -0.377165420067     0.143536079263    12.000000000000
         C           -3.057072140132    -1.083354420067    -0.589605920737    12.000000000000
         H            1.316689859868    -1.457510420067    -0.270666920737     1.007825032230
         H            1.982192859868     1.494450579933    -0.717949920737     1.007825032230
         H            1.356366859868     0.345133579933    -1.923275920737     1.007825032230
         H            2.391430859868     0.612980579933     1.713164079263     1.007825032230
         H            2.256579859868    -1.124496420067     2.031115079263     1.007825032230
         H            0.796428859868    -0.156184420067     1.781069079263     1.007825032230
         H            4.008278859868     0.001823579933    -0.245676920737     1.007825032230
         H            3.767194859868    -1.721698420067     0.077710079263     1.007825032230
         H            3.435460859868    -1.070626420067    -1.536279920737     1.007825032230
         H           -3.479483140132    -0.410754420067    -1.340513920737     1.007825032230
         H           -3.827093140132    -1.384860420067     0.119398079263     1.007825032230
         H           -2.656648140132    -1.955581420067    -1.111260920737     1.007825032230

  Basis Set: AUG-CC-PVTZ
    Blend: AUG-CC-PVTZ
  Basis Set: (AUG-CC-PVTZ AUX)
    Blend: AUG-CC-PVTZ-JKFIT
	 Reference Energy          =    -496.8409278037954095 [Eh]
	 Singles Energy            =      -0.0000000000000000 [Eh]
	 Same-Spin Energy          =      -0.4949257796337302 [Eh]
	 Opposite-Spin Energy      =      -1.5988927076366186 [Eh]
	 Correlation Energy        =      -2.0938184872703487 [Eh]
	 Total Energy              =    -498.9347462910657782 [Eh]

	 ================> DF-SCS-MP2 Energies <==================
	-----------------------------------------------------------
	 SCS Same-Spin Scale       =       0.3333333333333333 [-]
	 SCS Opposite-Spin Scale   =       1.2000000000000000 [-]
	 SCS Same-Spin Energy      =      -0.1649752598779101 [Eh]
	 SCS Opposite-Spin Energy  =      -1.9186712491639422 [Eh]
	 SCS Correlation Energy    =      -2.0836465090418521 [Eh]
	 SCS Total Energy          =    -498.9245743128372510 [Eh]
	-----------------------------------------------------------

  Dipole Moment: [D]
     X:     0.7419      Y:    -2.5771      Z:    -2.6058     Total:     3.7392

*** Psi4 exiting successfully. Buy a developer a beer!
