                               Psi4 1.4a3.dev225

  ==> Input File <==

--------------------------------------------------------------------------
#psi4
#
memory 32 gb

molecule  {
0 1
  O       -0.9795470    -0.0831330    -0.7231310
  O       -0.4899730     2.0087470     0.0897980
  O       -2.0025500    -0.0680990     1.3309880
  C        1.8485240    -0.5426110    -0.0314710
  C        1.2868380     0.6338010    -0.8471420
  C        1.8510085    -0.1367586     1.4418382
  C        3.2880220    -0.8256370    -0.4545800
  C       -0.1082690     0.9825120    -0.4201650
  C       -2.0345350    -0.3435730     0.1532740
  C       -3.1365800    -1.0497620    -0.5798680
  H        1.2371820    -1.4239180    -0.2609290
  H        1.9026850     1.5280430    -0.7082120
  H        1.2768590     0.3787260    -1.9135380
  H        2.3119230     0.6465730     1.7229020
  H        2.1770720    -1.0909040     2.0408530
  H        0.7169210    -0.1225920     1.7908070
  H        3.9287710     0.0354160    -0.2359390
  H        3.6876870    -1.6881060     0.0874480
  H        3.3559530    -1.0370340    -1.5265420
  H       -3.5589910    -0.3771620    -1.3307760
  H       -3.9066010    -1.3512680     0.1291360
  H       -2.7361560    -1.9219890    -1.1015230
units angstrom
no_reorient  #important for SAPT in psi4, default
symmetry c1  #important for SAPT in psi4, default
}

set PROPERTIES_ORIGIN ["COM"]
properties('MP2/aug-cc-pvtz', properties = ['dipole'])
--------------------------------------------------------------------------

    Molecular point group: c1
  Charge       = 0
  Multiplicity = 1
  Basis Set: AUG-CC-PVTZ
    Blend: AUG-CC-PVTZ
  Basis Set: (AUG-CC-PVTZ AUX)
    Blend: AUG-CC-PVTZ-JKFIT

    Orbital Energies [Eh]
    ---------------------

    Doubly Occupied:

       1A    -20.626478     2A    -20.564428     3A    -20.563818
       4A    -11.403761     5A    -11.398137     6A    -11.254780
       7A    -11.249931     8A    -11.248053     9A    -11.223686
      10A    -11.218858    11A     -1.485167    12A     -1.404616
      13A     -1.363076    14A     -1.115897    15A     -1.042972
      16A     -0.991494    17A     -0.939285    18A     -0.868103
      19A     -0.801434    20A     -0.739637    21A     -0.702295
      22A     -0.699404    23A     -0.682358    24A     -0.647339
      25A     -0.629997    26A     -0.618419    27A     -0.599313
      28A     -0.590698    29A     -0.577397    30A     -0.564573
      31A     -0.554220    32A     -0.537433    33A     -0.523176
      34A     -0.497818    35A     -0.483907    36A     -0.474373
      37A     -0.469029    38A     -0.460823    39A     -0.436686

  @DF-RHF Final Energy:  -496.83176367958646

   => Energetics <=

    Nuclear Repulsion Energy =            555.5858667612832278
    One-Electron Energy =               -1780.3295229729494622
    Two-Electron Energy =                 727.9118925320799462
    Total Energy =                       -496.8317636795864018
  Basis Set: (AUG-CC-PVTZ AUX)
    Blend: AUG-CC-PVTZ-RI
    Molecular point group: c1

    Geometry (in Angstrom), charge = 0, multiplicity = 1:

       Center              X                  Y                   Z               Mass
    ------------   -----------------  -----------------  -----------------  -----------------
         O           -0.916243182114    -0.137630777802    -0.729967763510    15.994914619570
         O           -0.426669182114     1.954249222198     0.082961236490    15.994914619570
         O           -1.939246182114    -0.122596777802     1.324151236490    15.994914619570
         C            1.911827817886    -0.597108777802    -0.038307763510    12.000000000000
         C            1.350141817886     0.579303222198    -0.853978763510    12.000000000000
         C            1.914312317886    -0.191256377802     1.435001436490    12.000000000000
         C            3.351325817886    -0.880134777802    -0.461416763510    12.000000000000
         C           -0.044965182114     0.928014222198    -0.427001763510    12.000000000000
         C           -1.971231182114    -0.398070777802     0.146437236490    12.000000000000
         C           -3.073276182114    -1.104259777802    -0.586704763510    12.000000000000
         H            1.300485817886    -1.478415777802    -0.267765763510     1.007825032230
         H            1.965988817886     1.473545222198    -0.715048763510     1.007825032230
         H            1.340162817886     0.324228222198    -1.920374763510     1.007825032230
         H            2.375226817886     0.592075222198     1.716065236490     1.007825032230
         H            2.240375817886    -1.145401777802     2.034016236490     1.007825032230
         H            0.780224817886    -0.177089777802     1.783970236490     1.007825032230
         H            3.992074817886    -0.019081777802    -0.242775763510     1.007825032230
         H            3.750990817886    -1.742603777802     0.080611236490     1.007825032230
         H            3.419256817886    -1.091531777802    -1.533378763510     1.007825032230
         H           -3.495687182114    -0.431659777802    -1.337612763510     1.007825032230
         H           -3.843297182114    -1.405765777802     0.122299236490     1.007825032230
         H           -2.672852182114    -1.976486777802    -1.108359763510     1.007825032230

  Basis Set: AUG-CC-PVTZ
    Blend: AUG-CC-PVTZ
  Basis Set: (AUG-CC-PVTZ AUX)
    Blend: AUG-CC-PVTZ-JKFIT
	 Reference Energy          =    -496.8317636795864587 [Eh]
	 Singles Energy            =      -0.0000000000000000 [Eh]
	 Same-Spin Energy          =      -0.4952147206949037 [Eh]
	 Opposite-Spin Energy      =      -1.5994114188938473 [Eh]
	 Correlation Energy        =      -2.0946261395887511 [Eh]
	 Total Energy              =    -498.9263898191751991 [Eh]

	 ================> DF-SCS-MP2 Energies <==================
	-----------------------------------------------------------
	 SCS Same-Spin Scale       =       0.3333333333333333 [-]
	 SCS Opposite-Spin Scale   =       1.2000000000000000 [-]
	 SCS Same-Spin Energy      =      -0.1650715735649679 [Eh]
	 SCS Opposite-Spin Energy  =      -1.9192937026726167 [Eh]
	 SCS Correlation Energy    =      -2.0843652762375844 [Eh]
	 SCS Total Energy          =    -498.9161289558240355 [Eh]
	-----------------------------------------------------------

  Dipole Moment: [D]
     X:     0.7988      Y:    -2.4638      Z:    -2.5468     Total:     3.6325

*** Psi4 exiting successfully. Buy a developer a beer!
