                               Psi4 1.4a3.dev225

  ==> Input File <==

--------------------------------------------------------------------------
#psi4
#
memory 32 gb

molecule  {
0 1
  O       -0.9795470    -0.0831330    -0.7231310
  O       -0.4899730     2.0087470     0.0897980
  O       -2.0025500    -0.0680990     1.3309880
  C        1.8485240    -0.5426110    -0.0314710
  C        1.2868380     0.6338010    -0.8471420
  C        1.7532090    -0.2607150     1.4674660
  C        3.4765795    -0.8627101    -0.5100024
  C       -0.1082690     0.9825120    -0.4201650
  C       -2.0345350    -0.3435730     0.1532740
  C       -3.1365800    -1.0497620    -0.5798680
  H        1.2371820    -1.4239180    -0.2609290
  H        1.9026850     1.5280430    -0.7082120
  H        1.2768590     0.3787260    -1.9135380
  H        2.3119230     0.6465730     1.7229020
  H        2.1770720    -1.0909040     2.0408530
  H        0.7169210    -0.1225920     1.7908070
  H        3.9287710     0.0354160    -0.2359390
  H        3.6876870    -1.6881060     0.0874480
  H        3.3559530    -1.0370340    -1.5265420
  H       -3.5589910    -0.3771620    -1.3307760
  H       -3.9066010    -1.3512680     0.1291360
  H       -2.7361560    -1.9219890    -1.1015230
units angstrom
no_reorient  #important for SAPT in psi4, default
symmetry c1  #important for SAPT in psi4, default
}

set PROPERTIES_ORIGIN ["COM"]
properties('MP2/aug-cc-pvtz', properties = ['dipole'])
--------------------------------------------------------------------------

    Molecular point group: c1
  Charge       = 0
  Multiplicity = 1
  Basis Set: AUG-CC-PVTZ
    Blend: AUG-CC-PVTZ
  Basis Set: (AUG-CC-PVTZ AUX)
    Blend: AUG-CC-PVTZ-JKFIT

    Orbital Energies [Eh]
    ---------------------

    Doubly Occupied:

       1A    -20.626457     2A    -20.564617     3A    -20.564384
       4A    -11.403912     5A    -11.398334     6A    -11.254787
       7A    -11.252690     8A    -11.250526     9A    -11.221884
      10A    -11.215715    11A     -1.485289    12A     -1.404950
      13A     -1.363278    14A     -1.100031    15A     -1.040720
      16A     -0.985867    17A     -0.942619    18A     -0.869057
      19A     -0.793598    20A     -0.738943    21A     -0.701339
      22A     -0.697390    23A     -0.681663    24A     -0.645560
      25A     -0.628488    26A     -0.619568    27A     -0.599852
      28A     -0.591297    29A     -0.578033    30A     -0.564800
      31A     -0.556072    32A     -0.551198    33A     -0.527796
      34A     -0.491229    35A     -0.488022    36A     -0.478804
      37A     -0.473678    38A     -0.456778    39A     -0.418037

  @DF-RHF Final Energy:  -496.83719822523750

   => Energetics <=

    Nuclear Repulsion Energy =            552.2866163120327201
    One-Electron Energy =               -1773.7930998177810125
    Two-Electron Energy =                 724.6692852805107350
    Total Energy =                       -496.8371982252375574
  Basis Set: (AUG-CC-PVTZ AUX)
    Blend: AUG-CC-PVTZ-RI
    Molecular point group: c1

    Geometry (in Angstrom), charge = 0, multiplicity = 1:

       Center              X                  Y                   Z               Mass
    ------------   -----------------  -----------------  -----------------  -----------------
         O           -0.923802220483    -0.124218977531    -0.727486235440    15.994914619570
         O           -0.434228220483     1.967661022469     0.085442764560    15.994914619570
         O           -1.946805220483    -0.109184977531     1.326632764560    15.994914619570
         C            1.904268779517    -0.583696977531    -0.035826235440    12.000000000000
         C            1.342582779517     0.592715022469    -0.851497235440    12.000000000000
         C            1.808953779517    -0.301800977531     1.463110764560    12.000000000000
         C            3.532324279517    -0.903796077531    -0.514357635440    12.000000000000
         C           -0.052524220483     0.941426022469    -0.424520235440    12.000000000000
         C           -1.978790220483    -0.384658977531     0.148918764560    12.000000000000
         C           -3.080835220483    -1.090847977531    -0.584223235440    12.000000000000
         H            1.292926779517    -1.465003977531    -0.265284235440     1.007825032230
         H            1.958429779517     1.486957022469    -0.712567235440     1.007825032230
         H            1.332603779517     0.337640022469    -1.917893235440     1.007825032230
         H            2.367667779517     0.605487022469     1.718546764560     1.007825032230
         H            2.232816779517    -1.131989977531     2.036497764560     1.007825032230
         H            0.772665779517    -0.163677977531     1.786451764560     1.007825032230
         H            3.984515779517    -0.005669977531    -0.240294235440     1.007825032230
         H            3.743431779517    -1.729191977531     0.083092764560     1.007825032230
         H            3.411697779517    -1.078119977531    -1.530897235440     1.007825032230
         H           -3.503246220483    -0.418247977531    -1.335131235440     1.007825032230
         H           -3.850856220483    -1.392353977531     0.124780764560     1.007825032230
         H           -2.680411220483    -1.963074977531    -1.105878235440     1.007825032230

  Basis Set: AUG-CC-PVTZ
    Blend: AUG-CC-PVTZ
  Basis Set: (AUG-CC-PVTZ AUX)
    Blend: AUG-CC-PVTZ-JKFIT
	 Reference Energy          =    -496.8371982252375005 [Eh]
	 Singles Energy            =      -0.0000000000000000 [Eh]
	 Same-Spin Energy          =      -0.4946092222654368 [Eh]
	 Opposite-Spin Energy      =      -1.5991112719091487 [Eh]
	 Correlation Energy        =      -2.0937204941745855 [Eh]
	 Total Energy              =    -498.9309187194120909 [Eh]

	 ================> DF-SCS-MP2 Energies <==================
	-----------------------------------------------------------
	 SCS Same-Spin Scale       =       0.3333333333333333 [-]
	 SCS Opposite-Spin Scale   =       1.2000000000000000 [-]
	 SCS Same-Spin Energy      =      -0.1648697407551456 [Eh]
	 SCS Opposite-Spin Energy  =      -1.9189335262909784 [Eh]
	 SCS Correlation Energy    =      -2.0838032670461240 [Eh]
	 SCS Total Energy          =    -498.9210014922836081 [Eh]
	-----------------------------------------------------------

  Dipole Moment: [D]
     X:     0.7076      Y:    -2.4724      Z:    -2.5119     Total:     3.5949

*** Psi4 exiting successfully. Buy a developer a beer!
