                               Psi4 1.4a3.dev225

  ==> Input File <==

--------------------------------------------------------------------------
#psi4
#
memory 32 gb

molecule  {
0 1
  O       -0.9795470    -0.0831330    -0.7231310
  O       -0.4899730     2.0087470     0.0897980
  O       -2.0025500    -0.0680990     1.3309880
  C        1.8485240    -0.5426110    -0.0314710
  C        1.2868380     0.6338010    -0.8471420
  C        1.7532090    -0.2607150     1.4674660
  C        3.2880220    -0.8256370    -0.4545800
  C       -0.1082690     0.9825120    -0.4201650
  C       -2.0371786    -0.3663409     0.0559363
  C       -3.1365800    -1.0497620    -0.5798680
  H        1.2371820    -1.4239180    -0.2609290
  H        1.9026850     1.5280430    -0.7082120
  H        1.2768590     0.3787260    -1.9135380
  H        2.3119230     0.6465730     1.7229020
  H        2.1770720    -1.0909040     2.0408530
  H        0.7169210    -0.1225920     1.7908070
  H        3.9287710     0.0354160    -0.2359390
  H        3.6876870    -1.6881060     0.0874480
  H        3.3559530    -1.0370340    -1.5265420
  H       -3.5589910    -0.3771620    -1.3307760
  H       -3.9066010    -1.3512680     0.1291360
  H       -2.7361560    -1.9219890    -1.1015230
units angstrom
no_reorient  #important for SAPT in psi4, default
symmetry c1  #important for SAPT in psi4, default
}

set PROPERTIES_ORIGIN ["COM"]
properties('MP2/aug-cc-pvtz', properties = ['dipole'])
--------------------------------------------------------------------------

    Molecular point group: c1
  Charge       = 0
  Multiplicity = 1
  Basis Set: AUG-CC-PVTZ
    Blend: AUG-CC-PVTZ
  Basis Set: (AUG-CC-PVTZ AUX)
    Blend: AUG-CC-PVTZ-JKFIT

    Orbital Energies [Eh]
    ---------------------

    Doubly Occupied:

       1A    -20.640242     2A    -20.569686     3A    -20.546094
       4A    -11.410381     5A    -11.406281     6A    -11.256936
       7A    -11.254867     8A    -11.247477     9A    -11.225945
      10A    -11.214825    11A     -1.498686    12A     -1.395847
      13A     -1.316721    14A     -1.117194    15A     -1.062903
      16A     -0.998101    17A     -0.938995    18A     -0.887220
      19A     -0.797132    20A     -0.739411    21A     -0.706902
      22A     -0.699960    23A     -0.684562    24A     -0.649877
      25A     -0.632921    26A     -0.618627    27A     -0.601581
      28A     -0.577859    29A     -0.571887    30A     -0.559090
      31A     -0.552058    32A     -0.540352    33A     -0.518285
      34A     -0.497553    35A     -0.480754    36A     -0.478467
      37A     -0.466634    38A     -0.452461    39A     -0.439306

  @DF-RHF Final Energy:  -496.84055703875890

   => Energetics <=

    Nuclear Repulsion Energy =            555.3111594906588380
    One-Electron Energy =               -1779.7952776669219475
    Two-Electron Energy =                 727.6435611375042072
    Total Energy =                       -496.8405570387589023
  Basis Set: (AUG-CC-PVTZ AUX)
    Blend: AUG-CC-PVTZ-RI
    Molecular point group: c1

    Geometry (in Angstrom), charge = 0, multiplicity = 1:

       Center              X                  Y                   Z               Mass
    ------------   -----------------  -----------------  -----------------  -----------------
         O           -0.907877492623    -0.125410426832    -0.723995200369    15.994914619570
         O           -0.418303492623     1.966469573168     0.088933799631    15.994914619570
         O           -1.930880492623    -0.110376426832     1.330123799631    15.994914619570
         C            1.920193507377    -0.584888426832    -0.032335200369    12.000000000000
         C            1.358507507377     0.591523573168    -0.848006200369    12.000000000000
         C            1.824878507377    -0.302992426832     1.466601799631    12.000000000000
         C            3.359691507377    -0.867914426832    -0.455444200369    12.000000000000
         C           -0.036599492623     0.940234573168    -0.421029200369    12.000000000000
         C           -1.965509092623    -0.408618326832     0.055072099631    12.000000000000
         C           -3.064910492623    -1.092039426832    -0.580732200369    12.000000000000
         H            1.308851507377    -1.466195426832    -0.261793200369     1.007825032230
         H            1.974354507377     1.485765573168    -0.709076200369     1.007825032230
         H            1.348528507377     0.336448573168    -1.914402200369     1.007825032230
         H            2.383592507377     0.604295573168     1.722037799631     1.007825032230
         H            2.248741507377    -1.133181426832     2.039988799631     1.007825032230
         H            0.788590507377    -0.164869426832     1.789942799631     1.007825032230
         H            4.000440507377    -0.006861426832    -0.236803200369     1.007825032230
         H            3.759356507377    -1.730383426832     0.086583799631     1.007825032230
         H            3.427622507377    -1.079311426832    -1.527406200369     1.007825032230
         H           -3.487321492623    -0.419439426832    -1.331640200369     1.007825032230
         H           -3.834931492623    -1.393545426832     0.128271799631     1.007825032230
         H           -2.664486492623    -1.964266426832    -1.102387200369     1.007825032230

  Basis Set: AUG-CC-PVTZ
    Blend: AUG-CC-PVTZ
  Basis Set: (AUG-CC-PVTZ AUX)
    Blend: AUG-CC-PVTZ-JKFIT
	 Reference Energy          =    -496.8405570387589023 [Eh]
	 Singles Energy            =      -0.0000000000000000 [Eh]
	 Same-Spin Energy          =      -0.4971183519439372 [Eh]
	 Opposite-Spin Energy      =      -1.6024280267764697 [Eh]
	 Correlation Energy        =      -2.0995463787204067 [Eh]
	 Total Energy              =    -498.9401034174792926 [Eh]

	 ================> DF-SCS-MP2 Energies <==================
	-----------------------------------------------------------
	 SCS Same-Spin Scale       =       0.3333333333333333 [-]
	 SCS Opposite-Spin Scale   =       1.2000000000000000 [-]
	 SCS Same-Spin Energy      =      -0.1657061173146457 [Eh]
	 SCS Opposite-Spin Energy  =      -1.9229136321317635 [Eh]
	 SCS Correlation Energy    =      -2.0886197494464094 [Eh]
	 SCS Total Energy          =    -498.9291767882053250 [Eh]
	-----------------------------------------------------------

  Dipole Moment: [D]
     X:     1.0033      Y:    -2.4818      Z:    -3.1060     Total:     4.1003

*** Psi4 exiting successfully. Buy a developer a beer!
