                               Psi4 1.4a3.dev225

  ==> Input File <==

--------------------------------------------------------------------------
#psi4
#
memory 32 gb

molecule  {
0 1
  O       -0.9795470    -0.0831330    -0.7231310
  O       -0.4899730     2.0087470     0.0897980
  O       -2.0025500    -0.0680990     1.3309880
  C        1.8485240    -0.5426110    -0.0314710
  C        1.2868380     0.6338010    -0.8471420
  C        1.7532090    -0.2607150     1.4674660
  C        3.2880220    -0.8256370    -0.4545800
  C       -0.0617678     0.9708889    -0.4343968
  C       -2.0345350    -0.3435730     0.1532740
  C       -3.1365800    -1.0497620    -0.5798680
  H        1.2371820    -1.4239180    -0.2609290
  H        1.9026850     1.5280430    -0.7082120
  H        1.2768590     0.3787260    -1.9135380
  H        2.3119230     0.6465730     1.7229020
  H        2.1770720    -1.0909040     2.0408530
  H        0.7169210    -0.1225920     1.7908070
  H        3.9287710     0.0354160    -0.2359390
  H        3.6876870    -1.6881060     0.0874480
  H        3.3559530    -1.0370340    -1.5265420
  H       -3.5589910    -0.3771620    -1.3307760
  H       -3.9066010    -1.3512680     0.1291360
  H       -2.7361560    -1.9219890    -1.1015230
units angstrom
no_reorient  #important for SAPT in psi4, default
symmetry c1  #important for SAPT in psi4, default
}

set PROPERTIES_ORIGIN ["COM"]
properties('MP2/aug-cc-pvtz', properties = ['dipole'])
--------------------------------------------------------------------------

    Molecular point group: c1
  Charge       = 0
  Multiplicity = 1
  Basis Set: AUG-CC-PVTZ
    Blend: AUG-CC-PVTZ
  Basis Set: (AUG-CC-PVTZ AUX)
    Blend: AUG-CC-PVTZ-JKFIT

    Orbital Energies [Eh]
    ---------------------

    Doubly Occupied:

       1A    -20.623176     2A    -20.563109     3A    -20.561675
       4A    -11.403295     5A    -11.401964     6A    -11.253524
       7A    -11.252715     8A    -11.249635     9A    -11.227061
      10A    -11.217337    11A     -1.476429    12A     -1.394246
      13A     -1.350479    14A     -1.121981    15A     -1.041573
      16A     -1.002150    17A     -0.940929    18A     -0.865054
      19A     -0.799733    20A     -0.736304    21A     -0.698867
      22A     -0.697023    23A     -0.677226    24A     -0.652314
      25A     -0.628719    26A     -0.621361    27A     -0.591594
      28A     -0.588774    29A     -0.569413    30A     -0.556874
      31A     -0.552381    32A     -0.540936    33A     -0.521635
      34A     -0.495534    35A     -0.487644    36A     -0.481234
      37A     -0.471609    38A     -0.467468    39A     -0.442597

  @DF-RHF Final Energy:  -496.85589399336828

   => Energetics <=

    Nuclear Repulsion Energy =            555.3982912080388132
    One-Electron Energy =               -1780.0572242147459292
    Two-Electron Energy =                 727.8030390133390028
    Total Energy =                       -496.8558939933682268
  Basis Set: (AUG-CC-PVTZ AUX)
    Blend: AUG-CC-PVTZ-RI
    Molecular point group: c1

    Geometry (in Angstrom), charge = 0, multiplicity = 1:

       Center              X                  Y                   Z               Mass
    ------------   -----------------  -----------------  -----------------  -----------------
         O           -0.911970657180    -0.126338653223    -0.730916911809    15.994914619570
         O           -0.422396657180     1.965541346777     0.082012088191    15.994914619570
         O           -1.934973657180    -0.111304653223     1.323202088191    15.994914619570
         C            1.916100342820    -0.585816653223    -0.039256911809    12.000000000000
         C            1.354414342820     0.590595346777    -0.854927911809    12.000000000000
         C            1.820785342820    -0.303920653223     1.459680088191    12.000000000000
         C            3.355598342820    -0.868842653223    -0.462365911809    12.000000000000
         C            0.005808542820     0.927683246777    -0.442182711809    12.000000000000
         C           -1.966958657180    -0.386778653223     0.145488088191    12.000000000000
         C           -3.069003657180    -1.092967653223    -0.587653911809    12.000000000000
         H            1.304758342820    -1.467123653223    -0.268714911809     1.007825032230
         H            1.970261342820     1.484837346777    -0.715997911809     1.007825032230
         H            1.344435342820     0.335520346777    -1.921323911809     1.007825032230
         H            2.379499342820     0.603367346777     1.715116088191     1.007825032230
         H            2.244648342820    -1.134109653223     2.033067088191     1.007825032230
         H            0.784497342820    -0.165797653223     1.783021088191     1.007825032230
         H            3.996347342820    -0.007789653223    -0.243724911809     1.007825032230
         H            3.755263342820    -1.731311653223     0.079662088191     1.007825032230
         H            3.423529342820    -1.080239653223    -1.534327911809     1.007825032230
         H           -3.491414657180    -0.420367653223    -1.338561911809     1.007825032230
         H           -3.839024657180    -1.394473653223     0.121350088191     1.007825032230
         H           -2.668579657180    -1.965194653223    -1.109308911809     1.007825032230

  Basis Set: AUG-CC-PVTZ
    Blend: AUG-CC-PVTZ
  Basis Set: (AUG-CC-PVTZ AUX)
    Blend: AUG-CC-PVTZ-JKFIT
	 Reference Energy          =    -496.8558939933682836 [Eh]
	 Singles Energy            =      -0.0000000000000000 [Eh]
	 Same-Spin Energy          =      -0.4960235672946184 [Eh]
	 Opposite-Spin Energy      =      -1.6004065485613381 [Eh]
	 Correlation Energy        =      -2.0964301158559566 [Eh]
	 Total Energy              =    -498.9523241092242642 [Eh]

	 ================> DF-SCS-MP2 Energies <==================
	-----------------------------------------------------------
	 SCS Same-Spin Scale       =       0.3333333333333333 [-]
	 SCS Opposite-Spin Scale   =       1.2000000000000000 [-]
	 SCS Same-Spin Energy      =      -0.1653411890982061 [Eh]
	 SCS Opposite-Spin Energy  =      -1.9204878582736056 [Eh]
	 SCS Correlation Energy    =      -2.0858290473718117 [Eh]
	 SCS Total Energy          =    -498.9417230407401007 [Eh]
	-----------------------------------------------------------

  Dipole Moment: [D]
     X:     1.1090      Y:    -2.5592      Z:    -2.5986     Total:     3.8121

*** Psi4 exiting successfully. Buy a developer a beer!
