                               Psi4 1.4a3.dev225

  ==> Input File <==

--------------------------------------------------------------------------
#psi4
#
memory 32 gb

molecule  {
0 1
  O       -0.9795470    -0.0831330    -0.7231310
  O       -0.4899730     2.0087470     0.0897980
  O       -2.0025500    -0.0680990     1.3309880
  C        1.8496623    -0.5632391    -0.0146390
  C        1.2868380     0.6338010    -0.8471420
  C        1.7532090    -0.2607150     1.4674660
  C        3.2880220    -0.8256370    -0.4545800
  C       -0.1082690     0.9825120    -0.4201650
  C       -2.0345350    -0.3435730     0.1532740
  C       -3.1365800    -1.0497620    -0.5798680
  H        1.2371820    -1.4239180    -0.2609290
  H        1.9026850     1.5280430    -0.7082120
  H        1.2768590     0.3787260    -1.9135380
  H        2.3119230     0.6465730     1.7229020
  H        2.1770720    -1.0909040     2.0408530
  H        0.7169210    -0.1225920     1.7908070
  H        3.9287710     0.0354160    -0.2359390
  H        3.6876870    -1.6881060     0.0874480
  H        3.3559530    -1.0370340    -1.5265420
  H       -3.5589910    -0.3771620    -1.3307760
  H       -3.9066010    -1.3512680     0.1291360
  H       -2.7361560    -1.9219890    -1.1015230
units angstrom
no_reorient  #important for SAPT in psi4, default
symmetry c1  #important for SAPT in psi4, default
}

set PROPERTIES_ORIGIN ["COM"]
properties('MP2/aug-cc-pvtz', properties = ['dipole'])
--------------------------------------------------------------------------

    Molecular point group: c1
  Charge       = 0
  Multiplicity = 1
  Basis Set: AUG-CC-PVTZ
    Blend: AUG-CC-PVTZ
  Basis Set: (AUG-CC-PVTZ AUX)
    Blend: AUG-CC-PVTZ-JKFIT

    Orbital Energies [Eh]
    ---------------------

    Doubly Occupied:

       1A    -20.626361     2A    -20.564641     3A    -20.563865
       4A    -11.403914     5A    -11.397771     6A    -11.254802
       7A    -11.250631     8A    -11.246011     9A    -11.224754
      10A    -11.215405    11A     -1.485164    12A     -1.404744
      13A     -1.363129    14A     -1.111758    15A     -1.042941
      16A     -0.991007    17A     -0.939970    18A     -0.866871
      19A     -0.795724    20A     -0.739131    21A     -0.701539
      22A     -0.697537    23A     -0.682591    24A     -0.647910
      25A     -0.628474    26A     -0.620920    27A     -0.594519
      28A     -0.589970    29A     -0.570384    30A     -0.555250
      31A     -0.552370    32A     -0.539643    33A     -0.526954
      34A     -0.495602    35A     -0.487501    36A     -0.481856
      37A     -0.474550    38A     -0.469769    39A     -0.438128

  @DF-RHF Final Energy:  -496.86346006091128

   => Energetics <=

    Nuclear Repulsion Energy =            555.4666070288035371
    One-Electron Energy =               -1780.1720122631775212
    Two-Electron Energy =                 727.8419451734627046
    Total Energy =                       -496.8634600609112795
  Basis Set: (AUG-CC-PVTZ AUX)
    Blend: AUG-CC-PVTZ-RI
    Molecular point group: c1

    Geometry (in Angstrom), charge = 0, multiplicity = 1:

       Center              X                  Y                   Z               Mass
    ------------   -----------------  -----------------  -----------------  -----------------
         O           -0.908192478930    -0.125588646166    -0.733504148813    15.994914619570
         O           -0.418618478930     1.966291353834     0.079424851187    15.994914619570
         O           -1.931195478930    -0.110554646166     1.320614851187    15.994914619570
         C            1.921016821070    -0.605694746166    -0.025012148813    12.000000000000
         C            1.358192521070     0.591345353834    -0.857515148813    12.000000000000
         C            1.824563521070    -0.303170646166     1.457092851187    12.000000000000
         C            3.359376521070    -0.868092646166    -0.464953148813    12.000000000000
         C           -0.036914478930     0.940056353834    -0.430538148813    12.000000000000
         C           -1.963180478930    -0.386028646166     0.142900851187    12.000000000000
         C           -3.065225478930    -1.092217646166    -0.590241148813    12.000000000000
         H            1.308536521070    -1.466373646166    -0.271302148813     1.007825032230
         H            1.974039521070     1.485587353834    -0.718585148813     1.007825032230
         H            1.348213521070     0.336270353834    -1.923911148813     1.007825032230
         H            2.383277521070     0.604117353834     1.712528851187     1.007825032230
         H            2.248426521070    -1.133359646166     2.030479851187     1.007825032230
         H            0.788275521070    -0.165047646166     1.780433851187     1.007825032230
         H            4.000125521070    -0.007039646166    -0.246312148813     1.007825032230
         H            3.759041521070    -1.730561646166     0.077074851187     1.007825032230
         H            3.427307521070    -1.079489646166    -1.536915148813     1.007825032230
         H           -3.487636478930    -0.419617646166    -1.341149148813     1.007825032230
         H           -3.835246478930    -1.393723646166     0.118762851187     1.007825032230
         H           -2.664801478930    -1.964444646166    -1.111896148813     1.007825032230

  Basis Set: AUG-CC-PVTZ
    Blend: AUG-CC-PVTZ
  Basis Set: (AUG-CC-PVTZ AUX)
    Blend: AUG-CC-PVTZ-JKFIT
	 Reference Energy          =    -496.8634600609112795 [Eh]
	 Singles Energy            =      -0.0000000000000000 [Eh]
	 Same-Spin Energy          =      -0.4945789217999403 [Eh]
	 Opposite-Spin Energy      =      -1.5977522326581990 [Eh]
	 Correlation Energy        =      -2.0923311544581393 [Eh]
	 Total Energy              =    -498.9557912153694019 [Eh]

	 ================> DF-SCS-MP2 Energies <==================
	-----------------------------------------------------------
	 SCS Same-Spin Scale       =       0.3333333333333333 [-]
	 SCS Opposite-Spin Scale   =       1.2000000000000000 [-]
	 SCS Same-Spin Energy      =      -0.1648596405999801 [Eh]
	 SCS Opposite-Spin Energy  =      -1.9173026791898387 [Eh]
	 SCS Correlation Energy    =      -2.0821623197898189 [Eh]
	 SCS Total Energy          =    -498.9456223807010815 [Eh]
	-----------------------------------------------------------

  Dipole Moment: [D]
     X:     0.8096      Y:    -2.5138      Z:    -2.5299     Total:     3.6572

*** Psi4 exiting successfully. Buy a developer a beer!
