                               Psi4 1.4a3.dev225

  ==> Input File <==

--------------------------------------------------------------------------
#psi4
#
memory 32 gb

molecule  {
0 1
  O       -0.9795470    -0.0831330    -0.7231310
  O       -0.4899730     2.0087470     0.0897980
  O       -2.0025500    -0.0680990     1.3309880
  C        1.8485240    -0.5426110    -0.0314710
  C        1.2868380     0.6338010    -0.8471420
  C        1.7532090    -0.2607150     1.4674660
  C        3.2880220    -0.8256370    -0.4545800
  C       -0.1082690     0.9825120    -0.4201650
  C       -2.0318914    -0.3208051     0.2506117
  C       -3.1365800    -1.0497620    -0.5798680
  H        1.2371820    -1.4239180    -0.2609290
  H        1.9026850     1.5280430    -0.7082120
  H        1.2768590     0.3787260    -1.9135380
  H        2.3119230     0.6465730     1.7229020
  H        2.1770720    -1.0909040     2.0408530
  H        0.7169210    -0.1225920     1.7908070
  H        3.9287710     0.0354160    -0.2359390
  H        3.6876870    -1.6881060     0.0874480
  H        3.3559530    -1.0370340    -1.5265420
  H       -3.5589910    -0.3771620    -1.3307760
  H       -3.9066010    -1.3512680     0.1291360
  H       -2.7361560    -1.9219890    -1.1015230
units angstrom
no_reorient  #important for SAPT in psi4, default
symmetry c1  #important for SAPT in psi4, default
}

set PROPERTIES_ORIGIN ["COM"]
properties('MP2/aug-cc-pvtz', properties = ['dipole'])
--------------------------------------------------------------------------

    Molecular point group: c1
  Charge       = 0
  Multiplicity = 1
  Basis Set: AUG-CC-PVTZ
    Blend: AUG-CC-PVTZ
  Basis Set: (AUG-CC-PVTZ AUX)
    Blend: AUG-CC-PVTZ-JKFIT

    Orbital Energies [Eh]
    ---------------------

    Doubly Occupied:

       1A    -20.610416     2A    -20.582902     3A    -20.558952
       4A    -11.395692     5A    -11.390085     6A    -11.253018
       7A    -11.245885     8A    -11.243681     9A    -11.223090
      10A    -11.216233    11A     -1.510032    12A     -1.437238
      13A     -1.360713    14A     -1.110076    15A     -1.023264
      16A     -0.984498    17A     -0.938164    18A     -0.849291
      19A     -0.791541    20A     -0.747108    21A     -0.712269
      22A     -0.695984    23A     -0.685267    24A     -0.648046
      25A     -0.634275    26A     -0.629725    27A     -0.599071
      28A     -0.581223    29A     -0.565717    30A     -0.557126
      31A     -0.551777    32A     -0.546983    33A     -0.538536
      34A     -0.494266    35A     -0.491895    36A     -0.478216
      37A     -0.473296    38A     -0.469810    39A     -0.432196

  @DF-RHF Final Energy:  -496.85268210645154

   => Energetics <=

    Nuclear Repulsion Energy =            556.2291919026727101
    One-Electron Energy =               -1781.6486334467701909
    Two-Electron Energy =                 728.5667594376459419
    Total Energy =                       -496.8526821064515389
  Basis Set: (AUG-CC-PVTZ AUX)
    Blend: AUG-CC-PVTZ-RI
    Molecular point group: c1

    Geometry (in Angstrom), charge = 0, multiplicity = 1:

       Center              X                  Y                   Z               Mass
    ------------   -----------------  -----------------  -----------------  -----------------
         O           -0.908317852125    -0.129203005551    -0.740209295194    15.994914619570
         O           -0.418743852125     1.962676994449     0.072719704806    15.994914619570
         O           -1.931320852125    -0.114169005551     1.313909704806    15.994914619570
         C            1.919753147875    -0.588681005551    -0.048549295194    12.000000000000
         C            1.358067147875     0.587730994449    -0.864220295194    12.000000000000
         C            1.824438147875    -0.306785005551     1.450387704806    12.000000000000
         C            3.359251147875    -0.871707005551    -0.471658295194    12.000000000000
         C           -0.037039852125     0.936441994449    -0.437243295194    12.000000000000
         C           -1.960662252125    -0.366875105551     0.233533404806    12.000000000000
         C           -3.065350852125    -1.095832005551    -0.596946295194    12.000000000000
         H            1.308411147875    -1.469988005551    -0.278007295194     1.007825032230
         H            1.973914147875     1.481972994449    -0.725290295194     1.007825032230
         H            1.348088147875     0.332655994449    -1.930616295194     1.007825032230
         H            2.383152147875     0.600502994449     1.705823704806     1.007825032230
         H            2.248301147875    -1.136974005551     2.023774704806     1.007825032230
         H            0.788150147875    -0.168662005551     1.773728704806     1.007825032230
         H            4.000000147875    -0.010654005551    -0.253017295194     1.007825032230
         H            3.758916147875    -1.734176005551     0.070369704806     1.007825032230
         H            3.427182147875    -1.083104005551    -1.543620295194     1.007825032230
         H           -3.487761852125    -0.423232005551    -1.347854295194     1.007825032230
         H           -3.835371852125    -1.397338005551     0.112057704806     1.007825032230
         H           -2.664926852125    -1.968059005551    -1.118601295194     1.007825032230

  Basis Set: AUG-CC-PVTZ
    Blend: AUG-CC-PVTZ
  Basis Set: (AUG-CC-PVTZ AUX)
    Blend: AUG-CC-PVTZ-JKFIT
	 Reference Energy          =    -496.8526821064515389 [Eh]
	 Singles Energy            =      -0.0000000000000000 [Eh]
	 Same-Spin Energy          =      -0.4927032572093707 [Eh]
	 Opposite-Spin Energy      =      -1.5940729912053668 [Eh]
	 Correlation Energy        =      -2.0867762484147376 [Eh]
	 Total Energy              =    -498.9394583548663036 [Eh]

	 ================> DF-SCS-MP2 Energies <==================
	-----------------------------------------------------------
	 SCS Same-Spin Scale       =       0.3333333333333333 [-]
	 SCS Opposite-Spin Scale   =       1.2000000000000000 [-]
	 SCS Same-Spin Energy      =      -0.1642344190697902 [Eh]
	 SCS Opposite-Spin Energy  =      -1.9128875894464401 [Eh]
	 SCS Correlation Energy    =      -2.0771220085162305 [Eh]
	 SCS Total Energy          =    -498.9298041149677942 [Eh]
	-----------------------------------------------------------

  Dipole Moment: [D]
     X:     0.5362      Y:    -2.5098      Z:    -1.8785     Total:     3.1805

*** Psi4 exiting successfully. Buy a developer a beer!
