                               Psi4 1.4a3.dev225

  ==> Input File <==

--------------------------------------------------------------------------
#psi4
#
memory 32 gb

molecule  {
0 1
  O       -0.9795470    -0.0831330    -0.7231310
  O       -0.4899730     2.0087470     0.0897980
  O       -2.0025500    -0.0680990     1.3309880
  C        1.8485240    -0.5426110    -0.0314710
  C        1.2868380     0.6338010    -0.8471420
  C        1.7532090    -0.2607150     1.4674660
  C        3.2880220    -0.8256370    -0.4545800
  C       -0.1082690     0.9825120    -0.4201650
  C       -2.0345350    -0.3435730     0.1532740
  C       -3.1365800    -1.0497620    -0.5798680
  H        1.2371820    -1.4239180    -0.2609290
  H        1.9026850     1.5280430    -0.7082120
  H        1.2759489     0.3554638    -2.0107905
  H        2.3119230     0.6465730     1.7229020
  H        2.1770720    -1.0909040     2.0408530
  H        0.7169210    -0.1225920     1.7908070
  H        3.9287710     0.0354160    -0.2359390
  H        3.6876870    -1.6881060     0.0874480
  H        3.3559530    -1.0370340    -1.5265420
  H       -3.5589910    -0.3771620    -1.3307760
  H       -3.9066010    -1.3512680     0.1291360
  H       -2.7361560    -1.9219890    -1.1015230
units angstrom
no_reorient  #important for SAPT in psi4, default
symmetry c1  #important for SAPT in psi4, default
}

set PROPERTIES_ORIGIN ["COM"]
properties('MP2/aug-cc-pvtz', properties = ['dipole'])
--------------------------------------------------------------------------

    Molecular point group: c1
  Charge       = 0
  Multiplicity = 1
  Basis Set: AUG-CC-PVTZ
    Blend: AUG-CC-PVTZ
  Basis Set: (AUG-CC-PVTZ AUX)
    Blend: AUG-CC-PVTZ-JKFIT

    Orbital Energies [Eh]
    ---------------------

    Doubly Occupied:

       1A    -20.626643     2A    -20.565304     3A    -20.564792
       4A    -11.404047     5A    -11.399447     6A    -11.261859
       7A    -11.254868     8A    -11.246570     9A    -11.224615
      10A    -11.216440    11A     -1.485594    12A     -1.405487
      13A     -1.363672    14A     -1.112095    15A     -1.042833
      16A     -0.987875    17A     -0.938758    18A     -0.866975
      19A     -0.794762    20A     -0.738475    21A     -0.702213
      22A     -0.695424    23A     -0.682908    24A     -0.642829
      25A     -0.626429    26A     -0.621122    27A     -0.594116
      28A     -0.590130    29A     -0.568358    30A     -0.555823
      31A     -0.549230    32A     -0.538523    33A     -0.527434
      34A     -0.495761    35A     -0.487495    36A     -0.479215
      37A     -0.471821    38A     -0.470624    39A     -0.439965

  @DF-RHF Final Energy:  -496.85727347061805

   => Energetics <=

    Nuclear Repulsion Energy =            555.1484226034964422
    One-Electron Energy =               -1779.5303220129003421
    Two-Electron Energy =                 727.5246259387860164
    Total Energy =                       -496.8572734706179972
  Basis Set: (AUG-CC-PVTZ AUX)
    Blend: AUG-CC-PVTZ-RI
    Molecular point group: c1

    Geometry (in Angstrom), charge = 0, multiplicity = 1:

       Center              X                  Y                   Z               Mass
    ------------   -----------------  -----------------  -----------------  -----------------
         O           -0.908091306257    -0.127143997923    -0.731421969976    15.994914619570
         O           -0.418517306257     1.964736002077     0.081507030024    15.994914619570
         O           -1.931094306257    -0.112109997923     1.322697030024    15.994914619570
         C            1.919979693743    -0.586621997923    -0.039761969976    12.000000000000
         C            1.358293693743     0.589790002077    -0.855432969976    12.000000000000
         C            1.824664693743    -0.304725997923     1.459175030024    12.000000000000
         C            3.359477693743    -0.869647997923    -0.462870969976    12.000000000000
         C           -0.036813306257     0.938501002077    -0.428455969976    12.000000000000
         C           -1.963079306257    -0.387583997923     0.144983030024    12.000000000000
         C           -3.065124306257    -1.093772997923    -0.588158969976    12.000000000000
         H            1.308637693743    -1.467928997923    -0.269219969976     1.007825032230
         H            1.974140693743     1.484032002077    -0.716502969976     1.007825032230
         H            1.347404593743     0.311452802077    -2.019081469976     1.007825032230
         H            2.383378693743     0.602562002077     1.714611030024     1.007825032230
         H            2.248527693743    -1.134914997923     2.032562030024     1.007825032230
         H            0.788376693743    -0.166602997923     1.782516030024     1.007825032230
         H            4.000226693743    -0.008594997923    -0.244229969976     1.007825032230
         H            3.759142693743    -1.732116997923     0.079157030024     1.007825032230
         H            3.427408693743    -1.081044997923    -1.534832969976     1.007825032230
         H           -3.487535306257    -0.421172997923    -1.339066969976     1.007825032230
         H           -3.835145306257    -1.395278997923     0.120845030024     1.007825032230
         H           -2.664700306257    -1.965999997923    -1.109813969976     1.007825032230

  Basis Set: AUG-CC-PVTZ
    Blend: AUG-CC-PVTZ
  Basis Set: (AUG-CC-PVTZ AUX)
    Blend: AUG-CC-PVTZ-JKFIT
	 Reference Energy          =    -496.8572734706180540 [Eh]
	 Singles Energy            =      -0.0000000000000000 [Eh]
	 Same-Spin Energy          =      -0.4947259620107101 [Eh]
	 Opposite-Spin Energy      =      -1.5986406047820763 [Eh]
	 Correlation Energy        =      -2.0933665667927865 [Eh]
	 Total Energy              =    -498.9506400374108352 [Eh]

	 ================> DF-SCS-MP2 Energies <==================
	-----------------------------------------------------------
	 SCS Same-Spin Scale       =       0.3333333333333333 [-]
	 SCS Opposite-Spin Scale   =       1.2000000000000000 [-]
	 SCS Same-Spin Energy      =      -0.1649086540035700 [Eh]
	 SCS Opposite-Spin Energy  =      -1.9183687257384914 [Eh]
	 SCS Correlation Energy    =      -2.0832773797420612 [Eh]
	 SCS Total Energy          =    -498.9405508503601254 [Eh]
	-----------------------------------------------------------

  Dipole Moment: [D]
     X:     0.7865      Y:    -2.5001      Z:    -2.4979     Total:     3.6206

*** Psi4 exiting successfully. Buy a developer a beer!
