                               Psi4 1.4a3.dev225

  ==> Input File <==

--------------------------------------------------------------------------
#psi4
#
memory 32 gb

molecule  {
0 1
  O       -0.9795470    -0.0831330    -0.7231310
  O       -0.4899730     2.0087470     0.0897980
  O       -2.0025500    -0.0680990     1.3309880
  C        1.8485240    -0.5426110    -0.0314710
  C        1.2868380     0.6338010    -0.8471420
  C        1.7532090    -0.2607150     1.4674660
  C        3.3351614    -0.8349053    -0.4684356
  C       -0.1082690     0.9825120    -0.4201650
  C       -2.0345350    -0.3435730     0.1532740
  C       -3.1365800    -1.0497620    -0.5798680
  H        1.2371820    -1.4239180    -0.2609290
  H        1.9026850     1.5280430    -0.7082120
  H        1.2768590     0.3787260    -1.9135380
  H        2.3119230     0.6465730     1.7229020
  H        2.1770720    -1.0909040     2.0408530
  H        0.7169210    -0.1225920     1.7908070
  H        3.9287710     0.0354160    -0.2359390
  H        3.6876870    -1.6881060     0.0874480
  H        3.3559530    -1.0370340    -1.5265420
  H       -3.5589910    -0.3771620    -1.3307760
  H       -3.9066010    -1.3512680     0.1291360
  H       -2.7361560    -1.9219890    -1.1015230
units angstrom
no_reorient  #important for SAPT in psi4, default
symmetry c1  #important for SAPT in psi4, default
}

set PROPERTIES_ORIGIN ["COM"]
properties('MP2/aug-cc-pvtz', properties = ['dipole'])
--------------------------------------------------------------------------

    Molecular point group: c1
  Charge       = 0
  Multiplicity = 1
  Basis Set: AUG-CC-PVTZ
    Blend: AUG-CC-PVTZ
  Basis Set: (AUG-CC-PVTZ AUX)
    Blend: AUG-CC-PVTZ-JKFIT

    Orbital Energies [Eh]
    ---------------------

    Doubly Occupied:

       1A    -20.626571     2A    -20.564696     3A    -20.564483
       4A    -11.403992     5A    -11.398418     6A    -11.254837
       7A    -11.250484     8A    -11.247665     9A    -11.222777
      10A    -11.215436    11A     -1.485404    12A     -1.405043
      13A     -1.363382    14A     -1.109080    15A     -1.042216
      16A     -0.989546    17A     -0.939411    18A     -0.868418
      19A     -0.794429    20A     -0.739233    21A     -0.701793
      22A     -0.698060    23A     -0.682393    24A     -0.647349
      25A     -0.628833    26A     -0.619789    27A     -0.595115
      28A     -0.590135    29A     -0.570020    30A     -0.557044
      31A     -0.553078    32A     -0.544742    33A     -0.527504
      34A     -0.491337    35A     -0.487197    36A     -0.480780
      37A     -0.473128    38A     -0.470593    39A     -0.437497

  @DF-RHF Final Energy:  -496.86228578074628

   => Energetics <=

    Nuclear Repulsion Energy =            554.7749346667732198
    One-Electron Energy =               -1778.7906288221138311
    Two-Electron Energy =                 727.1534083745941643
    Total Energy =                       -496.8622857807463333
  Basis Set: (AUG-CC-PVTZ AUX)
    Blend: AUG-CC-PVTZ-RI
    Molecular point group: c1

    Geometry (in Angstrom), charge = 0, multiplicity = 1:

       Center              X                  Y                   Z               Mass
    ------------   -----------------  -----------------  -----------------  -----------------
         O           -0.912023811484    -0.126534779444    -0.730948244696    15.994914619570
         O           -0.422449811484     1.965345220556     0.081980755304    15.994914619570
         O           -1.935026811484    -0.111500779444     1.323170755304    15.994914619570
         C            1.916047188516    -0.586012779444    -0.039288244696    12.000000000000
         C            1.354361188516     0.590399220556    -0.854959244696    12.000000000000
         C            1.820732188516    -0.304116779444     1.459648755304    12.000000000000
         C            3.402684588516    -0.878307079444    -0.476252844696    12.000000000000
         C           -0.040745811484     0.939110220556    -0.427982244696    12.000000000000
         C           -1.967011811484    -0.386974779444     0.145456755304    12.000000000000
         C           -3.069056811484    -1.093163779444    -0.587685244696    12.000000000000
         H            1.304705188516    -1.467319779444    -0.268746244696     1.007825032230
         H            1.970208188516     1.484641220556    -0.716029244696     1.007825032230
         H            1.344382188516     0.335324220556    -1.921355244696     1.007825032230
         H            2.379446188516     0.603171220556     1.715084755304     1.007825032230
         H            2.244595188516    -1.134305779444     2.033035755304     1.007825032230
         H            0.784444188516    -0.165993779444     1.782989755304     1.007825032230
         H            3.996294188516    -0.007985779444    -0.243756244696     1.007825032230
         H            3.755210188516    -1.731507779444     0.079630755304     1.007825032230
         H            3.423476188516    -1.080435779444    -1.534359244696     1.007825032230
         H           -3.491467811484    -0.420563779444    -1.338593244696     1.007825032230
         H           -3.839077811484    -1.394669779444     0.121318755304     1.007825032230
         H           -2.668632811484    -1.965390779444    -1.109340244696     1.007825032230

  Basis Set: AUG-CC-PVTZ
    Blend: AUG-CC-PVTZ
  Basis Set: (AUG-CC-PVTZ AUX)
    Blend: AUG-CC-PVTZ-JKFIT
	 Reference Energy          =    -496.8622857807462765 [Eh]
	 Singles Energy            =      -0.0000000000000000 [Eh]
	 Same-Spin Energy          =      -0.4943634293245248 [Eh]
	 Opposite-Spin Energy      =      -1.5976849516762375 [Eh]
	 Correlation Energy        =      -2.0920483810007622 [Eh]
	 Total Energy              =    -498.9543341617470560 [Eh]

	 ================> DF-SCS-MP2 Energies <==================
	-----------------------------------------------------------
	 SCS Same-Spin Scale       =       0.3333333333333333 [-]
	 SCS Opposite-Spin Scale   =       1.2000000000000000 [-]
	 SCS Same-Spin Energy      =      -0.1647878097748416 [Eh]
	 SCS Opposite-Spin Energy  =      -1.9172219420114849 [Eh]
	 SCS Correlation Energy    =      -2.0820097517863263 [Eh]
	 SCS Total Energy          =    -498.9442955325325784 [Eh]
	-----------------------------------------------------------

  Dipole Moment: [D]
     X:     0.7830      Y:    -2.4946      Z:    -2.5391     Total:     3.6446

*** Psi4 exiting successfully. Buy a developer a beer!
