                               Psi4 1.4a3.dev225

  ==> Input File <==

--------------------------------------------------------------------------
#psi4
#
memory 32 gb

molecule  {
0 1
  O       -0.9795470    -0.0831330    -0.7231310
  O       -0.4899730     2.0087470     0.0897980
  O       -2.0025500    -0.0680990     1.3309880
  C        1.8485240    -0.5426110    -0.0314710
  C        1.2868380     0.6338010    -0.8471420
  C        1.7532090    -0.2607150     1.4674660
  C        3.2880220    -0.8256370    -0.4545800
  C       -0.1268695     0.9871612    -0.4144723
  C       -2.0345350    -0.3435730     0.1532740
  C       -3.1365800    -1.0497620    -0.5798680
  H        1.2371820    -1.4239180    -0.2609290
  H        1.9026850     1.5280430    -0.7082120
  H        1.2768590     0.3787260    -1.9135380
  H        2.3119230     0.6465730     1.7229020
  H        2.1770720    -1.0909040     2.0408530
  H        0.7169210    -0.1225920     1.7908070
  H        3.9287710     0.0354160    -0.2359390
  H        3.6876870    -1.6881060     0.0874480
  H        3.3559530    -1.0370340    -1.5265420
  H       -3.5589910    -0.3771620    -1.3307760
  H       -3.9066010    -1.3512680     0.1291360
  H       -2.7361560    -1.9219890    -1.1015230
units angstrom
no_reorient  #important for SAPT in psi4, default
symmetry c1  #important for SAPT in psi4, default
}

set PROPERTIES_ORIGIN ["COM"]
properties('MP2/aug-cc-pvtz', properties = ['dipole'])
--------------------------------------------------------------------------

    Molecular point group: c1
  Charge       = 0
  Multiplicity = 1
  Basis Set: AUG-CC-PVTZ
    Blend: AUG-CC-PVTZ
  Basis Set: (AUG-CC-PVTZ AUX)
    Blend: AUG-CC-PVTZ-JKFIT

    Orbital Energies [Eh]
    ---------------------

    Doubly Occupied:

       1A    -20.628078     2A    -20.566018     3A    -20.565202
       4A    -11.404906     5A    -11.396707     6A    -11.255438
       7A    -11.249582     8A    -11.244244     9A    -11.223674
      10A    -11.214865    11A     -1.489264    12A     -1.410185
      13A     -1.367959    14A     -1.110673    15A     -1.043547
      16A     -0.986787    17A     -0.937769    18A     -0.869296
      19A     -0.792660    20A     -0.740955    21A     -0.703428
      22A     -0.699222    23A     -0.685195    24A     -0.647105
      25A     -0.629367    26A     -0.620824    27A     -0.595414
      28A     -0.590518    29A     -0.570726    30A     -0.554818
      31A     -0.551153    32A     -0.539446    33A     -0.529763
      34A     -0.496053    35A     -0.487450    36A     -0.479186
      37A     -0.474385    38A     -0.471792    39A     -0.437641

  @DF-RHF Final Energy:  -496.86511370197326

   => Energetics <=

    Nuclear Repulsion Energy =            555.7525766591737693
    One-Electron Energy =               -1780.7127916741885656
    Two-Electron Energy =                 728.0951013130415959
    Total Energy =                       -496.8651137019733142
  Basis Set: (AUG-CC-PVTZ AUX)
    Blend: AUG-CC-PVTZ-RI
    Molecular point group: c1

    Geometry (in Angstrom), charge = 0, multiplicity = 1:

       Center              X                  Y                   Z               Mass
    ------------   -----------------  -----------------  -----------------  -----------------
         O           -0.906548476786    -0.127693938047    -0.732576380505    15.994914619570
         O           -0.416974476786     1.964186061953     0.080352619495    15.994914619570
         O           -1.929551476786    -0.112659938047     1.321542619495    15.994914619570
         C            1.921522523214    -0.587171938047    -0.040916380505    12.000000000000
         C            1.359836523214     0.589240061953    -0.856587380505    12.000000000000
         C            1.826207523214    -0.305275938047     1.458020619495    12.000000000000
         C            3.361020523214    -0.870197938047    -0.464025380505    12.000000000000
         C           -0.053870976786     0.942600261953    -0.423917680505    12.000000000000
         C           -1.961536476786    -0.388133938047     0.143828619495    12.000000000000
         C           -3.063581476786    -1.094322938047    -0.589313380505    12.000000000000
         H            1.310180523214    -1.468478938047    -0.270374380505     1.007825032230
         H            1.975683523214     1.483482061953    -0.717657380505     1.007825032230
         H            1.349857523214     0.334165061953    -1.922983380505     1.007825032230
         H            2.384921523214     0.602012061953     1.713456619495     1.007825032230
         H            2.250070523214    -1.135464938047     2.031407619495     1.007825032230
         H            0.789919523214    -0.167152938047     1.781361619495     1.007825032230
         H            4.001769523214    -0.009144938047    -0.245384380505     1.007825032230
         H            3.760685523214    -1.732666938047     0.078002619495     1.007825032230
         H            3.428951523214    -1.081594938047    -1.535987380505     1.007825032230
         H           -3.485992476786    -0.421722938047    -1.340221380505     1.007825032230
         H           -3.833602476786    -1.395828938047     0.119690619495     1.007825032230
         H           -2.663157476786    -1.966549938047    -1.110968380505     1.007825032230

  Basis Set: AUG-CC-PVTZ
    Blend: AUG-CC-PVTZ
  Basis Set: (AUG-CC-PVTZ AUX)
    Blend: AUG-CC-PVTZ-JKFIT
	 Reference Energy          =    -496.8651137019732573 [Eh]
	 Singles Energy            =      -0.0000000000000000 [Eh]
	 Same-Spin Energy          =      -0.4941389018395804 [Eh]
	 Opposite-Spin Energy      =      -1.5969467662117796 [Eh]
	 Correlation Energy        =      -2.0910856680513601 [Eh]
	 Total Energy              =    -498.9561993700245921 [Eh]

	 ================> DF-SCS-MP2 Energies <==================
	-----------------------------------------------------------
	 SCS Same-Spin Scale       =       0.3333333333333333 [-]
	 SCS Opposite-Spin Scale   =       1.2000000000000000 [-]
	 SCS Same-Spin Energy      =      -0.1647129672798601 [Eh]
	 SCS Opposite-Spin Energy  =      -1.9163361194541353 [Eh]
	 SCS Correlation Energy    =      -2.0810490867339952 [Eh]
	 SCS Total Energy          =    -498.9461627887072268 [Eh]
	-----------------------------------------------------------

  Dipole Moment: [D]
     X:     0.6562      Y:    -2.4700      Z:    -2.5166     Total:     3.5867

*** Psi4 exiting successfully. Buy a developer a beer!
