                               Psi4 1.4a3.dev225

  ==> Input File <==

--------------------------------------------------------------------------
#psi4
#
memory 32 gb

molecule  {
0 1
  O       -0.9795470    -0.0831330    -0.7231310
  O       -0.4899730     2.0087470     0.0897980
  O       -2.0025500    -0.0680990     1.3309880
  C        1.8485240    -0.5426110    -0.0314710
  C        1.2868380     0.6338010    -0.8471420
  C        1.7532090    -0.2607150     1.4674660
  C        3.2880220    -0.8256370    -0.4545800
  C       -0.1082690     0.9825120    -0.4201650
  C       -2.0345350    -0.3435730     0.1532740
  C       -3.1365800    -1.0497620    -0.5798680
  H        1.2371820    -1.4239180    -0.2609290
  H        1.9026850     1.5280430    -0.7082120
  H        1.2768590     0.3787260    -1.9135380
  H        2.3119230     0.6465730     1.7229020
  H        2.1770720    -1.0909040     2.0408530
  H        0.7169210    -0.1225920     1.7908070
  H        3.9287710     0.0354160    -0.2359390
  H        3.7607353    -1.8457428     0.1865166
  H        3.3559530    -1.0370340    -1.5265420
  H       -3.5589910    -0.3771620    -1.3307760
  H       -3.9066010    -1.3512680     0.1291360
  H       -2.7361560    -1.9219890    -1.1015230
units angstrom
no_reorient  #important for SAPT in psi4, default
symmetry c1  #important for SAPT in psi4, default
}

set PROPERTIES_ORIGIN ["COM"]
properties('MP2/aug-cc-pvtz', properties = ['dipole'])
--------------------------------------------------------------------------

    Molecular point group: c1
  Charge       = 0
  Multiplicity = 1
  Basis Set: AUG-CC-PVTZ
    Blend: AUG-CC-PVTZ
  Basis Set: (AUG-CC-PVTZ AUX)
    Blend: AUG-CC-PVTZ-JKFIT

    Orbital Energies [Eh]
    ---------------------

    Doubly Occupied:

       1A    -20.627655     2A    -20.565925     3A    -20.565411
       4A    -11.404723     5A    -11.400112     6A    -11.255367
       7A    -11.252981     8A    -11.248304     9A    -11.247610
      10A    -11.215754    11A     -1.486474    12A     -1.406091
      13A     -1.364426    14A     -1.114325    15A     -1.043140
      16A     -0.989387    17A     -0.932802    18A     -0.867393
      19A     -0.792055    20A     -0.740342    21A     -0.702506
      22A     -0.698609    23A     -0.683748    24A     -0.648954
      25A     -0.629280    26A     -0.620850    27A     -0.593353
      28A     -0.589472    29A     -0.570463    30A     -0.556127
      31A     -0.553099    32A     -0.528194    33A     -0.515677
      34A     -0.497568    35A     -0.486707    36A     -0.479469
      37A     -0.474946    38A     -0.467815    39A     -0.438971

  @DF-RHF Final Energy:  -496.84396267814884

   => Energetics <=

    Nuclear Repulsion Energy =            554.8395919868646615
    One-Electron Energy =               -1778.8549412030577059
    Two-Electron Energy =                 727.1713865380442030
    Total Energy =                       -496.8439626781488414
  Basis Set: (AUG-CC-PVTZ AUX)
    Blend: AUG-CC-PVTZ-RI
    Molecular point group: c1

    Geometry (in Angstrom), charge = 0, multiplicity = 1:

       Center              X                  Y                   Z               Mass
    ------------   -----------------  -----------------  -----------------  -----------------
         O           -0.908608642655    -0.126204052338    -0.732795229143    15.994914619570
         O           -0.419034642655     1.965675947662     0.080133770857    15.994914619570
         O           -1.931611642655    -0.111170052338     1.321323770857    15.994914619570
         C            1.919462357345    -0.585682052338    -0.041135229143    12.000000000000
         C            1.357776357345     0.590729947662    -0.856806229143    12.000000000000
         C            1.824147357345    -0.303786052338     1.457801770857    12.000000000000
         C            3.358960357345    -0.868708052338    -0.464244229143    12.000000000000
         C           -0.037330642655     0.939440947662    -0.429829229143    12.000000000000
         C           -1.963596642655    -0.386644052338     0.143609770857    12.000000000000
         C           -3.065641642655    -1.092833052338    -0.589532229143    12.000000000000
         H            1.308120357345    -1.466989052338    -0.270593229143     1.007825032230
         H            1.973623357345     1.484971947662    -0.717876229143     1.007825032230
         H            1.347797357345     0.335654947662    -1.923202229143     1.007825032230
         H            2.382861357345     0.603501947662     1.713237770857     1.007825032230
         H            2.248010357345    -1.133975052338     2.031188770857     1.007825032230
         H            0.787859357345    -0.165663052338     1.781142770857     1.007825032230
         H            3.999709357345    -0.007655052338    -0.245603229143     1.007825032230
         H            3.831673657345    -1.888813852338     0.176852370857     1.007825032230
         H            3.426891357345    -1.080105052338    -1.536206229143     1.007825032230
         H           -3.488052642655    -0.420233052338    -1.340440229143     1.007825032230
         H           -3.835662642655    -1.394339052338     0.119471770857     1.007825032230
         H           -2.665217642655    -1.965060052338    -1.111187229143     1.007825032230

  Basis Set: AUG-CC-PVTZ
    Blend: AUG-CC-PVTZ
  Basis Set: (AUG-CC-PVTZ AUX)
    Blend: AUG-CC-PVTZ-JKFIT
	 Reference Energy          =    -496.8439626781488414 [Eh]
	 Singles Energy            =      -0.0000000000000000 [Eh]
	 Same-Spin Energy          =      -0.4946073539609774 [Eh]
	 Opposite-Spin Energy      =      -1.5994368331953106 [Eh]
	 Correlation Energy        =      -2.0940441871562880 [Eh]
	 Total Energy              =    -498.9380068653051126 [Eh]

	 ================> DF-SCS-MP2 Energies <==================
	-----------------------------------------------------------
	 SCS Same-Spin Scale       =       0.3333333333333333 [-]
	 SCS Opposite-Spin Scale   =       1.2000000000000000 [-]
	 SCS Same-Spin Energy      =      -0.1648691179869925 [Eh]
	 SCS Opposite-Spin Energy  =      -1.9193241998343726 [Eh]
	 SCS Correlation Energy    =      -2.0841933178213652 [Eh]
	 SCS Total Energy          =    -498.9281559959702008 [Eh]
	-----------------------------------------------------------

  Dipole Moment: [D]
     X:     0.6707      Y:    -2.3724      Z:    -2.5943     Total:     3.5789

*** Psi4 exiting successfully. Buy a developer a beer!
