                               Psi4 1.4a3.dev225

  ==> Input File <==

--------------------------------------------------------------------------
#psi4
#
memory 32 gb

molecule  {
0 1
  O       -0.9795470    -0.0831330    -0.7231310
  O       -0.4899730     2.0087470     0.0897980
  O       -2.0025500    -0.0680990     1.3309880
  C        1.8485240    -0.5426110    -0.0314710
  C        1.2868380     0.6338010    -0.8471420
  C        1.7532090    -0.2607150     1.4674660
  C        3.2880220    -0.8256370    -0.4545800
  C       -0.1082690     0.9825120    -0.4201650
  C       -2.0345350    -0.3435730     0.1532740
  C       -3.1365800    -1.0497620    -0.5798680
  H        1.2093141    -1.4640923    -0.2713888
  H        1.9026850     1.5280430    -0.7082120
  H        1.2768590     0.3787260    -1.9135380
  H        2.3119230     0.6465730     1.7229020
  H        2.1770720    -1.0909040     2.0408530
  H        0.7169210    -0.1225920     1.7908070
  H        3.9287710     0.0354160    -0.2359390
  H        3.6876870    -1.6881060     0.0874480
  H        3.3559530    -1.0370340    -1.5265420
  H       -3.5589910    -0.3771620    -1.3307760
  H       -3.9066010    -1.3512680     0.1291360
  H       -2.7361560    -1.9219890    -1.1015230
units angstrom
no_reorient  #important for SAPT in psi4, default
symmetry c1  #important for SAPT in psi4, default
}

set PROPERTIES_ORIGIN ["COM"]
properties('MP2/aug-cc-pvtz', properties = ['dipole'])
--------------------------------------------------------------------------

    Molecular point group: c1
  Charge       = 0
  Multiplicity = 1
  Basis Set: AUG-CC-PVTZ
    Blend: AUG-CC-PVTZ
  Basis Set: (AUG-CC-PVTZ AUX)
    Blend: AUG-CC-PVTZ-JKFIT

    Orbital Energies [Eh]
    ---------------------

    Doubly Occupied:

       1A    -20.626478     2A    -20.564719     3A    -20.564650
       4A    -11.403950     5A    -11.398634     6A    -11.254781
       7A    -11.251962     8A    -11.251068     9A    -11.225125
      10A    -11.216098    11A     -1.485392    12A     -1.405141
      13A     -1.363412    14A     -1.112448    15A     -1.042693
      16A     -0.991244    17A     -0.939070    18A     -0.868122
      19A     -0.789312    20A     -0.739106    21A     -0.701686
      22A     -0.698105    23A     -0.682655    24A     -0.646721
      25A     -0.629258    26A     -0.620985    27A     -0.594339
      28A     -0.589938    29A     -0.570165    30A     -0.555710
      31A     -0.551691    32A     -0.540083    33A     -0.527398
      34A     -0.496286    35A     -0.486501    36A     -0.478006
      37A     -0.473955    38A     -0.467808    39A     -0.439694

  @DF-RHF Final Energy:  -496.86182367648934

   => Energetics <=

    Nuclear Repulsion Energy =            555.4239382569272721
    One-Electron Energy =               -1780.0827411132531779
    Two-Electron Energy =                 727.7969791798366259
    Total Energy =                       -496.8618236764893936
  Basis Set: (AUG-CC-PVTZ AUX)
    Blend: AUG-CC-PVTZ-RI
    Molecular point group: c1

    Geometry (in Angstrom), charge = 0, multiplicity = 1:

       Center              X                  Y                   Z               Mass
    ------------   -----------------  -----------------  -----------------  -----------------
         O           -0.907902737397    -0.127025698381    -0.732029081850    15.994914619570
         O           -0.418328737397     1.964854301619     0.080899918150    15.994914619570
         O           -1.930905737397    -0.111991698381     1.322089918150    15.994914619570
         C            1.920168262603    -0.586503698381    -0.040369081850    12.000000000000
         C            1.358482262603     0.589908301619    -0.856040081850    12.000000000000
         C            1.824853262603    -0.304607698381     1.458567918150    12.000000000000
         C            3.359666262603    -0.869529698381    -0.463478081850    12.000000000000
         C           -0.036624737397     0.938619301619    -0.429063081850    12.000000000000
         C           -1.962890737397    -0.387465698381     0.144375918150    12.000000000000
         C           -3.064935737397    -1.093654698381    -0.588766081850    12.000000000000
         H            1.280958362603    -1.507984998381    -0.280286881850     1.007825032230
         H            1.974329262603     1.484150301619    -0.717110081850     1.007825032230
         H            1.348503262603     0.334833301619    -1.922436081850     1.007825032230
         H            2.383567262603     0.602680301619     1.714003918150     1.007825032230
         H            2.248716262603    -1.134796698381     2.031954918150     1.007825032230
         H            0.788565262603    -0.166484698381     1.781908918150     1.007825032230
         H            4.000415262603    -0.008476698381    -0.244837081850     1.007825032230
         H            3.759331262603    -1.731998698381     0.078549918150     1.007825032230
         H            3.427597262603    -1.080926698381    -1.535440081850     1.007825032230
         H           -3.487346737397    -0.421054698381    -1.339674081850     1.007825032230
         H           -3.834956737397    -1.395160698381     0.120237918150     1.007825032230
         H           -2.664511737397    -1.965881698381    -1.110421081850     1.007825032230

  Basis Set: AUG-CC-PVTZ
    Blend: AUG-CC-PVTZ
  Basis Set: (AUG-CC-PVTZ AUX)
    Blend: AUG-CC-PVTZ-JKFIT
	 Reference Energy          =    -496.8618236764893368 [Eh]
	 Singles Energy            =      -0.0000000000000000 [Eh]
	 Same-Spin Energy          =      -0.4946646188504163 [Eh]
	 Opposite-Spin Energy      =      -1.5982067676073359 [Eh]
	 Correlation Energy        =      -2.0928713864577522 [Eh]
	 Total Energy              =    -498.9546950629471098 [Eh]

	 ================> DF-SCS-MP2 Energies <==================
	-----------------------------------------------------------
	 SCS Same-Spin Scale       =       0.3333333333333333 [-]
	 SCS Opposite-Spin Scale   =       1.2000000000000000 [-]
	 SCS Same-Spin Energy      =      -0.1648882062834721 [Eh]
	 SCS Opposite-Spin Energy  =      -1.9178481211288030 [Eh]
	 SCS Correlation Energy    =      -2.0827363274122752 [Eh]
	 SCS Total Energy          =    -498.9445600039015858 [Eh]
	-----------------------------------------------------------

  Dipole Moment: [D]
     X:     0.8048      Y:    -2.4706      Z:    -2.5344     Total:     3.6297

*** Psi4 exiting successfully. Buy a developer a beer!
