                               Psi4 1.4a3.dev225

  ==> Input File <==

--------------------------------------------------------------------------
#psi4
#
memory 32 gb

molecule  {
0 1
  O       -0.9605677    -0.0957250    -0.7324229
  O       -0.4899730     2.0087470     0.0897980
  O       -2.0025500    -0.0680990     1.3309880
  C        1.8485240    -0.5426110    -0.0314710
  C        1.2868380     0.6338010    -0.8471420
  C        1.7532090    -0.2607150     1.4674660
  C        3.2880220    -0.8256370    -0.4545800
  C       -0.1082690     0.9825120    -0.4201650
  C       -2.0345350    -0.3435730     0.1532740
  C       -3.1365800    -1.0497620    -0.5798680
  H        1.2371820    -1.4239180    -0.2609290
  H        1.9026850     1.5280430    -0.7082120
  H        1.2768590     0.3787260    -1.9135380
  H        2.3119230     0.6465730     1.7229020
  H        2.1770720    -1.0909040     2.0408530
  H        0.7169210    -0.1225920     1.7908070
  H        3.9287710     0.0354160    -0.2359390
  H        3.6876870    -1.6881060     0.0874480
  H        3.3559530    -1.0370340    -1.5265420
  H       -3.5589910    -0.3771620    -1.3307760
  H       -3.9066010    -1.3512680     0.1291360
  H       -2.7361560    -1.9219890    -1.1015230
units angstrom
no_reorient  #important for SAPT in psi4, default
symmetry c1  #important for SAPT in psi4, default
}

set PROPERTIES_ORIGIN ["COM"]
properties('MP2/aug-cc-pvtz', properties = ['dipole'])
--------------------------------------------------------------------------

    Molecular point group: c1
  Charge       = 0
  Multiplicity = 1
  Basis Set: AUG-CC-PVTZ
    Blend: AUG-CC-PVTZ
  Basis Set: (AUG-CC-PVTZ AUX)
    Blend: AUG-CC-PVTZ-JKFIT

    Orbital Energies [Eh]
    ---------------------

    Doubly Occupied:

       1A    -20.626691     2A    -20.568386     3A    -20.564331
       4A    -11.406613     5A    -11.397451     6A    -11.256250
       7A    -11.248884     8A    -11.244774     9A    -11.223919
      10A    -11.215094    11A     -1.481599    12A     -1.405970
      13A     -1.363490    14A     -1.112480    15A     -1.043077
      16A     -0.990122    17A     -0.938055    18A     -0.863526
      19A     -0.793588    20A     -0.740589    21A     -0.701782
      22A     -0.696946    23A     -0.681732    24A     -0.647556
      25A     -0.629067    26A     -0.621221    27A     -0.595782
      28A     -0.590629    29A     -0.569729    30A     -0.554145
      31A     -0.550971    32A     -0.539379    33A     -0.528276
      34A     -0.495393    35A     -0.487839    36A     -0.479215
      37A     -0.474005    38A     -0.471167    39A     -0.439046

  @DF-RHF Final Energy:  -496.86217055543239

   => Energetics <=

    Nuclear Repulsion Energy =            555.3754126263062290
    One-Electron Energy =               -1779.9976276299639721
    Two-Electron Energy =                 727.7600444482254716
    Total Energy =                       -496.8621705554323853
  Basis Set: (AUG-CC-PVTZ AUX)
    Blend: AUG-CC-PVTZ-RI
    Molecular point group: c1

    Geometry (in Angstrom), charge = 0, multiplicity = 1:

       Center              X                  Y                   Z               Mass
    ------------   -----------------  -----------------  -----------------  -----------------
         O           -0.891225362516    -0.138500813220    -0.740362605960    15.994914619570
         O           -0.420630662516     1.965971186780     0.081858294040    15.994914619570
         O           -1.933207662516    -0.110874813220     1.323048294040    15.994914619570
         C            1.917866337484    -0.585386813220    -0.039410705960    12.000000000000
         C            1.356180337484     0.591025186780    -0.855081705960    12.000000000000
         C            1.822551337484    -0.303490813220     1.459526294040    12.000000000000
         C            3.357364337484    -0.868412813220    -0.462519705960    12.000000000000
         C           -0.038926662516     0.939736186780    -0.428104705960    12.000000000000
         C           -1.965192662516    -0.386348813220     0.145334294040    12.000000000000
         C           -3.067237662516    -1.092537813220    -0.587807705960    12.000000000000
         H            1.306524337484    -1.466693813220    -0.268868705960     1.007825032230
         H            1.972027337484     1.485267186780    -0.716151705960     1.007825032230
         H            1.346201337484     0.335950186780    -1.921477705960     1.007825032230
         H            2.381265337484     0.603797186780     1.714962294040     1.007825032230
         H            2.246414337484    -1.133679813220     2.032913294040     1.007825032230
         H            0.786263337484    -0.165367813220     1.782867294040     1.007825032230
         H            3.998113337484    -0.007359813220    -0.243878705960     1.007825032230
         H            3.757029337484    -1.730881813220     0.079508294040     1.007825032230
         H            3.425295337484    -1.079809813220    -1.534481705960     1.007825032230
         H           -3.489648662516    -0.419937813220    -1.338715705960     1.007825032230
         H           -3.837258662516    -1.394043813220     0.121196294040     1.007825032230
         H           -2.666813662516    -1.964764813220    -1.109462705960     1.007825032230

  Basis Set: AUG-CC-PVTZ
    Blend: AUG-CC-PVTZ
  Basis Set: (AUG-CC-PVTZ AUX)
    Blend: AUG-CC-PVTZ-JKFIT
	 Reference Energy          =    -496.8621705554323853 [Eh]
	 Singles Energy            =      -0.0000000000000000 [Eh]
	 Same-Spin Energy          =      -0.4949481848989588 [Eh]
	 Opposite-Spin Energy      =      -1.5986952388716320 [Eh]
	 Correlation Energy        =      -2.0936434237705908 [Eh]
	 Total Energy              =    -498.9558139792029579 [Eh]

	 ================> DF-SCS-MP2 Energies <==================
	-----------------------------------------------------------
	 SCS Same-Spin Scale       =       0.3333333333333333 [-]
	 SCS Opposite-Spin Scale   =       1.2000000000000000 [-]
	 SCS Same-Spin Energy      =      -0.1649827282996529 [Eh]
	 SCS Opposite-Spin Energy  =      -1.9184342866459583 [Eh]
	 SCS Correlation Energy    =      -2.0834170149456113 [Eh]
	 SCS Total Energy          =    -498.9455875703779952 [Eh]
	-----------------------------------------------------------

  Dipole Moment: [D]
     X:     0.6486      Y:    -2.5192      Z:    -2.4813     Total:     3.5950

*** Psi4 exiting successfully. Buy a developer a beer!
