                               Psi4 1.4a3.dev225

  ==> Input File <==

--------------------------------------------------------------------------
#psi4
#
memory 32 gb

molecule  {
0 1
  O       -0.9795470    -0.0831330    -0.7231310
  O       -0.4899730     2.0087470     0.0897980
  O       -2.0025500    -0.0680990     1.3309880
  C        1.9048814    -0.5226711     0.1167458
  C        1.2868380     0.6338010    -0.8471420
  C        1.7532090    -0.2607150     1.4674660
  C        3.2880220    -0.8256370    -0.4545800
  C       -0.1082690     0.9825120    -0.4201650
  C       -2.0345350    -0.3435730     0.1532740
  C       -3.1365800    -1.0497620    -0.5798680
  H        1.2371820    -1.4239180    -0.2609290
  H        1.9026850     1.5280430    -0.7082120
  H        1.2768590     0.3787260    -1.9135380
  H        2.3119230     0.6465730     1.7229020
  H        2.1770720    -1.0909040     2.0408530
  H        0.7169210    -0.1225920     1.7908070
  H        3.9287710     0.0354160    -0.2359390
  H        3.6876870    -1.6881060     0.0874480
  H        3.3559530    -1.0370340    -1.5265420
  H       -3.5589910    -0.3771620    -1.3307760
  H       -3.9066010    -1.3512680     0.1291360
  H       -2.7361560    -1.9219890    -1.1015230
units angstrom
no_reorient  #important for SAPT in psi4, default
symmetry c1  #important for SAPT in psi4, default
}

set PROPERTIES_ORIGIN ["COM"]
properties('MP2/aug-cc-pvtz', properties = ['dipole'])
--------------------------------------------------------------------------

    Molecular point group: c1
  Charge       = 0
  Multiplicity = 1
  Basis Set: AUG-CC-PVTZ
    Blend: AUG-CC-PVTZ
  Basis Set: (AUG-CC-PVTZ AUX)
    Blend: AUG-CC-PVTZ-JKFIT

    Orbital Energies [Eh]
    ---------------------

    Doubly Occupied:

       1A    -20.625140     2A    -20.564083     3A    -20.562453
       4A    -11.403325     5A    -11.396158     6A    -11.254181
       7A    -11.254162     8A    -11.251025     9A    -11.227112
      10A    -11.212574    11A     -1.483998    12A     -1.403848
      13A     -1.362086    14A     -1.120219    15A     -1.044223
      16A     -0.995677    17A     -0.954867    18A     -0.864140
      19A     -0.779634    20A     -0.737892    21A     -0.700344
      22A     -0.694346    23A     -0.682760    24A     -0.651753
      25A     -0.630069    26A     -0.626457    27A     -0.596704
      28A     -0.589756    29A     -0.575960    30A     -0.556037
      31A     -0.554366    32A     -0.543941    33A     -0.530638
      34A     -0.522266    35A     -0.481257    36A     -0.479368
      37A     -0.469522    38A     -0.443892    39A     -0.426898

  @DF-RHF Final Energy:  -496.83498576378054

   => Energetics <=

    Nuclear Repulsion Energy =            555.5962095030532737
    One-Electron Energy =               -1780.3561266593746950
    Two-Electron Energy =                 727.9249313925409979
    Total Energy =                       -496.8349857637805371
  Basis Set: (AUG-CC-PVTZ AUX)
    Blend: AUG-CC-PVTZ-RI
    Molecular point group: c1

    Geometry (in Angstrom), charge = 0, multiplicity = 1:

       Center              X                  Y                   Z               Mass
    ------------   -----------------  -----------------  -----------------  -----------------
         O           -0.912791558852    -0.128967467521    -0.744446905863    15.994914619570
         O           -0.423217558852     1.962912532479     0.068482094137    15.994914619570
         O           -1.935794558852    -0.113933467521     1.309672094137    15.994914619570
         C            1.971636841148    -0.568505567521     0.095429894137    12.000000000000
         C            1.353593441148     0.587966532479    -0.868457905863    12.000000000000
         C            1.819964441148    -0.306549467521     1.446150094137    12.000000000000
         C            3.354777441148    -0.871471467521    -0.475895905863    12.000000000000
         C           -0.041513558852     0.936677532479    -0.441480905863    12.000000000000
         C           -1.967779558852    -0.389407467521     0.131958094137    12.000000000000
         C           -3.069824558852    -1.095596467521    -0.601183905863    12.000000000000
         H            1.303937441148    -1.469752467521    -0.282244905863     1.007825032230
         H            1.969440441148     1.482208532479    -0.729527905863     1.007825032230
         H            1.343614441148     0.332891532479    -1.934853905863     1.007825032230
         H            2.378678441148     0.600738532479     1.701586094137     1.007825032230
         H            2.243827441148    -1.136738467521     2.019537094137     1.007825032230
         H            0.783676441148    -0.168426467521     1.769491094137     1.007825032230
         H            3.995526441148    -0.010418467521    -0.257254905863     1.007825032230
         H            3.754442441148    -1.733940467521     0.066132094137     1.007825032230
         H            3.422708441148    -1.082868467521    -1.547857905863     1.007825032230
         H           -3.492235558852    -0.422996467521    -1.352091905863     1.007825032230
         H           -3.839845558852    -1.397102467521     0.107820094137     1.007825032230
         H           -2.669400558852    -1.967823467521    -1.122838905863     1.007825032230

  Basis Set: AUG-CC-PVTZ
    Blend: AUG-CC-PVTZ
  Basis Set: (AUG-CC-PVTZ AUX)
    Blend: AUG-CC-PVTZ-JKFIT
	 Reference Energy          =    -496.8349857637805371 [Eh]
	 Singles Energy            =      -0.0000000000000000 [Eh]
	 Same-Spin Energy          =      -0.4961611258928840 [Eh]
	 Opposite-Spin Energy      =      -1.6000692213663534 [Eh]
	 Correlation Energy        =      -2.0962303472592376 [Eh]
	 Total Energy              =    -498.9312161110397597 [Eh]

	 ================> DF-SCS-MP2 Energies <==================
	-----------------------------------------------------------
	 SCS Same-Spin Scale       =       0.3333333333333333 [-]
	 SCS Opposite-Spin Scale   =       1.2000000000000000 [-]
	 SCS Same-Spin Energy      =      -0.1653870419642947 [Eh]
	 SCS Opposite-Spin Energy  =      -1.9200830656396239 [Eh]
	 SCS Correlation Energy    =      -2.0854701076039186 [Eh]
	 SCS Total Energy          =    -498.9204558713844335 [Eh]
	-----------------------------------------------------------

  Dipole Moment: [D]
     X:     0.8862      Y:    -2.5223      Z:    -2.4320     Total:     3.6141

*** Psi4 exiting successfully. Buy a developer a beer!
