                               Psi4 1.4a3.dev225

  ==> Input File <==

--------------------------------------------------------------------------
#psi4
#
memory 32 gb

molecule  {
0 1
  O       -0.9795470    -0.0831330    -0.7231310
  O       -0.4899730     2.0087470     0.0897980
  O       -2.0025500    -0.0680990     1.3309880
  C        1.8485240    -0.5426110    -0.0314710
  C        1.2868380     0.6338010    -0.8471420
  C        1.7532090    -0.2607150     1.4674660
  C        3.2880220    -0.8256370    -0.4545800
  C       -0.1082690     0.9825120    -0.4201650
  C       -2.0345350    -0.3435730     0.1532740
  C       -3.1365800    -1.0497620    -0.5798680
  H        1.2371820    -1.4239180    -0.2609290
  H        1.9026850     1.5280430    -0.7082120
  H        1.2768590     0.3787260    -1.9135380
  H        2.3119230     0.6465730     1.7229020
  H        2.1770720    -1.0909040     2.0408530
  H        0.7169210    -0.1225920     1.7908070
  H        3.9287710     0.0354160    -0.2359390
  H        3.6876870    -1.6881060     0.0874480
  H        3.3559530    -1.0370340    -1.5265420
  H       -3.5539449    -0.3894993    -1.3444230
  H       -3.9066010    -1.3512680     0.1291360
  H       -2.7361560    -1.9219890    -1.1015230
units angstrom
no_reorient  #important for SAPT in psi4, default
symmetry c1  #important for SAPT in psi4, default
}

set PROPERTIES_ORIGIN ["COM"]
properties('MP2/aug-cc-pvtz', properties = ['dipole'])
--------------------------------------------------------------------------

    Molecular point group: c1
  Charge       = 0
  Multiplicity = 1
  Basis Set: AUG-CC-PVTZ
    Blend: AUG-CC-PVTZ
  Basis Set: (AUG-CC-PVTZ AUX)
    Blend: AUG-CC-PVTZ-JKFIT

    Orbital Energies [Eh]
    ---------------------

    Doubly Occupied:

       1A    -20.626673     2A    -20.564891     3A    -20.564603
       4A    -11.404214     5A    -11.398526     6A    -11.254885
       7A    -11.250634     8A    -11.245742     9A    -11.224633
      10A    -11.215569    11A     -1.485528    12A     -1.405185
      13A     -1.363517    14A     -1.113640    15A     -1.042827
      16A     -0.991177    17A     -0.938665    18A     -0.868210
      19A     -0.794657    20A     -0.739528    21A     -0.702440
      22A     -0.698409    23A     -0.682820    24A     -0.648655
      25A     -0.628723    26A     -0.620979    27A     -0.594216
      28A     -0.590410    29A     -0.569865    30A     -0.555658
      31A     -0.551410    32A     -0.539809    33A     -0.527159
      34A     -0.495845    35A     -0.487209    36A     -0.479679
      37A     -0.473907    38A     -0.471331    39A     -0.439653

  @DF-RHF Final Energy:  -496.86391980205752

   => Energetics <=

    Nuclear Repulsion Energy =            555.6358294849965205
    One-Electron Energy =               -1780.4965372208737335
    Two-Electron Energy =                 727.9967879338196326
    Total Energy =                       -496.8639198020575805
  Basis Set: (AUG-CC-PVTZ AUX)
    Blend: AUG-CC-PVTZ-RI
    Molecular point group: c1

    Geometry (in Angstrom), charge = 0, multiplicity = 1:

       Center              X                  Y                   Z               Mass
    ------------   -----------------  -----------------  -----------------  -----------------
         O           -0.908132969666    -0.127220417213    -0.732006787498    15.994914619570
         O           -0.418558969666     1.964659582787     0.080922212502    15.994914619570
         O           -1.931135969666    -0.112186417213     1.322112212502    15.994914619570
         C            1.919938030334    -0.586698417213    -0.040346787498    12.000000000000
         C            1.358252030334     0.589713582787    -0.856017787498    12.000000000000
         C            1.824623030334    -0.304802417213     1.458590212502    12.000000000000
         C            3.359436030334    -0.869724417213    -0.463455787498    12.000000000000
         C           -0.036854969666     0.938424582787    -0.429040787498    12.000000000000
         C           -1.963120969666    -0.387660417213     0.144398212502    12.000000000000
         C           -3.065165969666    -1.093849417213    -0.588743787498    12.000000000000
         H            1.308596030334    -1.468005417213    -0.269804787498     1.007825032230
         H            1.974099030334     1.483955582787    -0.717087787498     1.007825032230
         H            1.348273030334     0.334638582787    -1.922413787498     1.007825032230
         H            2.383337030334     0.602485582787     1.714026212502     1.007825032230
         H            2.248486030334    -1.134991417213     2.031977212502     1.007825032230
         H            0.788335030334    -0.166679417213     1.781931212502     1.007825032230
         H            4.000185030334    -0.008671417213    -0.244814787498     1.007825032230
         H            3.759101030334    -1.732193417213     0.078572212502     1.007825032230
         H            3.427367030334    -1.081121417213    -1.535417787498     1.007825032230
         H           -3.482530869666    -0.433586717213    -1.353298787498     1.007825032230
         H           -3.835186969666    -1.395355417213     0.120260212502     1.007825032230
         H           -2.664741969666    -1.966076417213    -1.110398787498     1.007825032230

  Basis Set: AUG-CC-PVTZ
    Blend: AUG-CC-PVTZ
  Basis Set: (AUG-CC-PVTZ AUX)
    Blend: AUG-CC-PVTZ-JKFIT
	 Reference Energy          =    -496.8639198020575236 [Eh]
	 Singles Energy            =      -0.0000000000000000 [Eh]
	 Same-Spin Energy          =      -0.4946191823360395 [Eh]
	 Opposite-Spin Energy      =      -1.5978158608776596 [Eh]
	 Correlation Energy        =      -2.0924350432136993 [Eh]
	 Total Energy              =    -498.9563548452712212 [Eh]

	 ================> DF-SCS-MP2 Energies <==================
	-----------------------------------------------------------
	 SCS Same-Spin Scale       =       0.3333333333333333 [-]
	 SCS Opposite-Spin Scale   =       1.2000000000000000 [-]
	 SCS Same-Spin Energy      =      -0.1648730607786798 [Eh]
	 SCS Opposite-Spin Energy  =      -1.9173790330531915 [Eh]
	 SCS Correlation Energy    =      -2.0822520938318712 [Eh]
	 SCS Total Energy          =    -498.9461718958893925 [Eh]
	-----------------------------------------------------------

  Dipole Moment: [D]
     X:     0.7883      Y:    -2.5012      Z:    -2.5478     Total:     3.6563

*** Psi4 exiting successfully. Buy a developer a beer!
