                               Psi4 1.4a3.dev225

  ==> Input File <==

--------------------------------------------------------------------------
#psi4
#
memory 32 gb

molecule  {
0 1
  O       -0.9795470    -0.0831330    -0.7231310
  O       -0.4899730     2.0087470     0.0897980
  O       -2.0025500    -0.0680990     1.3309880
  C        1.8485240    -0.5426110    -0.0314710
  C        1.2868380     0.6338010    -0.8471420
  C        1.7532090    -0.2607150     1.4674660
  C        3.2880220    -0.8256370    -0.4545800
  C       -0.1082690     0.9825120    -0.4201650
  C       -2.0345350    -0.3435730     0.1532740
  C       -3.1365800    -1.0497620    -0.5798680
  H        1.2371820    -1.4239180    -0.2609290
  H        1.9026850     1.5280430    -0.7082120
  H        1.2786791     0.4252503    -1.7190331
  H        2.3119230     0.6465730     1.7229020
  H        2.1770720    -1.0909040     2.0408530
  H        0.7169210    -0.1225920     1.7908070
  H        3.9287710     0.0354160    -0.2359390
  H        3.6876870    -1.6881060     0.0874480
  H        3.3559530    -1.0370340    -1.5265420
  H       -3.5589910    -0.3771620    -1.3307760
  H       -3.9066010    -1.3512680     0.1291360
  H       -2.7361560    -1.9219890    -1.1015230
units angstrom
no_reorient  #important for SAPT in psi4, default
symmetry c1  #important for SAPT in psi4, default
}

set PROPERTIES_ORIGIN ["COM"]
properties('MP2/aug-cc-pvtz', properties = ['dipole'])
--------------------------------------------------------------------------

    Molecular point group: c1
  Charge       = 0
  Multiplicity = 1
  Basis Set: AUG-CC-PVTZ
    Blend: AUG-CC-PVTZ
  Basis Set: (AUG-CC-PVTZ AUX)
    Blend: AUG-CC-PVTZ-JKFIT

    Orbital Energies [Eh]
    ---------------------

    Doubly Occupied:

       1A    -20.626964     2A    -20.564910     3A    -20.563891
       4A    -11.404277     5A    -11.397401     6A    -11.255021
       7A    -11.244718     8A    -11.226733     9A    -11.224745
      10A    -11.214400    11A     -1.485627    12A     -1.404856
      13A     -1.363410    14A     -1.120939    15A     -1.043261
      16A     -1.002762    17A     -0.938903    18A     -0.872542
      19A     -0.795671    20A     -0.744553    21A     -0.710972
      22A     -0.701881    23A     -0.683019    24A     -0.662562
      25A     -0.631518    26A     -0.620457    27A     -0.594972
      28A     -0.590109    29A     -0.574630    30A     -0.556510
      31A     -0.553322    32A     -0.540724    33A     -0.527354
      34A     -0.496118    35A     -0.487018    36A     -0.481266
      37A     -0.476394    38A     -0.470706    39A     -0.439217

  @DF-RHF Final Energy:  -496.83097454512568

   => Energetics <=

    Nuclear Repulsion Energy =            556.8149839848633746
    One-Electron Energy =               -1782.7032573643625710
    Two-Electron Energy =                 729.0572988343734551
    Total Energy =                       -496.8309745451257413
  Basis Set: (AUG-CC-PVTZ AUX)
    Blend: AUG-CC-PVTZ-RI
    Molecular point group: c1

    Geometry (in Angstrom), charge = 0, multiplicity = 1:

       Center              X                  Y                   Z               Mass
    ------------   -----------------  -----------------  -----------------  -----------------
         O           -0.908110403910    -0.127632152028    -0.733462802694    15.994914619570
         O           -0.418536403910     1.964247847972     0.079466197306    15.994914619570
         O           -1.931113403910    -0.112598152028     1.320656197306    15.994914619570
         C            1.919960596090    -0.587110152028    -0.041802802694    12.000000000000
         C            1.358274596090     0.589301847972    -0.857473802694    12.000000000000
         C            1.824645596090    -0.305214152028     1.457134197306    12.000000000000
         C            3.359458596090    -0.870136152028    -0.464911802694    12.000000000000
         C           -0.036832403910     0.938012847972    -0.430496802694    12.000000000000
         C           -1.963098403910    -0.388072152028     0.142942197306    12.000000000000
         C           -3.065143403910    -1.094261152028    -0.590199802694    12.000000000000
         H            1.308618596090    -1.468417152028    -0.271260802694     1.007825032230
         H            1.974121596090     1.483543847972    -0.718543802694     1.007825032230
         H            1.350115696090     0.380751147972    -1.729364902694     1.007825032230
         H            2.383359596090     0.602073847972     1.712570197306     1.007825032230
         H            2.248508596090    -1.135403152028     2.030521197306     1.007825032230
         H            0.788357596090    -0.167091152028     1.780475197306     1.007825032230
         H            4.000207596090    -0.009083152028    -0.246270802694     1.007825032230
         H            3.759123596090    -1.732605152028     0.077116197306     1.007825032230
         H            3.427389596090    -1.081533152028    -1.536873802694     1.007825032230
         H           -3.487554403910    -0.421661152028    -1.341107802694     1.007825032230
         H           -3.835164403910    -1.395767152028     0.118804197306     1.007825032230
         H           -2.664719403910    -1.966488152028    -1.111854802694     1.007825032230

  Basis Set: AUG-CC-PVTZ
    Blend: AUG-CC-PVTZ
  Basis Set: (AUG-CC-PVTZ AUX)
    Blend: AUG-CC-PVTZ-JKFIT
	 Reference Energy          =    -496.8309745451256845 [Eh]
	 Singles Energy            =      -0.0000000000000000 [Eh]
	 Same-Spin Energy          =      -0.4945314287646043 [Eh]
	 Opposite-Spin Energy      =      -1.5971037716743077 [Eh]
	 Correlation Energy        =      -2.0916352004389118 [Eh]
	 Total Energy              =    -498.9226097455646141 [Eh]

	 ================> DF-SCS-MP2 Energies <==================
	-----------------------------------------------------------
	 SCS Same-Spin Scale       =       0.3333333333333333 [-]
	 SCS Opposite-Spin Scale   =       1.2000000000000000 [-]
	 SCS Same-Spin Energy      =      -0.1648438095882014 [Eh]
	 SCS Opposite-Spin Energy  =      -1.9165245260091692 [Eh]
	 SCS Correlation Energy    =      -2.0813683355973707 [Eh]
	 SCS Total Energy          =    -498.9123428807230312 [Eh]
	-----------------------------------------------------------

  Dipole Moment: [D]
     X:     0.7796      Y:    -2.4875      Z:    -2.5847     Total:     3.6710

*** Psi4 exiting successfully. Buy a developer a beer!
