                               Psi4 1.4a3.dev225

  ==> Input File <==

--------------------------------------------------------------------------
#psi4
#
memory 32 gb

molecule  {
0 1
  O       -0.9020956    -0.1315154    -0.7597167
  O       -0.4899730     2.0087470     0.0897980
  O       -2.0025500    -0.0680990     1.3309880
  C        1.8485240    -0.5426110    -0.0314710
  C        1.2868380     0.6338010    -0.8471420
  C        1.7532090    -0.2607150     1.4674660
  C        3.2880220    -0.8256370    -0.4545800
  C       -0.1082690     0.9825120    -0.4201650
  C       -2.0345350    -0.3435730     0.1532740
  C       -3.1365800    -1.0497620    -0.5798680
  H        1.2371820    -1.4239180    -0.2609290
  H        1.9026850     1.5280430    -0.7082120
  H        1.2768590     0.3787260    -1.9135380
  H        2.3119230     0.6465730     1.7229020
  H        2.1770720    -1.0909040     2.0408530
  H        0.7169210    -0.1225920     1.7908070
  H        3.9287710     0.0354160    -0.2359390
  H        3.6876870    -1.6881060     0.0874480
  H        3.3559530    -1.0370340    -1.5265420
  H       -3.5589910    -0.3771620    -1.3307760
  H       -3.9066010    -1.3512680     0.1291360
  H       -2.7361560    -1.9219890    -1.1015230
units angstrom
no_reorient  #important for SAPT in psi4, default
symmetry c1  #important for SAPT in psi4, default
}

set PROPERTIES_ORIGIN ["COM"]
properties('MP2/aug-cc-pvtz', properties = ['dipole'])
--------------------------------------------------------------------------

    Molecular point group: c1
  Charge       = 0
  Multiplicity = 1
  Basis Set: AUG-CC-PVTZ
    Blend: AUG-CC-PVTZ
  Basis Set: (AUG-CC-PVTZ AUX)
    Blend: AUG-CC-PVTZ-JKFIT

    Orbital Energies [Eh]
    ---------------------

    Doubly Occupied:

       1A    -20.626304     2A    -20.578879     3A    -20.563583
       4A    -11.414112     5A    -11.394375     6A    -11.260502
       7A    -11.243648     8A    -11.241791     9A    -11.221737
      10A    -11.213639    11A     -1.471212    12A     -1.409121
      13A     -1.362280    14A     -1.108906    15A     -1.044091
      16A     -0.986705    17A     -0.936196    18A     -0.849915
      19A     -0.790388    20A     -0.744300    21A     -0.701692
      22A     -0.691946    23A     -0.678496    24A     -0.644529
      25A     -0.629532    26A     -0.622859    27A     -0.600041
      28A     -0.591586    29A     -0.567901    30A     -0.550463
      31A     -0.548931    32A     -0.538147    33A     -0.531197
      34A     -0.494298    35A     -0.489101    36A     -0.478625
      37A     -0.473452    38A     -0.469837    39A     -0.436680

  @DF-RHF Final Energy:  -496.85341098304457

   => Energetics <=

    Nuclear Repulsion Energy =            554.5978053357393946
    One-Electron Energy =               -1778.5004447306780548
    Two-Electron Energy =                 727.0492284118940916
    Total Energy =                       -496.8534109830445686
  Basis Set: (AUG-CC-PVTZ AUX)
    Blend: AUG-CC-PVTZ-RI
    Molecular point group: c1

    Geometry (in Angstrom), charge = 0, multiplicity = 1:

       Center              X                  Y                   Z               Mass
    ------------   -----------------  -----------------  -----------------  -----------------
         O           -0.839244552408    -0.170317936020    -0.764626380220    15.994914619570
         O           -0.427121952408     1.969944463980     0.084888319780    15.994914619570
         O           -1.939698952408    -0.106901536020     1.326078319780    15.994914619570
         C            1.911375047592    -0.581413536020    -0.036380680220    12.000000000000
         C            1.349689047592     0.594998463980    -0.852051680220    12.000000000000
         C            1.816060047592    -0.299517536020     1.462556319780    12.000000000000
         C            3.350873047592    -0.864439536020    -0.459489680220    12.000000000000
         C           -0.045417952408     0.943709463980    -0.425074680220    12.000000000000
         C           -1.971683952408    -0.382375536020     0.148364319780    12.000000000000
         C           -3.073728952408    -1.088564536020    -0.584777680220    12.000000000000
         H            1.300033047592    -1.462720536020    -0.265838680220     1.007825032230
         H            1.965536047592     1.489240463980    -0.713121680220     1.007825032230
         H            1.339710047592     0.339923463980    -1.918447680220     1.007825032230
         H            2.374774047592     0.607770463980     1.717992319780     1.007825032230
         H            2.239923047592    -1.129706536020     2.035943319780     1.007825032230
         H            0.779772047592    -0.161394536020     1.785897319780     1.007825032230
         H            3.991622047592    -0.003386536020    -0.240848680220     1.007825032230
         H            3.750538047592    -1.726908536020     0.082538319780     1.007825032230
         H            3.418804047592    -1.075836536020    -1.531451680220     1.007825032230
         H           -3.496139952408    -0.415964536020    -1.335685680220     1.007825032230
         H           -3.843749952408    -1.390070536020     0.124226319780     1.007825032230
         H           -2.673304952408    -1.960791536020    -1.106432680220     1.007825032230

  Basis Set: AUG-CC-PVTZ
    Blend: AUG-CC-PVTZ
  Basis Set: (AUG-CC-PVTZ AUX)
    Blend: AUG-CC-PVTZ-JKFIT
	 Reference Energy          =    -496.8534109830445686 [Eh]
	 Singles Energy            =      -0.0000000000000000 [Eh]
	 Same-Spin Energy          =      -0.4961329291366708 [Eh]
	 Opposite-Spin Energy      =      -1.6016805416479740 [Eh]
	 Correlation Energy        =      -2.0978134707846450 [Eh]
	 Total Energy              =    -498.9512244538292407 [Eh]

	 ================> DF-SCS-MP2 Energies <==================
	-----------------------------------------------------------
	 SCS Same-Spin Scale       =       0.3333333333333333 [-]
	 SCS Opposite-Spin Scale   =       1.2000000000000000 [-]
	 SCS Same-Spin Energy      =      -0.1653776430455569 [Eh]
	 SCS Opposite-Spin Energy  =      -1.9220166499775688 [Eh]
	 SCS Correlation Energy    =      -2.0873942930231260 [Eh]
	 SCS Total Energy          =    -498.9408052760676924 [Eh]
	-----------------------------------------------------------

  Dipole Moment: [D]
     X:     0.2296      Y:    -2.5887      Z:    -2.3078     Total:     3.4757

*** Psi4 exiting successfully. Buy a developer a beer!
