                               Psi4 1.4a3.dev225

  ==> Input File <==

--------------------------------------------------------------------------
#psi4
#
memory 32 gb

molecule  {
0 1
  O       -0.9795470    -0.0831330    -0.7231310
  O       -0.4899730     2.0087470     0.0897980
  O       -2.0025500    -0.0680990     1.3309880
  C        1.8485240    -0.5426110    -0.0314710
  C        1.2868380     0.6338010    -0.8471420
  C        1.7469719    -0.2422686     1.5655518
  C        3.2880220    -0.8256370    -0.4545800
  C       -0.1082690     0.9825120    -0.4201650
  C       -2.0345350    -0.3435730     0.1532740
  C       -3.1365800    -1.0497620    -0.5798680
  H        1.2371820    -1.4239180    -0.2609290
  H        1.9026850     1.5280430    -0.7082120
  H        1.2768590     0.3787260    -1.9135380
  H        2.3119230     0.6465730     1.7229020
  H        2.1770720    -1.0909040     2.0408530
  H        0.7169210    -0.1225920     1.7908070
  H        3.9287710     0.0354160    -0.2359390
  H        3.6876870    -1.6881060     0.0874480
  H        3.3559530    -1.0370340    -1.5265420
  H       -3.5589910    -0.3771620    -1.3307760
  H       -3.9066010    -1.3512680     0.1291360
  H       -2.7361560    -1.9219890    -1.1015230
units angstrom
no_reorient  #important for SAPT in psi4, default
symmetry c1  #important for SAPT in psi4, default
}

set PROPERTIES_ORIGIN ["COM"]
properties('MP2/aug-cc-pvtz', properties = ['dipole'])
--------------------------------------------------------------------------

    Molecular point group: c1
  Charge       = 0
  Multiplicity = 1
  Basis Set: AUG-CC-PVTZ
    Blend: AUG-CC-PVTZ
  Basis Set: (AUG-CC-PVTZ AUX)
    Blend: AUG-CC-PVTZ-JKFIT

    Orbital Energies [Eh]
    ---------------------

    Doubly Occupied:

       1A    -20.626723     2A    -20.564990     3A    -20.564673
       4A    -11.404235     5A    -11.398422     6A    -11.254966
       7A    -11.250519     8A    -11.249076     9A    -11.224625
      10A    -11.212915    11A     -1.485593    12A     -1.405290
      13A     -1.363598    14A     -1.105246    15A     -1.042033
      16A     -0.988716    17A     -0.939723    18A     -0.868367
      19A     -0.794557    20A     -0.739395    21A     -0.701879
      22A     -0.698177    23A     -0.682404    24A     -0.645175
      25A     -0.628813    26A     -0.619372    27A     -0.594340
      28A     -0.590302    29A     -0.572410    30A     -0.559826
      31A     -0.552231    32A     -0.547353    33A     -0.529019
      34A     -0.503615    35A     -0.489857    36A     -0.477192
      37A     -0.473760    38A     -0.452686    39A     -0.438820

  @DF-RHF Final Energy:  -496.85699962017225

   => Energetics <=

    Nuclear Repulsion Energy =            554.1333572609946714
    One-Electron Energy =               -1777.4989378254729218
    Two-Electron Energy =                 726.5085809443060043
    Total Energy =                       -496.8569996201722461
  Basis Set: (AUG-CC-PVTZ AUX)
    Blend: AUG-CC-PVTZ-RI
    Molecular point group: c1

    Geometry (in Angstrom), charge = 0, multiplicity = 1:

       Center              X                  Y                   Z               Mass
    ------------   -----------------  -----------------  -----------------  -----------------
         O           -0.907578197747    -0.128843077122    -0.740271602832    15.994914619570
         O           -0.418004197747     1.963036922878     0.072657397168    15.994914619570
         O           -1.930581197747    -0.113809077122     1.313847397168    15.994914619570
         C            1.920492802253    -0.588321077122    -0.048611602832    12.000000000000
         C            1.358806802253     0.588090922878    -0.864282602832    12.000000000000
         C            1.818940702253    -0.287978677122     1.548411197168    12.000000000000
         C            3.359990802253    -0.871347077122    -0.471720602832    12.000000000000
         C           -0.036300197747     0.936801922878    -0.437305602832    12.000000000000
         C           -1.962566197747    -0.389283077122     0.136133397168    12.000000000000
         C           -3.064611197747    -1.095472077122    -0.597008602832    12.000000000000
         H            1.309150802253    -1.469628077122    -0.278069602832     1.007825032230
         H            1.974653802253     1.482332922878    -0.725352602832     1.007825032230
         H            1.348827802253     0.333015922878    -1.930678602832     1.007825032230
         H            2.383891802253     0.600862922878     1.705761397168     1.007825032230
         H            2.249040802253    -1.136614077122     2.023712397168     1.007825032230
         H            0.788889802253    -0.168302077122     1.773666397168     1.007825032230
         H            4.000739802253    -0.010294077122    -0.253079602832     1.007825032230
         H            3.759655802253    -1.733816077122     0.070307397168     1.007825032230
         H            3.427921802253    -1.082744077122    -1.543682602832     1.007825032230
         H           -3.487022197747    -0.422872077122    -1.347916602832     1.007825032230
         H           -3.834632197747    -1.396978077122     0.111995397168     1.007825032230
         H           -2.664187197747    -1.967699077122    -1.118663602832     1.007825032230

  Basis Set: AUG-CC-PVTZ
    Blend: AUG-CC-PVTZ
  Basis Set: (AUG-CC-PVTZ AUX)
    Blend: AUG-CC-PVTZ-JKFIT
	 Reference Energy          =    -496.8569996201722461 [Eh]
	 Singles Energy            =      -0.0000000000000000 [Eh]
	 Same-Spin Energy          =      -0.4941689451120700 [Eh]
	 Opposite-Spin Energy      =      -1.5977600462932773 [Eh]
	 Correlation Energy        =      -2.0919289914053474 [Eh]
	 Total Energy              =    -498.9489286115775712 [Eh]

	 ================> DF-SCS-MP2 Energies <==================
	-----------------------------------------------------------
	 SCS Same-Spin Scale       =       0.3333333333333333 [-]
	 SCS Opposite-Spin Scale   =       1.2000000000000000 [-]
	 SCS Same-Spin Energy      =      -0.1647229817040233 [Eh]
	 SCS Opposite-Spin Energy  =      -1.9173120555519327 [Eh]
	 SCS Correlation Energy    =      -2.0820350372559560 [Eh]
	 SCS Total Energy          =    -498.9390346574281807 [Eh]
	-----------------------------------------------------------

  Dipole Moment: [D]
     X:     0.7966      Y:    -2.4992      Z:    -2.5729     Total:     3.6743

*** Psi4 exiting successfully. Buy a developer a beer!
