                               Psi4 1.4a3.dev225

  ==> Input File <==

--------------------------------------------------------------------------
#psi4
#
memory 32 gb

molecule  {
0 1
  O       -0.9795470    -0.0831330    -0.7231310
  O       -0.4899730     2.0087470     0.0897980
  O       -2.0025500    -0.0680990     1.3309880
  C        1.8485240    -0.5426110    -0.0314710
  C        1.2868380     0.6338010    -0.8471420
  C        1.7532090    -0.2607150     1.4674660
  C        3.2880220    -0.8256370    -0.4545800
  C       -0.1082690     0.9825120    -0.4201650
  C       -2.0345350    -0.3435730     0.1532740
  C       -3.1365800    -1.0497620    -0.5798680
  H        1.2371820    -1.4239180    -0.2609290
  H        1.9026850     1.5280430    -0.7082120
  H        1.2768590     0.3787260    -1.9135380
  H        2.3119230     0.6465730     1.7229020
  H        2.1770720    -1.0909040     2.0408530
  H        0.7169210    -0.1225920     1.7908070
  H        3.9287710     0.0354160    -0.2359390
  H        3.6804000    -1.6700029     0.1202809
  H        3.3559530    -1.0370340    -1.5265420
  H       -3.5589910    -0.3771620    -1.3307760
  H       -3.9066010    -1.3512680     0.1291360
  H       -2.7361560    -1.9219890    -1.1015230
units angstrom
no_reorient  #important for SAPT in psi4, default
symmetry c1  #important for SAPT in psi4, default
}

set PROPERTIES_ORIGIN ["COM"]
properties('MP2/aug-cc-pvtz', properties = ['dipole'])
--------------------------------------------------------------------------

    Molecular point group: c1
  Charge       = 0
  Multiplicity = 1
  Basis Set: AUG-CC-PVTZ
    Blend: AUG-CC-PVTZ
  Basis Set: (AUG-CC-PVTZ AUX)
    Blend: AUG-CC-PVTZ-JKFIT

    Orbital Energies [Eh]
    ---------------------

    Doubly Occupied:

       1A    -20.626643     2A    -20.564763     3A    -20.564524
       4A    -11.404055     5A    -11.398434     6A    -11.254882
       7A    -11.250507     8A    -11.245550     9A    -11.224691
      10A    -11.215666    11A     -1.485475    12A     -1.405102
      13A     -1.363447    14A     -1.113705    15A     -1.042898
      16A     -0.991302    17A     -0.938536    18A     -0.868141
      19A     -0.794503    20A     -0.739392    21A     -0.702048
      22A     -0.698321    23A     -0.682762    24A     -0.648165
      25A     -0.629174    26A     -0.621444    27A     -0.595161
      28A     -0.590052    29A     -0.569882    30A     -0.555312
      31A     -0.552037    32A     -0.539354    33A     -0.527390
      34A     -0.495528    35A     -0.487218    36A     -0.479950
      37A     -0.473835    38A     -0.471293    39A     -0.439287

  @DF-RHF Final Energy:  -496.86380615491015

   => Energetics <=

    Nuclear Repulsion Energy =            555.6832916370357225
    One-Electron Energy =               -1780.5933416197810857
    Two-Electron Energy =                 728.0462438278352693
    Total Energy =                       -496.8638061549102076
  Basis Set: (AUG-CC-PVTZ AUX)
    Blend: AUG-CC-PVTZ-RI
    Molecular point group: c1

    Geometry (in Angstrom), charge = 0, multiplicity = 1:

       Center              X                  Y                   Z               Mass
    ------------   -----------------  -----------------  -----------------  -----------------
         O           -0.908046700066    -0.127433346737    -0.732331912759    15.994914619570
         O           -0.418472700066     1.964446653263     0.080597087241    15.994914619570
         O           -1.931049700066    -0.112399346737     1.321787087241    15.994914619570
         C            1.920024299934    -0.586911346737    -0.040671912759    12.000000000000
         C            1.358338299934     0.589500653263    -0.856342912759    12.000000000000
         C            1.824709299934    -0.305015346737     1.458265087241    12.000000000000
         C            3.359522299934    -0.869937346737    -0.463780912759    12.000000000000
         C           -0.036768700066     0.938211653263    -0.429365912759    12.000000000000
         C           -1.963034700066    -0.387873346737     0.144073087241    12.000000000000
         C           -3.065079700066    -1.094062346737    -0.589068912759    12.000000000000
         H            1.308682299934    -1.468218346737    -0.270129912759     1.007825032230
         H            1.974185299934     1.483742653263    -0.717412912759     1.007825032230
         H            1.348359299934     0.334425653263    -1.922738912759     1.007825032230
         H            2.383423299934     0.602272653263     1.713701087241     1.007825032230
         H            2.248572299934    -1.135204346737     2.031652087241     1.007825032230
         H            0.788421299934    -0.166892346737     1.781606087241     1.007825032230
         H            4.000271299934    -0.008884346737    -0.245139912759     1.007825032230
         H            3.751900299934    -1.714303246737     0.111079987241     1.007825032230
         H            3.427453299934    -1.081334346737    -1.535742912759     1.007825032230
         H           -3.487490700066    -0.421462346737    -1.339976912759     1.007825032230
         H           -3.835100700066    -1.395568346737     0.119935087241     1.007825032230
         H           -2.664655700066    -1.966289346737    -1.110723912759     1.007825032230

  Basis Set: AUG-CC-PVTZ
    Blend: AUG-CC-PVTZ
  Basis Set: (AUG-CC-PVTZ AUX)
    Blend: AUG-CC-PVTZ-JKFIT
	 Reference Energy          =    -496.8638061549101508 [Eh]
	 Singles Energy            =      -0.0000000000000000 [Eh]
	 Same-Spin Energy          =      -0.4946383865430030 [Eh]
	 Opposite-Spin Energy      =      -1.5978546181180471 [Eh]
	 Correlation Energy        =      -2.0924930046610499 [Eh]
	 Total Energy              =    -498.9562991595711878 [Eh]

	 ================> DF-SCS-MP2 Energies <==================
	-----------------------------------------------------------
	 SCS Same-Spin Scale       =       0.3333333333333333 [-]
	 SCS Opposite-Spin Scale   =       1.2000000000000000 [-]
	 SCS Same-Spin Energy      =      -0.1648794621810010 [Eh]
	 SCS Opposite-Spin Energy  =      -1.9174255417416564 [Eh]
	 SCS Correlation Energy    =      -2.0823050039226572 [Eh]
	 SCS Total Energy          =    -498.9461111588328208 [Eh]
	-----------------------------------------------------------

  Dipole Moment: [D]
     X:     0.7874      Y:    -2.4890      Z:    -2.5335     Total:     3.6378

*** Psi4 exiting successfully. Buy a developer a beer!
