                               Psi4 1.4a3.dev225

  ==> Input File <==

--------------------------------------------------------------------------
#psi4
#
memory 32 gb

molecule  {
0 1
  O       -0.9795470    -0.0831330    -0.7231310
  O       -0.4899730     2.0087470     0.0897980
  O       -2.0025500    -0.0680990     1.3309880
  C        1.8485240    -0.5426110    -0.0314710
  C        1.2868380     0.6338010    -0.8471420
  C        1.7532090    -0.2607150     1.4674660
  C        3.2880220    -0.8256370    -0.4545800
  C       -0.1082690     0.9825120    -0.4201650
  C       -2.0345350    -0.3435730     0.1532740
  C       -3.1365800    -1.0497620    -0.5798680
  H        1.2371820    -1.4239180    -0.2609290
  H        1.9026850     1.5280430    -0.7082120
  H        1.2768590     0.3787260    -1.9135380
  H        2.3119230     0.6465730     1.7229020
  H        2.1770720    -1.0909040     2.0408530
  H        0.7169210    -0.1225920     1.7908070
  H        3.9287710     0.0354160    -0.2359390
  H        3.6694249    -1.6486968     0.0626809
  H        3.3559530    -1.0370340    -1.5265420
  H       -3.5589910    -0.3771620    -1.3307760
  H       -3.9066010    -1.3512680     0.1291360
  H       -2.7361560    -1.9219890    -1.1015230
units angstrom
no_reorient  #important for SAPT in psi4, default
symmetry c1  #important for SAPT in psi4, default
}

set PROPERTIES_ORIGIN ["COM"]
properties('MP2/aug-cc-pvtz', properties = ['dipole'])
--------------------------------------------------------------------------

    Molecular point group: c1
  Charge       = 0
  Multiplicity = 1
  Basis Set: AUG-CC-PVTZ
    Blend: AUG-CC-PVTZ
  Basis Set: (AUG-CC-PVTZ AUX)
    Blend: AUG-CC-PVTZ-JKFIT

    Orbital Energies [Eh]
    ---------------------

    Doubly Occupied:

       1A    -20.626503     2A    -20.564668     3A    -20.564361
       4A    -11.403960     5A    -11.398223     6A    -11.254812
       7A    -11.250193     8A    -11.245300     9A    -11.218422
      10A    -11.215567    11A     -1.485340    12A     -1.404972
      13A     -1.363316    14A     -1.113804    15A     -1.042951
      16A     -0.992308    17A     -0.941083    18A     -0.868591
      19A     -0.795803    20A     -0.739260    21A     -0.702135
      22A     -0.698503    23A     -0.682657    24A     -0.648906
      25A     -0.629489    26A     -0.620948    27A     -0.595291
      28A     -0.590178    29A     -0.570609    30A     -0.556418
      31A     -0.551374    32A     -0.544540    33A     -0.527243
      34A     -0.495541    35A     -0.487281    36A     -0.479624
      37A     -0.473585    38A     -0.471530    39A     -0.439573

  @DF-RHF Final Energy:  -496.86299865397410

   => Energetics <=

    Nuclear Repulsion Energy =            555.8769247376976637
    One-Electron Energy =               -1780.9701238913114594
    Two-Electron Energy =                 728.2302004996396363
    Total Energy =                       -496.8629986539741594
  Basis Set: (AUG-CC-PVTZ AUX)
    Blend: AUG-CC-PVTZ-RI
    Molecular point group: c1

    Geometry (in Angstrom), charge = 0, multiplicity = 1:

       Center              X                  Y                   Z               Mass
    ------------   -----------------  -----------------  -----------------  -----------------
         O           -0.907969929629    -0.127582382155    -0.731929002791    15.994914619570
         O           -0.418395929629     1.964297617845     0.080999997209    15.994914619570
         O           -1.930972929629    -0.112548382155     1.322189997209    15.994914619570
         C            1.920101070371    -0.587060382155    -0.040269002791    12.000000000000
         C            1.358415070371     0.589351617845    -0.855940002791    12.000000000000
         C            1.824786070371    -0.305164382155     1.458667997209    12.000000000000
         C            3.359599070371    -0.870086382155    -0.463378002791    12.000000000000
         C           -0.036691929629     0.938062617845    -0.428963002791    12.000000000000
         C           -1.962957929629    -0.388022382155     0.144475997209    12.000000000000
         C           -3.065002929629    -1.094211382155    -0.588666002791    12.000000000000
         H            1.308759070371    -1.468367382155    -0.269727002791     1.007825032230
         H            1.974262070371     1.483593617845    -0.717010002791     1.007825032230
         H            1.348436070371     0.334276617845    -1.922336002791     1.007825032230
         H            2.383500070371     0.602123617845     1.714103997209     1.007825032230
         H            2.248649070371    -1.135353382155     2.032054997209     1.007825032230
         H            0.788498070371    -0.167041382155     1.782008997209     1.007825032230
         H            4.000348070371    -0.009033382155    -0.244737002791     1.007825032230
         H            3.741001970371    -1.693146182155     0.053882897209     1.007825032230
         H            3.427530070371    -1.081483382155    -1.535340002791     1.007825032230
         H           -3.487413929629    -0.421611382155    -1.339574002791     1.007825032230
         H           -3.835023929629    -1.395717382155     0.120337997209     1.007825032230
         H           -2.664578929629    -1.966438382155    -1.110321002791     1.007825032230

  Basis Set: AUG-CC-PVTZ
    Blend: AUG-CC-PVTZ
  Basis Set: (AUG-CC-PVTZ AUX)
    Blend: AUG-CC-PVTZ-JKFIT
	 Reference Energy          =    -496.8629986539741026 [Eh]
	 Singles Energy            =      -0.0000000000000000 [Eh]
	 Same-Spin Energy          =      -0.4946181136786404 [Eh]
	 Opposite-Spin Energy      =      -1.5975251274331790 [Eh]
	 Correlation Energy        =      -2.0921432411118195 [Eh]
	 Total Energy              =    -498.9551418950859443 [Eh]

	 ================> DF-SCS-MP2 Energies <==================
	-----------------------------------------------------------
	 SCS Same-Spin Scale       =       0.3333333333333333 [-]
	 SCS Opposite-Spin Scale   =       1.2000000000000000 [-]
	 SCS Same-Spin Energy      =      -0.1648727045595468 [Eh]
	 SCS Opposite-Spin Energy  =      -1.9170301529198146 [Eh]
	 SCS Correlation Energy    =      -2.0819028574793612 [Eh]
	 SCS Total Energy          =    -498.9449015114534518 [Eh]
	-----------------------------------------------------------

  Dipole Moment: [D]
     X:     0.8088      Y:    -2.5200      Z:    -2.5309     Total:     3.6619

*** Psi4 exiting successfully. Buy a developer a beer!
