                               Psi4 1.4a3.dev225

  ==> Input File <==

--------------------------------------------------------------------------
#psi4
#
memory 32 gb

molecule  {
0 1
  O       -0.9795470    -0.0831330    -0.7231310
  O       -0.4899730     2.0087470     0.0897980
  O       -2.0025500    -0.0680990     1.3309880
  C        1.8485240    -0.5426110    -0.0314710
  C        1.2868380     0.6338010    -0.8471420
  C        1.7532090    -0.2607150     1.4674660
  C        3.2880220    -0.8256370    -0.4545800
  C       -0.1547702     0.9941351    -0.4059332
  C       -2.0345350    -0.3435730     0.1532740
  C       -3.1365800    -1.0497620    -0.5798680
  H        1.2371820    -1.4239180    -0.2609290
  H        1.9026850     1.5280430    -0.7082120
  H        1.2768590     0.3787260    -1.9135380
  H        2.3119230     0.6465730     1.7229020
  H        2.1770720    -1.0909040     2.0408530
  H        0.7169210    -0.1225920     1.7908070
  H        3.9287710     0.0354160    -0.2359390
  H        3.6876870    -1.6881060     0.0874480
  H        3.3559530    -1.0370340    -1.5265420
  H       -3.5589910    -0.3771620    -1.3307760
  H       -3.9066010    -1.3512680     0.1291360
  H       -2.7361560    -1.9219890    -1.1015230
units angstrom
no_reorient  #important for SAPT in psi4, default
symmetry c1  #important for SAPT in psi4, default
}

set PROPERTIES_ORIGIN ["COM"]
properties('MP2/aug-cc-pvtz', properties = ['dipole'])
--------------------------------------------------------------------------

    Molecular point group: c1
  Charge       = 0
  Multiplicity = 1
  Basis Set: AUG-CC-PVTZ
    Blend: AUG-CC-PVTZ
  Basis Set: (AUG-CC-PVTZ AUX)
    Blend: AUG-CC-PVTZ-JKFIT

    Orbital Energies [Eh]
    ---------------------

    Doubly Occupied:

       1A    -20.630194     2A    -20.567879     3A    -20.566157
       4A    -11.406149     5A    -11.394153     6A    -11.256251
       7A    -11.247735     8A    -11.242036     9A    -11.222231
      10A    -11.213804    11A     -1.495036    12A     -1.418451
      13A     -1.373881    14A     -1.106539    15A     -1.044611
      16A     -0.980298    17A     -0.936422    18A     -0.870832
      19A     -0.789726    20A     -0.743514    21A     -0.705444
      22A     -0.700828    23A     -0.688889    24A     -0.644862
      25A     -0.629581    26A     -0.621191    27A     -0.596831
      28A     -0.591227    29A     -0.571579    30A     -0.553964
      31A     -0.550686    32A     -0.539065    33A     -0.533068
      34A     -0.496626    35A     -0.488063    36A     -0.478993
      37A     -0.474451    38A     -0.471742    39A     -0.433872

  @DF-RHF Final Energy:  -496.86464369642817

   => Energetics <=

    Nuclear Repulsion Energy =            555.9200566328319155
    One-Electron Energy =               -1781.0156835852849326
    Two-Electron Energy =                 728.2309832560249561
    Total Energy =                       -496.8646436964281747
  Basis Set: (AUG-CC-PVTZ AUX)
    Blend: AUG-CC-PVTZ-RI
    Molecular point group: c1

    Geometry (in Angstrom), charge = 0, multiplicity = 1:

       Center              X                  Y                   Z               Mass
    ------------   -----------------  -----------------  -----------------  -----------------
         O           -0.904224687568    -0.128274779160    -0.733287583755    15.994914619570
         O           -0.414650687568     1.963605220840     0.079641416245    15.994914619570
         O           -1.927227687568    -0.113240779160     1.320831416245    15.994914619570
         C            1.923846312432    -0.587752779160    -0.041627583755    12.000000000000
         C            1.362160312432     0.588659220840    -0.857298583755    12.000000000000
         C            1.828531312432    -0.305856779160     1.457309416245    12.000000000000
         C            3.363344312432    -0.870778779160    -0.464736583755    12.000000000000
         C           -0.079447887568     0.948993320840    -0.416089783755    12.000000000000
         C           -1.959212687568    -0.388714779160     0.143117416245    12.000000000000
         C           -3.061257687568    -1.094903779160    -0.590024583755    12.000000000000
         H            1.312504312432    -1.469059779160    -0.271085583755     1.007825032230
         H            1.978007312432     1.482901220840    -0.718368583755     1.007825032230
         H            1.352181312432     0.333584220840    -1.923694583755     1.007825032230
         H            2.387245312432     0.601431220840     1.712745416245     1.007825032230
         H            2.252394312432    -1.136045779160     2.030696416245     1.007825032230
         H            0.792243312432    -0.167733779160     1.780650416245     1.007825032230
         H            4.004093312432    -0.009725779160    -0.246095583755     1.007825032230
         H            3.763009312432    -1.733247779160     0.077291416245     1.007825032230
         H            3.431275312432    -1.082175779160    -1.536698583755     1.007825032230
         H           -3.483668687568    -0.422303779160    -1.340932583755     1.007825032230
         H           -3.831278687568    -1.396409779160     0.118979416245     1.007825032230
         H           -2.660833687568    -1.967130779160    -1.111679583755     1.007825032230

  Basis Set: AUG-CC-PVTZ
    Blend: AUG-CC-PVTZ
  Basis Set: (AUG-CC-PVTZ AUX)
    Blend: AUG-CC-PVTZ-JKFIT
	 Reference Energy          =    -496.8646436964281747 [Eh]
	 Singles Energy            =      -0.0000000000000000 [Eh]
	 Same-Spin Energy          =      -0.4935282549578722 [Eh]
	 Opposite-Spin Energy      =      -1.5958274050733272 [Eh]
	 Correlation Energy        =      -2.0893556600311993 [Eh]
	 Total Energy              =    -498.9539993564593487 [Eh]

	 ================> DF-SCS-MP2 Energies <==================
	-----------------------------------------------------------
	 SCS Same-Spin Scale       =       0.3333333333333333 [-]
	 SCS Opposite-Spin Scale   =       1.2000000000000000 [-]
	 SCS Same-Spin Energy      =      -0.1645094183192907 [Eh]
	 SCS Opposite-Spin Energy  =      -1.9149928860879926 [Eh]
	 SCS Correlation Energy    =      -2.0795023044072831 [Eh]
	 SCS Total Energy          =    -498.9441460008354738 [Eh]
	-----------------------------------------------------------

  Dipole Moment: [D]
     X:     0.4579      Y:    -2.4274      Z:    -2.4786     Total:     3.4993

*** Psi4 exiting successfully. Buy a developer a beer!
