                               Psi4 1.4a3.dev225

  ==> Input File <==

--------------------------------------------------------------------------
#psi4
#
memory 32 gb

molecule  {
0 1
  O       -0.9795470    -0.0831330    -0.7231310
  O       -0.4899730     2.0087470     0.0897980
  O       -2.0025500    -0.0680990     1.3309880
  C        1.8485240    -0.5426110    -0.0314710
  C        1.2868380     0.6338010    -0.8471420
  C        1.7532090    -0.2607150     1.4674660
  C        3.2880220    -0.8256370    -0.4545800
  C       -0.1082690     0.9825120    -0.4201650
  C       -2.0345350    -0.3435730     0.1532740
  C       -3.0998509    -1.0262260    -0.5554338
  H        1.2371820    -1.4239180    -0.2609290
  H        1.9026850     1.5280430    -0.7082120
  H        1.2768590     0.3787260    -1.9135380
  H        2.3119230     0.6465730     1.7229020
  H        2.1770720    -1.0909040     2.0408530
  H        0.7169210    -0.1225920     1.7908070
  H        3.9287710     0.0354160    -0.2359390
  H        3.6876870    -1.6881060     0.0874480
  H        3.3559530    -1.0370340    -1.5265420
  H       -3.5589910    -0.3771620    -1.3307760
  H       -3.9066010    -1.3512680     0.1291360
  H       -2.7361560    -1.9219890    -1.1015230
units angstrom
no_reorient  #important for SAPT in psi4, default
symmetry c1  #important for SAPT in psi4, default
}

set PROPERTIES_ORIGIN ["COM"]
properties('MP2/aug-cc-pvtz', properties = ['dipole'])
--------------------------------------------------------------------------

    Molecular point group: c1
  Charge       = 0
  Multiplicity = 1
  Basis Set: AUG-CC-PVTZ
    Blend: AUG-CC-PVTZ
  Basis Set: (AUG-CC-PVTZ AUX)
    Blend: AUG-CC-PVTZ-JKFIT

    Orbital Energies [Eh]
    ---------------------

    Doubly Occupied:

       1A    -20.626068     2A    -20.564391     3A    -20.564038
       4A    -11.402089     5A    -11.398276     6A    -11.255981
       7A    -11.250456     8A    -11.245605     9A    -11.224527
      10A    -11.215435    11A     -1.485922    12A     -1.405388
      13A     -1.363464    14A     -1.113740    15A     -1.050649
      16A     -0.991302    17A     -0.938542    18A     -0.866922
      19A     -0.794557    20A     -0.740327    21A     -0.706387
      22A     -0.698982    23A     -0.683849    24A     -0.648652
      25A     -0.628996    26A     -0.624227    27A     -0.595859
      28A     -0.582775    29A     -0.567580    30A     -0.552359
      31A     -0.551059    32A     -0.539722    33A     -0.524588
      34A     -0.495793    35A     -0.486518    36A     -0.479797
      37A     -0.474391    38A     -0.471235    39A     -0.441127

  @DF-RHF Final Energy:  -496.86100019536599

   => Energetics <=

    Nuclear Repulsion Energy =            556.6221271183188719
    One-Electron Energy =               -1782.4631045214457572
    Two-Electron Energy =                 728.9799772077610669
    Total Energy =                       -496.8610001953659321
  Basis Set: (AUG-CC-PVTZ AUX)
    Blend: AUG-CC-PVTZ-RI
    Molecular point group: c1

    Geometry (in Angstrom), charge = 0, multiplicity = 1:

       Center              X                  Y                   Z               Mass
    ------------   -----------------  -----------------  -----------------  -----------------
         O           -0.911156760016    -0.129266978946    -0.734137319680    15.994914619570
         O           -0.421582760016     1.962613021054     0.078791680320    15.994914619570
         O           -1.934159760016    -0.114232978946     1.319981680320    15.994914619570
         C            1.916914239984    -0.588744978946    -0.042477319680    12.000000000000
         C            1.355228239984     0.587667021054    -0.858148319680    12.000000000000
         C            1.821599239984    -0.306848978946     1.456459680320    12.000000000000
         C            3.356412239984    -0.871770978946    -0.465586319680    12.000000000000
         C           -0.039878760016     0.936378021054    -0.431171319680    12.000000000000
         C           -1.966144760016    -0.389706978946     0.142267680320    12.000000000000
         C           -3.031460660016    -1.072359978946    -0.566440119680    12.000000000000
         H            1.305572239984    -1.470051978946    -0.271935319680     1.007825032230
         H            1.971075239984     1.481909021054    -0.719218319680     1.007825032230
         H            1.345249239984     0.332592021054    -1.924544319680     1.007825032230
         H            2.380313239984     0.600439021054     1.711895680320     1.007825032230
         H            2.245462239984    -1.137037978946     2.029846680320     1.007825032230
         H            0.785311239984    -0.168725978946     1.779800680320     1.007825032230
         H            3.997161239984    -0.010717978946    -0.246945319680     1.007825032230
         H            3.756077239984    -1.734239978946     0.076441680320     1.007825032230
         H            3.424343239984    -1.083167978946    -1.537548319680     1.007825032230
         H           -3.490600760016    -0.423295978946    -1.341782319680     1.007825032230
         H           -3.838210760016    -1.397401978946     0.118129680320     1.007825032230
         H           -2.667765760016    -1.968122978946    -1.112529319680     1.007825032230

  Basis Set: AUG-CC-PVTZ
    Blend: AUG-CC-PVTZ
  Basis Set: (AUG-CC-PVTZ AUX)
    Blend: AUG-CC-PVTZ-JKFIT
	 Reference Energy          =    -496.8610001953659889 [Eh]
	 Singles Energy            =      -0.0000000000000000 [Eh]
	 Same-Spin Energy          =      -0.4950467563347585 [Eh]
	 Opposite-Spin Energy      =      -1.5982041989922151 [Eh]
	 Correlation Energy        =      -2.0932509553269738 [Eh]
	 Total Energy              =    -498.9542511506929827 [Eh]

	 ================> DF-SCS-MP2 Energies <==================
	-----------------------------------------------------------
	 SCS Same-Spin Scale       =       0.3333333333333333 [-]
	 SCS Opposite-Spin Scale   =       1.2000000000000000 [-]
	 SCS Same-Spin Energy      =      -0.1650155854449195 [Eh]
	 SCS Opposite-Spin Energy  =      -1.9178450387906580 [Eh]
	 SCS Correlation Energy    =      -2.0828606242355776 [Eh]
	 SCS Total Energy          =    -498.9438608196015821 [Eh]
	-----------------------------------------------------------

  Dipole Moment: [D]
     X:     0.7238      Y:    -2.5342      Z:    -2.5833     Total:     3.6905

*** Psi4 exiting successfully. Buy a developer a beer!
