                               Psi4 1.4a3.dev225

  ==> Input File <==

--------------------------------------------------------------------------
#psi4
#
memory 32 gb

molecule  {
0 1
  O       -0.9795470    -0.0831330    -0.7231310
  O       -0.4899730     2.0087470     0.0897980
  O       -2.0025500    -0.0680990     1.3309880
  C        1.8485240    -0.5426110    -0.0314710
  C        1.2868380     0.6338010    -0.8471420
  C        1.7544564    -0.2644043     1.4478488
  C        3.2880220    -0.8256370    -0.4545800
  C       -0.1082690     0.9825120    -0.4201650
  C       -2.0345350    -0.3435730     0.1532740
  C       -3.1365800    -1.0497620    -0.5798680
  H        1.2371820    -1.4239180    -0.2609290
  H        1.9026850     1.5280430    -0.7082120
  H        1.2768590     0.3787260    -1.9135380
  H        2.3119230     0.6465730     1.7229020
  H        2.1770720    -1.0909040     2.0408530
  H        0.7169210    -0.1225920     1.7908070
  H        3.9287710     0.0354160    -0.2359390
  H        3.6876870    -1.6881060     0.0874480
  H        3.3559530    -1.0370340    -1.5265420
  H       -3.5589910    -0.3771620    -1.3307760
  H       -3.9066010    -1.3512680     0.1291360
  H       -2.7361560    -1.9219890    -1.1015230
units angstrom
no_reorient  #important for SAPT in psi4, default
symmetry c1  #important for SAPT in psi4, default
}

set PROPERTIES_ORIGIN ["COM"]
properties('MP2/aug-cc-pvtz', properties = ['dipole'])
--------------------------------------------------------------------------

    Molecular point group: c1
  Charge       = 0
  Multiplicity = 1
  Basis Set: AUG-CC-PVTZ
    Blend: AUG-CC-PVTZ
  Basis Set: (AUG-CC-PVTZ AUX)
    Blend: AUG-CC-PVTZ-JKFIT

    Orbital Energies [Eh]
    ---------------------

    Doubly Occupied:

       1A    -20.626682     2A    -20.564742     3A    -20.564603
       4A    -11.404048     5A    -11.398561     6A    -11.254887
       7A    -11.250702     8A    -11.244955     9A    -11.224672
      10A    -11.216464    11A     -1.485508    12A     -1.405123
      13A     -1.363472    14A     -1.115758    15A     -1.043090
      16A     -0.991767    17A     -0.938603    18A     -0.868138
      19A     -0.794585    20A     -0.739437    21A     -0.702170
      22A     -0.698449    23A     -0.682934    24A     -0.649524
      25A     -0.629347    26A     -0.621286    27A     -0.594462
      28A     -0.590043    29A     -0.570114    30A     -0.555318
      31A     -0.551329    32A     -0.538302    33A     -0.527067
      34A     -0.494323    35A     -0.486543    36A     -0.482403
      37A     -0.474680    38A     -0.470272    39A     -0.439485

  @DF-RHF Final Energy:  -496.86332200979820

   => Energetics <=

    Nuclear Repulsion Energy =            555.9563250993064685
    One-Electron Energy =               -1781.1315948028786806
    Two-Electron Energy =                 728.3119476937740728
    Total Energy =                       -496.8633220097981393
  Basis Set: (AUG-CC-PVTZ AUX)
    Blend: AUG-CC-PVTZ-RI
    Molecular point group: c1

    Geometry (in Angstrom), charge = 0, multiplicity = 1:

       Center              X                  Y                   Z               Mass
    ------------   -----------------  -----------------  -----------------  -----------------
         O           -0.908201565634    -0.126999442339    -0.730468373440    15.994914619570
         O           -0.418627565634     1.964880557661     0.082460626560    15.994914619570
         O           -1.931204565634    -0.111965442339     1.323650626560    15.994914619570
         C            1.919869434366    -0.586477442339    -0.038808373440    12.000000000000
         C            1.358183434366     0.589934557661    -0.854479373440    12.000000000000
         C            1.825801834366    -0.308270742339     1.440511426560    12.000000000000
         C            3.359367434366    -0.869503442339    -0.461917373440    12.000000000000
         C           -0.036923565634     0.938645557661    -0.427502373440    12.000000000000
         C           -1.963189565634    -0.387439442339     0.145936626560    12.000000000000
         C           -3.065234565634    -1.093628442339    -0.587205373440    12.000000000000
         H            1.308527434366    -1.467784442339    -0.268266373440     1.007825032230
         H            1.974030434366     1.484176557661    -0.715549373440     1.007825032230
         H            1.348204434366     0.334859557661    -1.920875373440     1.007825032230
         H            2.383268434366     0.602706557661     1.715564626560     1.007825032230
         H            2.248417434366    -1.134770442339     2.033515626560     1.007825032230
         H            0.788266434366    -0.166458442339     1.783469626560     1.007825032230
         H            4.000116434366    -0.008450442339    -0.243276373440     1.007825032230
         H            3.759032434366    -1.731972442339     0.080110626560     1.007825032230
         H            3.427298434366    -1.080900442339    -1.533879373440     1.007825032230
         H           -3.487645565634    -0.421028442339    -1.338113373440     1.007825032230
         H           -3.835255565634    -1.395134442339     0.121798626560     1.007825032230
         H           -2.664810565634    -1.965855442339    -1.108860373440     1.007825032230

  Basis Set: AUG-CC-PVTZ
    Blend: AUG-CC-PVTZ
  Basis Set: (AUG-CC-PVTZ AUX)
    Blend: AUG-CC-PVTZ-JKFIT
	 Reference Energy          =    -496.8633220097981962 [Eh]
	 Singles Energy            =      -0.0000000000000000 [Eh]
	 Same-Spin Energy          =      -0.4947883808489865 [Eh]
	 Opposite-Spin Energy      =      -1.5979824554354114 [Eh]
	 Correlation Energy        =      -2.0927708362843980 [Eh]
	 Total Energy              =    -498.9560928460825835 [Eh]

	 ================> DF-SCS-MP2 Energies <==================
	-----------------------------------------------------------
	 SCS Same-Spin Scale       =       0.3333333333333333 [-]
	 SCS Opposite-Spin Scale   =       1.2000000000000000 [-]
	 SCS Same-Spin Energy      =      -0.1649294602829955 [Eh]
	 SCS Opposite-Spin Energy  =      -1.9175789465224935 [Eh]
	 SCS Correlation Energy    =      -2.0825084068054891 [Eh]
	 SCS Total Energy          =    -498.9458304166037124 [Eh]
	-----------------------------------------------------------

  Dipole Moment: [D]
     X:     0.7840      Y:    -2.4966      Z:    -2.5372     Total:     3.6449

*** Psi4 exiting successfully. Buy a developer a beer!
