                               Psi4 1.4a3.dev225

  ==> Input File <==

--------------------------------------------------------------------------
#psi4
#
memory 32 gb

molecule  {
0 1
  O       -0.9795470    -0.0831330    -0.7231310
  O       -0.4899730     2.0087470     0.0897980
  O       -2.0025500    -0.0680990     1.3309880
  C        1.8485240    -0.5426110    -0.0314710
  C        1.2868380     0.6338010    -0.8471420
  C        1.7532090    -0.2607150     1.4674660
  C        3.2880220    -0.8256370    -0.4545800
  C       -0.1082690     0.9825120    -0.4201650
  C       -2.0345350    -0.3435730     0.1532740
  C       -3.1365800    -1.0497620    -0.5798680
  H        1.2371820    -1.4239180    -0.2609290
  H        1.9026850     1.5280430    -0.7082120
  H        1.2768590     0.3787260    -1.9135380
  H        2.3119230     0.6465730     1.7229020
  H        2.1770720    -1.0909040     2.0408530
  H        0.7169210    -0.1225920     1.7908070
  H        3.9287710     0.0354160    -0.2359390
  H        3.6876870    -1.6881060     0.0874480
  H        3.3559530    -1.0370340    -1.5265420
  H       -3.5380500    -0.4277025    -1.3839504
  H       -3.9066010    -1.3512680     0.1291360
  H       -2.7361560    -1.9219890    -1.1015230
units angstrom
no_reorient  #important for SAPT in psi4, default
symmetry c1  #important for SAPT in psi4, default
}

set PROPERTIES_ORIGIN ["COM"]
properties('MP2/aug-cc-pvtz', properties = ['dipole'])
--------------------------------------------------------------------------

    Molecular point group: c1
  Charge       = 0
  Multiplicity = 1
  Basis Set: AUG-CC-PVTZ
    Blend: AUG-CC-PVTZ
  Basis Set: (AUG-CC-PVTZ AUX)
    Blend: AUG-CC-PVTZ-JKFIT

    Orbital Energies [Eh]
    ---------------------

    Doubly Occupied:

       1A    -20.626639     2A    -20.565187     3A    -20.564587
       4A    -11.404634     5A    -11.398518     6A    -11.254869
       7A    -11.250635     8A    -11.245736     9A    -11.224633
      10A    -11.215568    11A     -1.485557    12A     -1.405288
      13A     -1.363592    14A     -1.113636    15A     -1.042701
      16A     -0.991166    17A     -0.938664    18A     -0.868328
      19A     -0.794684    20A     -0.739855    21A     -0.703587
      22A     -0.698389    23A     -0.682834    24A     -0.648819
      25A     -0.627346    26A     -0.621526    27A     -0.594771
      28A     -0.590766    29A     -0.568360    30A     -0.555920
      31A     -0.551287    32A     -0.539808    33A     -0.526315
      34A     -0.495838    35A     -0.487206    36A     -0.479817
      37A     -0.474217    38A     -0.471411    39A     -0.439845

  @DF-RHF Final Energy:  -496.86338391491108

   => Energetics <=

    Nuclear Repulsion Energy =            555.6085276927831273
    One-Electron Energy =               -1780.4387447229898953
    Two-Electron Energy =                 727.9668331152956853
    Total Energy =                       -496.8633839149110827
  Basis Set: (AUG-CC-PVTZ AUX)
    Blend: AUG-CC-PVTZ-RI
    Molecular point group: c1

    Geometry (in Angstrom), charge = 0, multiplicity = 1:

       Center              X                  Y                   Z               Mass
    ------------   -----------------  -----------------  -----------------  -----------------
         O           -0.908244153930    -0.126953187177    -0.731730294730    15.994914619570
         O           -0.418670153930     1.964926812823     0.081198705270    15.994914619570
         O           -1.931247153930    -0.111919187177     1.322388705270    15.994914619570
         C            1.919826846070    -0.586431187177    -0.040070294730    12.000000000000
         C            1.358140846070     0.589980812823    -0.855741294730    12.000000000000
         C            1.824511846070    -0.304535187177     1.458866705270    12.000000000000
         C            3.359324846070    -0.869457187177    -0.463179294730    12.000000000000
         C           -0.036966153930     0.938691812823    -0.428764294730    12.000000000000
         C           -1.963232153930    -0.387393187177     0.144674705270    12.000000000000
         C           -3.065277153930    -1.093582187177    -0.588467294730    12.000000000000
         H            1.308484846070    -1.467738187177    -0.269528294730     1.007825032230
         H            1.973987846070     1.484222812823    -0.716811294730     1.007825032230
         H            1.348161846070     0.334905812823    -1.922137294730     1.007825032230
         H            2.383225846070     0.602752812823     1.714302705270     1.007825032230
         H            2.248374846070    -1.134724187177     2.032253705270     1.007825032230
         H            0.788223846070    -0.166412187177     1.782207705270     1.007825032230
         H            4.000073846070    -0.008404187177    -0.244538294730     1.007825032230
         H            3.758989846070    -1.731926187177     0.078848705270     1.007825032230
         H            3.427255846070    -1.080854187177    -1.535141294730     1.007825032230
         H           -3.466747153930    -0.471522687177    -1.392549694730     1.007825032230
         H           -3.835298153930    -1.395088187177     0.120536705270     1.007825032230
         H           -2.664853153930    -1.965809187177    -1.110122294730     1.007825032230

  Basis Set: AUG-CC-PVTZ
    Blend: AUG-CC-PVTZ
  Basis Set: (AUG-CC-PVTZ AUX)
    Blend: AUG-CC-PVTZ-JKFIT
	 Reference Energy          =    -496.8633839149110827 [Eh]
	 Singles Energy            =      -0.0000000000000000 [Eh]
	 Same-Spin Energy          =      -0.4946607946111174 [Eh]
	 Opposite-Spin Energy      =      -1.5978399296404664 [Eh]
	 Correlation Energy        =      -2.0925007242515838 [Eh]
	 Total Energy              =    -498.9558846391626616 [Eh]

	 ================> DF-SCS-MP2 Energies <==================
	-----------------------------------------------------------
	 SCS Same-Spin Scale       =       0.3333333333333333 [-]
	 SCS Opposite-Spin Scale   =       1.2000000000000000 [-]
	 SCS Same-Spin Energy      =      -0.1648869315370391 [Eh]
	 SCS Opposite-Spin Energy  =      -1.9174079155685595 [Eh]
	 SCS Correlation Energy    =      -2.0822948471055986 [Eh]
	 SCS Total Energy          =    -498.9456787620166551 [Eh]
	-----------------------------------------------------------

  Dipole Moment: [D]
     X:     0.7941      Y:    -2.5158      Z:    -2.5688     Total:     3.6822

*** Psi4 exiting successfully. Buy a developer a beer!
