                               Psi4 1.4a3.dev225

  ==> Input File <==

--------------------------------------------------------------------------
#psi4
#
memory 32 gb

molecule  {
0 1
  O       -0.9795470    -0.0831330    -0.7231310
  O       -0.4899730     2.0087470     0.0897980
  O       -2.0025500    -0.0680990     1.3309880
  C        1.8485240    -0.5426110    -0.0314710
  C        1.2868380     0.6338010    -0.8471420
  C        1.7532090    -0.2607150     1.4674660
  C        3.2880220    -0.8256370    -0.4545800
  C       -0.1082690     0.9825120    -0.4201650
  C       -2.0345350    -0.3435730     0.1532740
  C       -3.1365800    -1.0497620    -0.5798680
  H        1.2371820    -1.4239180    -0.2609290
  H        1.9026850     1.5280430    -0.7082120
  H        1.2768590     0.3787260    -1.9135380
  H        2.3119230     0.6465730     1.7229020
  H        2.1770720    -1.0909040     2.0408530
  H        0.7169210    -0.1225920     1.7908070
  H        3.9287710     0.0354160    -0.2359390
  H        3.6876870    -1.6881060     0.0874480
  H        3.3621583    -1.0563446    -1.6244634
  H       -3.5589910    -0.3771620    -1.3307760
  H       -3.9066010    -1.3512680     0.1291360
  H       -2.7361560    -1.9219890    -1.1015230
units angstrom
no_reorient  #important for SAPT in psi4, default
symmetry c1  #important for SAPT in psi4, default
}

set PROPERTIES_ORIGIN ["COM"]
properties('MP2/aug-cc-pvtz', properties = ['dipole'])
--------------------------------------------------------------------------

    Molecular point group: c1
  Charge       = 0
  Multiplicity = 1
  Basis Set: AUG-CC-PVTZ
    Blend: AUG-CC-PVTZ
  Basis Set: (AUG-CC-PVTZ AUX)
    Blend: AUG-CC-PVTZ-JKFIT

    Orbital Energies [Eh]
    ---------------------

    Doubly Occupied:

       1A    -20.626848     2A    -20.564973     3A    -20.564792
       4A    -11.404256     5A    -11.398661     6A    -11.254999
       7A    -11.250749     8A    -11.246957     9A    -11.236787
      10A    -11.216782    11A     -1.485695    12A     -1.405339
      13A     -1.363672    14A     -1.113547    15A     -1.042890
      16A     -0.990432    17A     -0.934156    18A     -0.867866
      19A     -0.793576    20A     -0.739603    21A     -0.702298
      22A     -0.698577    23A     -0.682778    24A     -0.648201
      25A     -0.629439    26A     -0.617926    27A     -0.591419
      28A     -0.590143    29A     -0.569755    30A     -0.555953
      31A     -0.548045    32A     -0.539395    33A     -0.527286
      34A     -0.493876    35A     -0.487597    36A     -0.477772
      37A     -0.472712    38A     -0.471302    39A     -0.439964

  @DF-RHF Final Energy:  -496.85756479117725

   => Energetics <=

    Nuclear Repulsion Energy =            555.2369823492784917
    One-Electron Energy =               -1779.6950588585345940
    Two-Electron Energy =                 727.6005117180786783
    Total Energy =                       -496.8575647911773103
  Basis Set: (AUG-CC-PVTZ AUX)
    Blend: AUG-CC-PVTZ-RI
    Molecular point group: c1

    Geometry (in Angstrom), charge = 0, multiplicity = 1:

       Center              X                  Y                   Z               Mass
    ------------   -----------------  -----------------  -----------------  -----------------
         O           -0.908141078229    -0.127171639226    -0.731417291044    15.994914619570
         O           -0.418567078229     1.964708360774     0.081511708956    15.994914619570
         O           -1.931144078229    -0.112137639226     1.322701708956    15.994914619570
         C            1.919929921771    -0.586649639226    -0.039757291044    12.000000000000
         C            1.358243921771     0.589762360774    -0.855428291044    12.000000000000
         C            1.824614921771    -0.304753639226     1.459179708956    12.000000000000
         C            3.359427921771    -0.869675639226    -0.462866291044    12.000000000000
         C           -0.036863078229     0.938473360774    -0.428451291044    12.000000000000
         C           -1.963129078229    -0.387611639226     0.144987708956    12.000000000000
         C           -3.065174078229    -1.093800639226    -0.588154291044    12.000000000000
         H            1.308587921771    -1.467956639226    -0.269215291044     1.007825032230
         H            1.974090921771     1.484004360774    -0.716498291044     1.007825032230
         H            1.348264921771     0.334687360774    -1.921824291044     1.007825032230
         H            2.383328921771     0.602534360774     1.714615708956     1.007825032230
         H            2.248477921771    -1.134942639226     2.032566708956     1.007825032230
         H            0.788326921771    -0.166630639226     1.782520708956     1.007825032230
         H            4.000176921771    -0.008622639226    -0.244225291044     1.007825032230
         H            3.759092921771    -1.732144639226     0.079161708956     1.007825032230
         H            3.433564221771    -1.100383239226    -1.632749691044     1.007825032230
         H           -3.487585078229    -0.421200639226    -1.339062291044     1.007825032230
         H           -3.835195078229    -1.395306639226     0.120849708956     1.007825032230
         H           -2.664750078229    -1.966027639226    -1.109809291044     1.007825032230

  Basis Set: AUG-CC-PVTZ
    Blend: AUG-CC-PVTZ
  Basis Set: (AUG-CC-PVTZ AUX)
    Blend: AUG-CC-PVTZ-JKFIT
	 Reference Energy          =    -496.8575647911772535 [Eh]
	 Singles Energy            =      -0.0000000000000000 [Eh]
	 Same-Spin Energy          =      -0.4945914237755478 [Eh]
	 Opposite-Spin Energy      =      -1.5985144082092289 [Eh]
	 Correlation Energy        =      -2.0931058319847766 [Eh]
	 Total Energy              =    -498.9506706231620115 [Eh]

	 ================> DF-SCS-MP2 Energies <==================
	-----------------------------------------------------------
	 SCS Same-Spin Scale       =       0.3333333333333333 [-]
	 SCS Opposite-Spin Scale   =       1.2000000000000000 [-]
	 SCS Same-Spin Energy      =      -0.1648638079251826 [Eh]
	 SCS Opposite-Spin Energy  =      -1.9182172898510745 [Eh]
	 SCS Correlation Energy    =      -2.0830810977762573 [Eh]
	 SCS Total Energy          =    -498.9406458889534974 [Eh]
	-----------------------------------------------------------

  Dipole Moment: [D]
     X:     0.7593      Y:    -2.4792      Z:    -2.4656     Total:     3.5780

*** Psi4 exiting successfully. Buy a developer a beer!
