                               Psi4 1.4a3.dev225

  ==> Input File <==

--------------------------------------------------------------------------
#psi4
#
memory 32 gb

molecule  {
0 1
  O       -0.9795470    -0.0831330    -0.7231310
  O       -0.4899730     2.0087470     0.0897980
  O       -2.0025500    -0.0680990     1.3309880
  C        1.8332174    -0.5499585    -0.0819886
  C        1.2868380     0.6338010    -0.8471420
  C        1.7532090    -0.2607150     1.4674660
  C        3.2880220    -0.8256370    -0.4545800
  C       -0.1082690     0.9825120    -0.4201650
  C       -2.0345350    -0.3435730     0.1532740
  C       -3.1365800    -1.0497620    -0.5798680
  H        1.2371820    -1.4239180    -0.2609290
  H        1.9026850     1.5280430    -0.7082120
  H        1.2768590     0.3787260    -1.9135380
  H        2.3119230     0.6465730     1.7229020
  H        2.1770720    -1.0909040     2.0408530
  H        0.7169210    -0.1225920     1.7908070
  H        3.9287710     0.0354160    -0.2359390
  H        3.6876870    -1.6881060     0.0874480
  H        3.3559530    -1.0370340    -1.5265420
  H       -3.5589910    -0.3771620    -1.3307760
  H       -3.9066010    -1.3512680     0.1291360
  H       -2.7361560    -1.9219890    -1.1015230
units angstrom
no_reorient  #important for SAPT in psi4, default
symmetry c1  #important for SAPT in psi4, default
}

set PROPERTIES_ORIGIN ["COM"]
properties('MP2/aug-cc-pvtz', properties = ['dipole'])
--------------------------------------------------------------------------

    Molecular point group: c1
  Charge       = 0
  Multiplicity = 1
  Basis Set: AUG-CC-PVTZ
    Blend: AUG-CC-PVTZ
  Basis Set: (AUG-CC-PVTZ AUX)
    Blend: AUG-CC-PVTZ-JKFIT

    Orbital Energies [Eh]
    ---------------------

    Doubly Occupied:

       1A    -20.627112     2A    -20.565241     3A    -20.564960
       4A    -11.404276     5A    -11.399298     6A    -11.255086
       7A    -11.250542     8A    -11.244398     9A    -11.224632
      10A    -11.216289    11A     -1.485945    12A     -1.405518
      13A     -1.363885    14A     -1.114173    15A     -1.042616
      16A     -0.990088    17A     -0.933432    18A     -0.869560
      19A     -0.799440    20A     -0.739942    21A     -0.703247
      22A     -0.699538    23A     -0.683038    24A     -0.648166
      25A     -0.629884    26A     -0.619251    27A     -0.593437
      28A     -0.590302    29A     -0.568894    30A     -0.556161
      31A     -0.551658    32A     -0.539052    33A     -0.527520
      34A     -0.497629    35A     -0.492669    36A     -0.478991
      37A     -0.475533    38A     -0.462300    39A     -0.440002

  @DF-RHF Final Energy:  -496.86151170908289

   => Energetics <=

    Nuclear Repulsion Energy =            555.6348344319064836
    One-Electron Energy =               -1780.4852802089437773
    Two-Electron Energy =                 727.9889340679543466
    Total Energy =                       -496.8615117090829472
  Basis Set: (AUG-CC-PVTZ AUX)
    Blend: AUG-CC-PVTZ-RI
    Molecular point group: c1

    Geometry (in Angstrom), charge = 0, multiplicity = 1:

       Center              X                  Y                   Z               Mass
    ------------   -----------------  -----------------  -----------------  -----------------
         O           -0.906822818624    -0.126694758740    -0.727894745669    15.994914619570
         O           -0.417248818624     1.965185241260     0.085034254331    15.994914619570
         O           -1.929825818624    -0.111660758740     1.326224254331    15.994914619570
         C            1.905941581376    -0.593520258740    -0.086752345669    12.000000000000
         C            1.359562181376     0.590239241260    -0.851905745669    12.000000000000
         C            1.825933181376    -0.304276758740     1.462702254331    12.000000000000
         C            3.360746181376    -0.869198758740    -0.459343745669    12.000000000000
         C           -0.035544818624     0.938950241260    -0.424928745669    12.000000000000
         C           -1.961810818624    -0.387134758740     0.148510254331    12.000000000000
         C           -3.063855818624    -1.093323758740    -0.584631745669    12.000000000000
         H            1.309906181376    -1.467479758740    -0.265692745669     1.007825032230
         H            1.975409181376     1.484481241260    -0.712975745669     1.007825032230
         H            1.349583181376     0.335164241260    -1.918301745669     1.007825032230
         H            2.384647181376     0.603011241260     1.718138254331     1.007825032230
         H            2.249796181376    -1.134465758740     2.036089254331     1.007825032230
         H            0.789645181376    -0.166153758740     1.786043254331     1.007825032230
         H            4.001495181376    -0.008145758740    -0.240702745669     1.007825032230
         H            3.760411181376    -1.731667758740     0.082684254331     1.007825032230
         H            3.428677181376    -1.080595758740    -1.531305745669     1.007825032230
         H           -3.486266818624    -0.420723758740    -1.335539745669     1.007825032230
         H           -3.833876818624    -1.394829758740     0.124372254331     1.007825032230
         H           -2.663431818624    -1.965550758740    -1.106286745669     1.007825032230

  Basis Set: AUG-CC-PVTZ
    Blend: AUG-CC-PVTZ
  Basis Set: (AUG-CC-PVTZ AUX)
    Blend: AUG-CC-PVTZ-JKFIT
	 Reference Energy          =    -496.8615117090828903 [Eh]
	 Singles Energy            =      -0.0000000000000000 [Eh]
	 Same-Spin Energy          =      -0.4945507430987824 [Eh]
	 Opposite-Spin Energy      =      -1.5978912327581662 [Eh]
	 Correlation Energy        =      -2.0924419758569486 [Eh]
	 Total Energy              =    -498.9539536849398473 [Eh]

	 ================> DF-SCS-MP2 Energies <==================
	-----------------------------------------------------------
	 SCS Same-Spin Scale       =       0.3333333333333333 [-]
	 SCS Opposite-Spin Scale   =       1.2000000000000000 [-]
	 SCS Same-Spin Energy      =      -0.1648502476995941 [Eh]
	 SCS Opposite-Spin Energy  =      -1.9174694793097995 [Eh]
	 SCS Correlation Energy    =      -2.0823197270093936 [Eh]
	 SCS Total Energy          =    -498.9438314360922959 [Eh]
	-----------------------------------------------------------

  Dipole Moment: [D]
     X:     0.7649      Y:    -2.4892      Z:    -2.5699     Total:     3.6586

*** Psi4 exiting successfully. Buy a developer a beer!
