                               Psi4 1.4a3.dev225

  ==> Input File <==

--------------------------------------------------------------------------
#psi4
#
memory 32 gb

molecule  {
0 1
  O       -0.9795470    -0.0831330    -0.7231310
  O       -0.4899730     2.0087470     0.0897980
  O       -2.0025500    -0.0680990     1.3309880
  C        1.8485240    -0.5426110    -0.0314710
  C        1.2868380     0.6338010    -0.8471420
  C        1.7532090    -0.2607150     1.4674660
  C        3.2880220    -0.8256370    -0.4545800
  C       -0.1082690     0.9825120    -0.4201650
  C       -2.0345350    -0.3435730     0.1532740
  C       -3.0631218    -1.0026901    -0.5309995
  H        1.2371820    -1.4239180    -0.2609290
  H        1.9026850     1.5280430    -0.7082120
  H        1.2768590     0.3787260    -1.9135380
  H        2.3119230     0.6465730     1.7229020
  H        2.1770720    -1.0909040     2.0408530
  H        0.7169210    -0.1225920     1.7908070
  H        3.9287710     0.0354160    -0.2359390
  H        3.6876870    -1.6881060     0.0874480
  H        3.3559530    -1.0370340    -1.5265420
  H       -3.5589910    -0.3771620    -1.3307760
  H       -3.9066010    -1.3512680     0.1291360
  H       -2.7361560    -1.9219890    -1.1015230
units angstrom
no_reorient  #important for SAPT in psi4, default
symmetry c1  #important for SAPT in psi4, default
}

set PROPERTIES_ORIGIN ["COM"]
properties('MP2/aug-cc-pvtz', properties = ['dipole'])
--------------------------------------------------------------------------

    Molecular point group: c1
  Charge       = 0
  Multiplicity = 1
  Basis Set: AUG-CC-PVTZ
    Blend: AUG-CC-PVTZ
  Basis Set: (AUG-CC-PVTZ AUX)
    Blend: AUG-CC-PVTZ-JKFIT

    Orbital Energies [Eh]
    ---------------------

    Doubly Occupied:

       1A    -20.625242     2A    -20.564057     3A    -20.563035
       4A    -11.399366     5A    -11.397889     6A    -11.257675
       7A    -11.250200     8A    -11.245401     9A    -11.224371
      10A    -11.215235    11A     -1.486275    12A     -1.405546
      13A     -1.363296    14A     -1.113894    15A     -1.059856
      16A     -0.991368    17A     -0.938360    18A     -0.865396
      19A     -0.794387    20A     -0.741630    21A     -0.711108
      22A     -0.699353    23A     -0.684663    24A     -0.648672
      25A     -0.629518    26A     -0.627150    27A     -0.597003
      28A     -0.576473    29A     -0.565361    30A     -0.550544
      31A     -0.547756    32A     -0.539552    33A     -0.520713
      34A     -0.495649    35A     -0.485522    36A     -0.479714
      37A     -0.474514    38A     -0.470901    39A     -0.442063

  @DF-RHF Final Energy:  -496.85210046376227

   => Energetics <=

    Nuclear Repulsion Energy =            557.6368056880429549
    One-Electron Energy =               -1784.4804006066217426
    Two-Electron Energy =                 729.9914944548163476
    Total Energy =                       -496.8521004637623264
  Basis Set: (AUG-CC-PVTZ AUX)
    Blend: AUG-CC-PVTZ-RI
    Molecular point group: c1

    Geometry (in Angstrom), charge = 0, multiplicity = 1:

       Center              X                  Y                   Z               Mass
    ------------   -----------------  -----------------  -----------------  -----------------
         O           -0.914215847657    -0.131227233371    -0.736172399906    15.994914619570
         O           -0.424641847657     1.960652766629     0.076756600094    15.994914619570
         O           -1.937218847657    -0.116193233371     1.317946600094    15.994914619570
         C            1.913855152343    -0.590705233371    -0.044512399906    12.000000000000
         C            1.352169152343     0.585706766629    -0.860183399906    12.000000000000
         C            1.818540152343    -0.308809233371     1.454424600094    12.000000000000
         C            3.353353152343    -0.873731233371    -0.467621399906    12.000000000000
         C           -0.042937847657     0.934417766629    -0.433206399906    12.000000000000
         C           -1.969203847657    -0.391667233371     0.140232600094    12.000000000000
         C           -2.997790647657    -1.050784333371    -0.544040899906    12.000000000000
         H            1.302513152343    -1.472012233371    -0.273970399906     1.007825032230
         H            1.968016152343     1.479948766629    -0.721253399906     1.007825032230
         H            1.342190152343     0.330631766629    -1.926579399906     1.007825032230
         H            2.377254152343     0.598478766629     1.709860600094     1.007825032230
         H            2.242403152343    -1.138998233371     2.027811600094     1.007825032230
         H            0.782252152343    -0.170686233371     1.777765600094     1.007825032230
         H            3.994102152343    -0.012678233371    -0.248980399906     1.007825032230
         H            3.753018152343    -1.736200233371     0.074406600094     1.007825032230
         H            3.421284152343    -1.085128233371    -1.539583399906     1.007825032230
         H           -3.493659847657    -0.425256233371    -1.343817399906     1.007825032230
         H           -3.841269847657    -1.399362233371     0.116094600094     1.007825032230
         H           -2.670824847657    -1.970083233371    -1.114564399906     1.007825032230

  Basis Set: AUG-CC-PVTZ
    Blend: AUG-CC-PVTZ
  Basis Set: (AUG-CC-PVTZ AUX)
    Blend: AUG-CC-PVTZ-JKFIT
	 Reference Energy          =    -496.8521004637622696 [Eh]
	 Singles Energy            =      -0.0000000000000000 [Eh]
	 Same-Spin Energy          =      -0.4957070795549658 [Eh]
	 Opposite-Spin Energy      =      -1.5989756335710854 [Eh]
	 Correlation Energy        =      -2.0946827131260513 [Eh]
	 Total Energy              =    -498.9467831768883457 [Eh]

	 ================> DF-SCS-MP2 Energies <==================
	-----------------------------------------------------------
	 SCS Same-Spin Scale       =       0.3333333333333333 [-]
	 SCS Opposite-Spin Scale   =       1.2000000000000000 [-]
	 SCS Same-Spin Energy      =      -0.1652356931849886 [Eh]
	 SCS Opposite-Spin Energy  =      -1.9187707602853024 [Eh]
	 SCS Correlation Energy    =      -2.0840064534702911 [Eh]
	 SCS Total Energy          =    -498.9361069172325642 [Eh]
	-----------------------------------------------------------

  Dipole Moment: [D]
     X:     0.6517      Y:    -2.5767      Z:    -2.6316     Total:     3.7402

*** Psi4 exiting successfully. Buy a developer a beer!
