                               Psi4 1.4a3.dev225

  ==> Input File <==

--------------------------------------------------------------------------
#psi4
#
memory 32 gb

molecule  {
0 1
  O       -0.9795470    -0.0831330    -0.7231310
  O       -0.4899730     2.0087470     0.0897980
  O       -2.0025500    -0.0680990     1.3309880
  C        1.8485240    -0.5426110    -0.0314710
  C        1.2868380     0.6338010    -0.8471420
  C        1.7532090    -0.2607150     1.4674660
  C        3.2880220    -0.8256370    -0.4545800
  C       -0.1082690     0.9825120    -0.4201650
  C       -2.0345350    -0.3435730     0.1532740
  C       -3.1365800    -1.0497620    -0.5798680
  H        1.2371820    -1.4239180    -0.2609290
  H        1.9026850     1.5280430    -0.7082120
  H        1.2768590     0.3787260    -1.9135380
  H        2.3119230     0.6465730     1.7229020
  H        2.1770720    -1.0909040     2.0408530
  H        0.7169210    -0.1225920     1.7908070
  H        3.9287710     0.0354160    -0.2359390
  H        3.6876870    -1.6881060     0.0874480
  H        3.3559530    -1.0370340    -1.5265420
  H       -3.5686958    -0.3531058    -1.3028000
  H       -3.9066010    -1.3512680     0.1291360
  H       -2.7361560    -1.9219890    -1.1015230
units angstrom
no_reorient  #important for SAPT in psi4, default
symmetry c1  #important for SAPT in psi4, default
}

set PROPERTIES_ORIGIN ["COM"]
properties('MP2/aug-cc-pvtz', properties = ['dipole'])
--------------------------------------------------------------------------

    Molecular point group: c1
  Charge       = 0
  Multiplicity = 1
  Basis Set: AUG-CC-PVTZ
    Blend: AUG-CC-PVTZ
  Basis Set: (AUG-CC-PVTZ AUX)
    Blend: AUG-CC-PVTZ-JKFIT

    Orbital Energies [Eh]
    ---------------------

    Doubly Occupied:

       1A    -20.626704     2A    -20.564614     3A    -20.564549
       4A    -11.403810     5A    -11.398530     6A    -11.254936
       7A    -11.250632     8A    -11.245746     9A    -11.224632
      10A    -11.215566    11A     -1.485494    12A     -1.405068
      13A     -1.363430    14A     -1.113643    15A     -1.043047
      16A     -0.991208    17A     -0.938663    18A     -0.868122
      19A     -0.794632    20A     -0.739230    21A     -0.701489
      22A     -0.698330    23A     -0.682813    24A     -0.648497
      25A     -0.630298    26A     -0.620476    27A     -0.594838
      28A     -0.589163    29A     -0.570916    30A     -0.555226
      31A     -0.551498    32A     -0.539807    33A     -0.527784
      34A     -0.495846    35A     -0.487195    36A     -0.479544
      37A     -0.473571    38A     -0.471217    39A     -0.439431

  @DF-RHF Final Energy:  -496.86387557263276

   => Energetics <=

    Nuclear Repulsion Energy =            555.6661138008979606
    One-Electron Energy =               -1780.5595849618152897
    Two-Electron Energy =                 728.0295955882844510
    Total Energy =                       -496.8638755726327645
  Basis Set: (AUG-CC-PVTZ AUX)
    Blend: AUG-CC-PVTZ-RI
    Molecular point group: c1

    Geometry (in Angstrom), charge = 0, multiplicity = 1:

       Center              X                  Y                   Z               Mass
    ------------   -----------------  -----------------  -----------------  -----------------
         O           -0.908029787641    -0.127474988462    -0.732297938915    15.994914619570
         O           -0.418455787641     1.964405011538     0.080631061085    15.994914619570
         O           -1.931032787641    -0.112440988462     1.321821061085    15.994914619570
         C            1.920041212359    -0.586952988462    -0.040637938915    12.000000000000
         C            1.358355212359     0.589459011538    -0.856308938915    12.000000000000
         C            1.824726212359    -0.305056988462     1.458299061085    12.000000000000
         C            3.359539212359    -0.869978988462    -0.463746938915    12.000000000000
         C           -0.036751787641     0.938170011538    -0.429331938915    12.000000000000
         C           -1.963017787641    -0.387914988462     0.144107061085    12.000000000000
         C           -3.065062787641    -1.094103988462    -0.589034938915    12.000000000000
         H            1.308699212359    -1.468259988462    -0.270095938915     1.007825032230
         H            1.974202212359     1.483701011538    -0.717378938915     1.007825032230
         H            1.348376212359     0.334384011538    -1.922704938915     1.007825032230
         H            2.383440212359     0.602231011538     1.713735061085     1.007825032230
         H            2.248589212359    -1.135245988462     2.031686061085     1.007825032230
         H            0.788438212359    -0.166933988462     1.781640061085     1.007825032230
         H            4.000288212359    -0.008925988462    -0.245105938915     1.007825032230
         H            3.759204212359    -1.732447988462     0.078281061085     1.007825032230
         H            3.427470212359    -1.081375988462    -1.535708938915     1.007825032230
         H           -3.497178587641    -0.397447788462    -1.311966938915     1.007825032230
         H           -3.835083787641    -1.395609988462     0.119969061085     1.007825032230
         H           -2.664638787641    -1.966330988462    -1.110689938915     1.007825032230

  Basis Set: AUG-CC-PVTZ
    Blend: AUG-CC-PVTZ
  Basis Set: (AUG-CC-PVTZ AUX)
    Blend: AUG-CC-PVTZ-JKFIT
	 Reference Energy          =    -496.8638755726327645 [Eh]
	 Singles Energy            =      -0.0000000000000000 [Eh]
	 Same-Spin Energy          =      -0.4946076124811127 [Eh]
	 Opposite-Spin Energy      =      -1.5978247058906230 [Eh]
	 Correlation Energy        =      -2.0924323183717357 [Eh]
	 Total Energy              =    -498.9563078910044851 [Eh]

	 ================> DF-SCS-MP2 Energies <==================
	-----------------------------------------------------------
	 SCS Same-Spin Scale       =       0.3333333333333333 [-]
	 SCS Opposite-Spin Scale   =       1.2000000000000000 [-]
	 SCS Same-Spin Energy      =      -0.1648692041603709 [Eh]
	 SCS Opposite-Spin Energy  =      -1.9173896470687475 [Eh]
	 SCS Correlation Energy    =      -2.0822588512291182 [Eh]
	 SCS Total Energy          =    -498.9461344238619063 [Eh]
	-----------------------------------------------------------

  Dipole Moment: [D]
     X:     0.7827      Y:    -2.4888      Z:    -2.5272     Total:     3.6323

*** Psi4 exiting successfully. Buy a developer a beer!
