                               Psi4 1.4a3.dev225

  ==> Input File <==

--------------------------------------------------------------------------
#psi4
#
memory 32 gb

molecule  {
0 1
  O       -0.9795470    -0.0831330    -0.7231310
  O       -0.4899730     2.0087470     0.0897980
  O       -2.0025500    -0.0680990     1.3309880
  C        1.8485240    -0.5426110    -0.0314710
  C        1.2868380     0.6338010    -0.8471420
  C        1.7532090    -0.2607150     1.4674660
  C        3.2880220    -0.8256370    -0.4545800
  C       -0.1082690     0.9825120    -0.4201650
  C       -2.0398221    -0.3891087    -0.0414015
  C       -3.1365800    -1.0497620    -0.5798680
  H        1.2371820    -1.4239180    -0.2609290
  H        1.9026850     1.5280430    -0.7082120
  H        1.2768590     0.3787260    -1.9135380
  H        2.3119230     0.6465730     1.7229020
  H        2.1770720    -1.0909040     2.0408530
  H        0.7169210    -0.1225920     1.7908070
  H        3.9287710     0.0354160    -0.2359390
  H        3.6876870    -1.6881060     0.0874480
  H        3.3559530    -1.0370340    -1.5265420
  H       -3.5589910    -0.3771620    -1.3307760
  H       -3.9066010    -1.3512680     0.1291360
  H       -2.7361560    -1.9219890    -1.1015230
units angstrom
no_reorient  #important for SAPT in psi4, default
symmetry c1  #important for SAPT in psi4, default
}

set PROPERTIES_ORIGIN ["COM"]
properties('MP2/aug-cc-pvtz', properties = ['dipole'])
--------------------------------------------------------------------------

    Molecular point group: c1
  Charge       = 0
  Multiplicity = 1
  Basis Set: AUG-CC-PVTZ
    Blend: AUG-CC-PVTZ
  Basis Set: (AUG-CC-PVTZ AUX)
    Blend: AUG-CC-PVTZ-JKFIT

    Orbital Energies [Eh]
    ---------------------

    Doubly Occupied:

       1A    -20.652164     2A    -20.574462     3A    -20.525593
       4A    -11.414567     5A    -11.413517     6A    -11.259357
       7A    -11.258728     8A    -11.248993     9A    -11.227098
      10A    -11.214011    11A     -1.517445    12A     -1.402080
      13A     -1.260117    14A     -1.120842    15A     -1.081704
      16A     -1.005761    17A     -0.939202    18A     -0.905637
      19A     -0.799177    20A     -0.742121    21A     -0.714750
      22A     -0.709633    23A     -0.687439    24A     -0.652008
      25A     -0.639480    26A     -0.623520    27A     -0.607860
      28A     -0.584751    29A     -0.567546    30A     -0.556319
      31A     -0.544235    32A     -0.535482    33A     -0.508835
      34A     -0.498813    35A     -0.481475    36A     -0.478984
      37A     -0.463255    38A     -0.427793    39A     -0.417728

  @DF-RHF Final Energy:  -496.79487628225684

   => Energetics <=

    Nuclear Repulsion Energy =            555.1364741479277427
    One-Electron Energy =               -1779.3377328194153506
    Two-Electron Energy =                 727.4063823892308847
    Total Energy =                       -496.7948762822568369
  Basis Set: (AUG-CC-PVTZ AUX)
    Blend: AUG-CC-PVTZ-RI
    Molecular point group: c1

    Geometry (in Angstrom), charge = 0, multiplicity = 1:

       Center              X                  Y                   Z               Mass
    ------------   -----------------  -----------------  -----------------  -----------------
         O           -0.907657321201    -0.123514145801    -0.715888144628    15.994914619570
         O           -0.418083321201     1.968365854199     0.097040855372    15.994914619570
         O           -1.930660321201    -0.108480145801     1.338230855372    15.994914619570
         C            1.920413678799    -0.582992145801    -0.024228144628    12.000000000000
         C            1.358727678799     0.593419854199    -0.839899144628    12.000000000000
         C            1.825098678799    -0.301096145801     1.474708855372    12.000000000000
         C            3.359911678799    -0.866018145801    -0.447337144628    12.000000000000
         C           -0.036379321201     0.942130854199    -0.412922144628    12.000000000000
         C           -1.967932421201    -0.429489845801    -0.034158644628    12.000000000000
         C           -3.064690321201    -1.090143145801    -0.572625144628    12.000000000000
         H            1.309071678799    -1.464299145801    -0.253686144628     1.007825032230
         H            1.974574678799     1.487661854199    -0.700969144628     1.007825032230
         H            1.348748678799     0.338344854199    -1.906295144628     1.007825032230
         H            2.383812678799     0.606191854199     1.730144855372     1.007825032230
         H            2.248961678799    -1.131285145801     2.048095855372     1.007825032230
         H            0.788810678799    -0.162973145801     1.798049855372     1.007825032230
         H            4.000660678799    -0.004965145801    -0.228696144628     1.007825032230
         H            3.759576678799    -1.728487145801     0.094690855372     1.007825032230
         H            3.427842678799    -1.077415145801    -1.519299144628     1.007825032230
         H           -3.487101321201    -0.417543145801    -1.323533144628     1.007825032230
         H           -3.834711321201    -1.391649145801     0.136378855372     1.007825032230
         H           -2.664266321201    -1.962370145801    -1.094280144628     1.007825032230

  Basis Set: AUG-CC-PVTZ
    Blend: AUG-CC-PVTZ
  Basis Set: (AUG-CC-PVTZ AUX)
    Blend: AUG-CC-PVTZ-JKFIT
	 Reference Energy          =    -496.7948762822568369 [Eh]
	 Singles Energy            =      -0.0000000000000000 [Eh]
	 Same-Spin Energy          =      -0.4999916035515988 [Eh]
	 Opposite-Spin Energy      =      -1.6074398316050371 [Eh]
	 Correlation Energy        =      -2.1074314351566361 [Eh]
	 Total Energy              =    -498.9023077174134642 [Eh]

	 ================> DF-SCS-MP2 Energies <==================
	-----------------------------------------------------------
	 SCS Same-Spin Scale       =       0.3333333333333333 [-]
	 SCS Opposite-Spin Scale   =       1.2000000000000000 [-]
	 SCS Same-Spin Energy      =      -0.1666638678505329 [Eh]
	 SCS Opposite-Spin Energy  =      -1.9289277979260444 [Eh]
	 SCS Correlation Energy    =      -2.0955916657765772 [Eh]
	 SCS Total Energy          =    -498.8904679480334039 [Eh]
	-----------------------------------------------------------

  Dipole Moment: [D]
     X:     1.1957      Y:    -2.4638      Z:    -3.6019     Total:     4.5248

*** Psi4 exiting successfully. Buy a developer a beer!
