                               Psi4 1.4a3.dev225

  ==> Input File <==

--------------------------------------------------------------------------
#psi4
#
memory 32 gb

molecule  {
0 1
  O       -0.9795470    -0.0831330    -0.7231310
  O       -0.4899730     2.0087470     0.0897980
  O       -2.0025500    -0.0680990     1.3309880
  C        1.8485240    -0.5426110    -0.0314710
  C        1.2868380     0.6338010    -0.8471420
  C        1.7532090    -0.2607150     1.4674660
  C        3.2880220    -0.8256370    -0.4545800
  C       -0.1082690     0.9825120    -0.4201650
  C       -2.0345350    -0.3435730     0.1532740
  C       -3.1365800    -1.0497620    -0.5798680
  H        1.2371820    -1.4239180    -0.2609290
  H        1.9026850     1.5280430    -0.7082120
  H        1.2768590     0.3787260    -1.9135380
  H        2.3119230     0.6465730     1.7229020
  H        2.1770720    -1.0909040     2.0408530
  H        0.7169210    -0.1225920     1.7908070
  H        3.9287710     0.0354160    -0.2359390
  H        3.6876870    -1.6881060     0.0874480
  H        3.3571941    -1.0408961    -1.5461263
  H       -3.5589910    -0.3771620    -1.3307760
  H       -3.9066010    -1.3512680     0.1291360
  H       -2.7361560    -1.9219890    -1.1015230
units angstrom
no_reorient  #important for SAPT in psi4, default
symmetry c1  #important for SAPT in psi4, default
}

set PROPERTIES_ORIGIN ["COM"]
properties('MP2/aug-cc-pvtz', properties = ['dipole'])
--------------------------------------------------------------------------

    Molecular point group: c1
  Charge       = 0
  Multiplicity = 1
  Basis Set: AUG-CC-PVTZ
    Blend: AUG-CC-PVTZ
  Basis Set: (AUG-CC-PVTZ AUX)
    Blend: AUG-CC-PVTZ-JKFIT

    Orbital Energies [Eh]
    ---------------------

    Doubly Occupied:

       1A    -20.626712     2A    -20.564816     3A    -20.564638
       4A    -11.404109     5A    -11.398549     6A    -11.254916
       7A    -11.250650     8A    -11.245964     9A    -11.227118
      10A    -11.215790    11A     -1.485548    12A     -1.405181
      13A     -1.363521    14A     -1.113580    15A     -1.042877
      16A     -0.990961    17A     -0.937610    18A     -0.868098
      19A     -0.794374    20A     -0.739456    21A     -0.702131
      22A     -0.698427    23A     -0.682794    24A     -0.648453
      25A     -0.629263    26A     -0.620086    27A     -0.593662
      28A     -0.590081    29A     -0.570116    30A     -0.555607
      31A     -0.550672    32A     -0.539831    33A     -0.527378
      34A     -0.495421    35A     -0.487274    36A     -0.479295
      37A     -0.473675    38A     -0.471373    39A     -0.439651

  @DF-RHF Final Energy:  -496.86346727800100

   => Energetics <=

    Nuclear Repulsion Energy =            555.5601101857861295
    One-Electron Energy =               -1780.3478348238597846
    Two-Electron Energy =                 727.9242573600726018
    Total Energy =                       -496.8634672780009396
  Basis Set: (AUG-CC-PVTZ AUX)
    Blend: AUG-CC-PVTZ-RI
    Molecular point group: c1

    Geometry (in Angstrom), charge = 0, multiplicity = 1:

       Center              X                  Y                   Z               Mass
    ------------   -----------------  -----------------  -----------------  -----------------
         O           -0.908106353825    -0.127279700938    -0.731965256294    15.994914619570
         O           -0.418532353825     1.964600299062     0.080963743706    15.994914619570
         O           -1.931109353825    -0.112245700938     1.322153743706    15.994914619570
         C            1.919964646175    -0.586757700938    -0.040305256294    12.000000000000
         C            1.358278646175     0.589654299062    -0.855976256294    12.000000000000
         C            1.824649646175    -0.304861700938     1.458631743706    12.000000000000
         C            3.359462646175    -0.869783700938    -0.463414256294    12.000000000000
         C           -0.036828353825     0.938365299062    -0.428999256294    12.000000000000
         C           -1.963094353825    -0.387719700938     0.144439743706    12.000000000000
         C           -3.065139353825    -1.093908700938    -0.588702256294    12.000000000000
         H            1.308622646175    -1.468064700938    -0.269763256294     1.007825032230
         H            1.974125646175     1.483896299062    -0.717046256294     1.007825032230
         H            1.348299646175     0.334579299062    -1.922372256294     1.007825032230
         H            2.383363646175     0.602426299062     1.714067743706     1.007825032230
         H            2.248512646175    -1.135050700938     2.032018743706     1.007825032230
         H            0.788361646175    -0.166738700938     1.781972743706     1.007825032230
         H            4.000211646175    -0.008730700938    -0.244773256294     1.007825032230
         H            3.759127646175    -1.732252700938     0.078613743706     1.007825032230
         H            3.428634746175    -1.085042800938    -1.554960556294     1.007825032230
         H           -3.487550353825    -0.421308700938    -1.339610256294     1.007825032230
         H           -3.835160353825    -1.395414700938     0.120301743706     1.007825032230
         H           -2.664715353825    -1.966135700938    -1.110357256294     1.007825032230

  Basis Set: AUG-CC-PVTZ
    Blend: AUG-CC-PVTZ
  Basis Set: (AUG-CC-PVTZ AUX)
    Blend: AUG-CC-PVTZ-JKFIT
	 Reference Energy          =    -496.8634672780009964 [Eh]
	 Singles Energy            =      -0.0000000000000000 [Eh]
	 Same-Spin Energy          =      -0.4946074795533187 [Eh]
	 Opposite-Spin Energy      =      -1.5979410056506291 [Eh]
	 Correlation Energy        =      -2.0925484852039480 [Eh]
	 Total Energy              =    -498.9560157632049595 [Eh]

	 ================> DF-SCS-MP2 Energies <==================
	-----------------------------------------------------------
	 SCS Same-Spin Scale       =       0.3333333333333333 [-]
	 SCS Opposite-Spin Scale   =       1.2000000000000000 [-]
	 SCS Same-Spin Energy      =      -0.1648691598511062 [Eh]
	 SCS Opposite-Spin Energy  =      -1.9175292067807548 [Eh]
	 SCS Correlation Energy    =      -2.0823983666318608 [Eh]
	 SCS Total Energy          =    -498.9458656446328746 [Eh]
	-----------------------------------------------------------

  Dipole Moment: [D]
     X:     0.7814      Y:    -2.4936      Z:    -2.5271     Total:     3.6352

*** Psi4 exiting successfully. Buy a developer a beer!
