                               Psi4 1.4a3.dev225

  ==> Input File <==

--------------------------------------------------------------------------
#psi4
#
memory 32 gb

molecule  {
0 1
  O       -0.9795470    -0.0831330    -0.7231310
  O       -0.4899730     2.0087470     0.0897980
  O       -2.0025500    -0.0680990     1.3309880
  C        1.8485240    -0.5426110    -0.0314710
  C        1.2868380     0.6338010    -0.8471420
  C        1.7532090    -0.2607150     1.4674660
  C        3.2880220    -0.8256370    -0.4545800
  C       -0.1082690     0.9825120    -0.4201650
  C       -2.0345350    -0.3435730     0.1532740
  C       -3.1365800    -1.0497620    -0.5798680
  H        1.2371820    -1.4239180    -0.2609290
  H        1.9026850     1.5280430    -0.7082120
  H        1.2768590     0.3787260    -1.9135380
  H        2.3119230     0.6465730     1.7229020
  H        2.1770720    -1.0909040     2.0408530
  H        0.7169210    -0.1225920     1.7908070
  H        3.9287710     0.0354160    -0.2359390
  H        3.6944871    -1.7051583     0.0539547
  H        3.3559530    -1.0370340    -1.5265420
  H       -3.5589910    -0.3771620    -1.3307760
  H       -3.9066010    -1.3512680     0.1291360
  H       -2.7361560    -1.9219890    -1.1015230
units angstrom
no_reorient  #important for SAPT in psi4, default
symmetry c1  #important for SAPT in psi4, default
}

set PROPERTIES_ORIGIN ["COM"]
properties('MP2/aug-cc-pvtz', properties = ['dipole'])
--------------------------------------------------------------------------

    Molecular point group: c1
  Charge       = 0
  Multiplicity = 1
  Basis Set: AUG-CC-PVTZ
    Blend: AUG-CC-PVTZ
  Basis Set: (AUG-CC-PVTZ AUX)
    Blend: AUG-CC-PVTZ-JKFIT

    Orbital Energies [Eh]
    ---------------------

    Doubly Occupied:

       1A    -20.626723     2A    -20.564801     3A    -20.564686
       4A    -11.404099     5A    -11.398616     6A    -11.254914
       7A    -11.250753     8A    -11.245948     9A    -11.224579
      10A    -11.215479    11A     -1.485558    12A     -1.405191
      13A     -1.363530    14A     -1.113590    15A     -1.042885
      16A     -0.991083    17A     -0.938820    18A     -0.868217
      19A     -0.794811    20A     -0.739458    21A     -0.702148
      22A     -0.698474    23A     -0.682874    24A     -0.649071
      25A     -0.629288    26A     -0.620263    27A     -0.593544
      28A     -0.590030    29A     -0.570740    30A     -0.555798
      31A     -0.550975    32A     -0.539907    33A     -0.527371
      34A     -0.496149    35A     -0.487172    36A     -0.479300
      37A     -0.473768    38A     -0.471218    39A     -0.439852

  @DF-RHF Final Energy:  -496.86385018146910

   => Energetics <=

    Nuclear Repulsion Energy =            555.6099465926390621
    One-Electron Energy =               -1780.4442301333069736
    Two-Electron Energy =                 727.9704333591988643
    Total Energy =                       -496.8638501814690471
  Basis Set: (AUG-CC-PVTZ AUX)
    Blend: AUG-CC-PVTZ-RI
    Molecular point group: c1

    Geometry (in Angstrom), charge = 0, multiplicity = 1:

       Center              X                  Y                   Z               Mass
    ------------   -----------------  -----------------  -----------------  -----------------
         O           -0.908145238834    -0.127187435955    -0.731867963330    15.994914619570
         O           -0.418571238834     1.964692564045     0.081061036670    15.994914619570
         O           -1.931148238834    -0.112153435955     1.322251036670    15.994914619570
         C            1.919925761166    -0.586665435955    -0.040207963330    12.000000000000
         C            1.358239761166     0.589746564045    -0.855878963330    12.000000000000
         C            1.824610761166    -0.304769435955     1.458729036670    12.000000000000
         C            3.359423761166    -0.869691435955    -0.463316963330    12.000000000000
         C           -0.036867238834     0.938457564045    -0.428901963330    12.000000000000
         C           -1.963133238834    -0.387627435955     0.144537036670    12.000000000000
         C           -3.065178238834    -1.093816435955    -0.588604963330    12.000000000000
         H            1.308583761166    -1.467972435955    -0.269665963330     1.007825032230
         H            1.974086761166     1.483988564045    -0.716948963330     1.007825032230
         H            1.348260761166     0.334671564045    -1.922274963330     1.007825032230
         H            2.383324761166     0.602518564045     1.714165036670     1.007825032230
         H            2.248473761166    -1.134958435955     2.032116036670     1.007825032230
         H            0.788322761166    -0.166646435955     1.782070036670     1.007825032230
         H            4.000172761166    -0.008638435955    -0.244675963330     1.007825032230
         H            3.765888861166    -1.749212735955     0.045217736670     1.007825032230
         H            3.427354761166    -1.081088435955    -1.535278963330     1.007825032230
         H           -3.487589238834    -0.421216435955    -1.339512963330     1.007825032230
         H           -3.835199238834    -1.395322435955     0.120399036670     1.007825032230
         H           -2.664754238834    -1.966043435955    -1.110259963330     1.007825032230

  Basis Set: AUG-CC-PVTZ
    Blend: AUG-CC-PVTZ
  Basis Set: (AUG-CC-PVTZ AUX)
    Blend: AUG-CC-PVTZ-JKFIT
	 Reference Energy          =    -496.8638501814691040 [Eh]
	 Singles Energy            =      -0.0000000000000000 [Eh]
	 Same-Spin Energy          =      -0.4945999867928316 [Eh]
	 Opposite-Spin Energy      =      -1.5977959125290437 [Eh]
	 Correlation Energy        =      -2.0923958993218754 [Eh]
	 Total Energy              =    -498.9562460807910043 [Eh]

	 ================> DF-SCS-MP2 Energies <==================
	-----------------------------------------------------------
	 SCS Same-Spin Scale       =       0.3333333333333333 [-]
	 SCS Opposite-Spin Scale   =       1.2000000000000000 [-]
	 SCS Same-Spin Energy      =      -0.1648666622642772 [Eh]
	 SCS Opposite-Spin Energy  =      -1.9173550950348524 [Eh]
	 SCS Correlation Energy    =      -2.0822217572991297 [Eh]
	 SCS Total Energy          =    -498.9460719387682275 [Eh]
	-----------------------------------------------------------

  Dipole Moment: [D]
     X:     0.7853      Y:    -2.5044      Z:    -2.5490     Total:     3.6587

*** Psi4 exiting successfully. Buy a developer a beer!
