                               Psi4 1.4a3.dev225

  ==> Input File <==

--------------------------------------------------------------------------
#psi4
#
memory 32 gb

molecule  {
0 1
  O       -0.9795470    -0.0831330    -0.7231310
  O       -0.4899730     2.0087470     0.0897980
  O       -2.0025500    -0.0680990     1.3309880
  C        1.8485240    -0.5426110    -0.0314710
  C        1.2868380     0.6338010    -0.8471420
  C        1.7532090    -0.2607150     1.4674660
  C        3.2880220    -0.8256370    -0.4545800
  C       -0.1082690     0.9825120    -0.4201650
  C       -2.0345350    -0.3435730     0.1532740
  C       -3.1365800    -1.0497620    -0.5798680
  H        1.2650499    -1.3837437    -0.2504692
  H        1.9026850     1.5280430    -0.7082120
  H        1.2768590     0.3787260    -1.9135380
  H        2.3119230     0.6465730     1.7229020
  H        2.1770720    -1.0909040     2.0408530
  H        0.7169210    -0.1225920     1.7908070
  H        3.9287710     0.0354160    -0.2359390
  H        3.6876870    -1.6881060     0.0874480
  H        3.3559530    -1.0370340    -1.5265420
  H       -3.5589910    -0.3771620    -1.3307760
  H       -3.9066010    -1.3512680     0.1291360
  H       -2.7361560    -1.9219890    -1.1015230
units angstrom
no_reorient  #important for SAPT in psi4, default
symmetry c1  #important for SAPT in psi4, default
}

set PROPERTIES_ORIGIN ["COM"]
properties('MP2/aug-cc-pvtz', properties = ['dipole'])
--------------------------------------------------------------------------

    Molecular point group: c1
  Charge       = 0
  Multiplicity = 1
  Basis Set: AUG-CC-PVTZ
    Blend: AUG-CC-PVTZ
  Basis Set: (AUG-CC-PVTZ AUX)
    Blend: AUG-CC-PVTZ-JKFIT

    Orbital Energies [Eh]
    ---------------------

    Doubly Occupied:

       1A    -20.626874     2A    -20.564901     3A    -20.564514
       4A    -11.404191     5A    -11.398443     6A    -11.254999
       7A    -11.250129     8A    -11.239504     9A    -11.224205
      10A    -11.215106    11A     -1.485634    12A     -1.405156
      13A     -1.363562    14A     -1.115212    15A     -1.043102
      16A     -0.991209    17A     -0.938319    18A     -0.868266
      19A     -0.800974    20A     -0.739740    21A     -0.702556
      22A     -0.698670    23A     -0.682997    24A     -0.650431
      25A     -0.629202    26A     -0.620663    27A     -0.594324
      28A     -0.590164    29A     -0.570415    30A     -0.555380
      31A     -0.551246    32A     -0.539582    33A     -0.527385
      34A     -0.495473    35A     -0.489010    36A     -0.481736
      37A     -0.473858    38A     -0.472740    39A     -0.439483

  @DF-RHF Final Energy:  -496.86312472180549

   => Energetics <=

    Nuclear Repulsion Energy =            555.8796945381319574
    One-Electron Energy =               -1780.9669313460831290
    Two-Electron Energy =                 728.2241120861458512
    Total Energy =                       -496.8631247218054341
  Basis Set: (AUG-CC-PVTZ AUX)
    Blend: AUG-CC-PVTZ-RI
    Molecular point group: c1

    Geometry (in Angstrom), charge = 0, multiplicity = 1:

       Center              X                  Y                   Z               Mass
    ------------   -----------------  -----------------  -----------------  -----------------
         O           -0.908292607351    -0.127587734002    -0.732175413714    15.994914619570
         O           -0.418718607351     1.964292265998     0.080753586286    15.994914619570
         O           -1.931295607351    -0.112553734002     1.321943586286    15.994914619570
         C            1.919778392649    -0.587065734002    -0.040515413714    12.000000000000
         C            1.358092392649     0.589346265998    -0.856186413714    12.000000000000
         C            1.824463392649    -0.305169734002     1.458421586286    12.000000000000
         C            3.359276392649    -0.870091734002    -0.463624413714    12.000000000000
         C           -0.037014607351     0.938057265998    -0.429209413714    12.000000000000
         C           -1.963280607351    -0.388027734002     0.144229586286    12.000000000000
         C           -3.065325607351    -1.094216734002    -0.588912413714    12.000000000000
         H            1.336304292649    -1.428198434002    -0.259513613714     1.007825032230
         H            1.973939392649     1.483588265998    -0.717256413714     1.007825032230
         H            1.348113392649     0.334271265998    -1.922582413714     1.007825032230
         H            2.383177392649     0.602118265998     1.713857586286     1.007825032230
         H            2.248326392649    -1.135358734002     2.031808586286     1.007825032230
         H            0.788175392649    -0.167046734002     1.781762586286     1.007825032230
         H            4.000025392649    -0.009038734002    -0.244983413714     1.007825032230
         H            3.758941392649    -1.732560734002     0.078403586286     1.007825032230
         H            3.427207392649    -1.081488734002    -1.535586413714     1.007825032230
         H           -3.487736607351    -0.421616734002    -1.339820413714     1.007825032230
         H           -3.835346607351    -1.395722734002     0.120091586286     1.007825032230
         H           -2.664901607351    -1.966443734002    -1.110567413714     1.007825032230

  Basis Set: AUG-CC-PVTZ
    Blend: AUG-CC-PVTZ
  Basis Set: (AUG-CC-PVTZ AUX)
    Blend: AUG-CC-PVTZ-JKFIT
	 Reference Energy          =    -496.8631247218054909 [Eh]
	 Singles Energy            =      -0.0000000000000000 [Eh]
	 Same-Spin Energy          =      -0.4945661185318763 [Eh]
	 Opposite-Spin Energy      =      -1.5974890185489734 [Eh]
	 Correlation Energy        =      -2.0920551370808496 [Eh]
	 Total Energy              =    -498.9551798588863676 [Eh]

	 ================> DF-SCS-MP2 Energies <==================
	-----------------------------------------------------------
	 SCS Same-Spin Scale       =       0.3333333333333333 [-]
	 SCS Opposite-Spin Scale   =       1.2000000000000000 [-]
	 SCS Same-Spin Energy      =      -0.1648553728439588 [Eh]
	 SCS Opposite-Spin Energy  =      -1.9169868222587680 [Eh]
	 SCS Correlation Energy    =      -2.0818421951027268 [Eh]
	 SCS Total Energy          =    -498.9449669169082426 [Eh]
	-----------------------------------------------------------

  Dipole Moment: [D]
     X:     0.7709      Y:    -2.5187      Z:    -2.5464     Total:     3.6636

*** Psi4 exiting successfully. Buy a developer a beer!
