                               Psi4 1.4a3.dev225

  ==> Input File <==

--------------------------------------------------------------------------
#psi4
#
memory 32 gb

molecule  {
0 1
  O       -0.9795470    -0.0831330    -0.7231310
  O       -0.4899730     2.0087470     0.0897980
  O       -2.0025500    -0.0680990     1.3309880
  C        1.8485240    -0.5426110    -0.0314710
  C        1.2868380     0.6338010    -0.8471420
  C        1.7532090    -0.2607150     1.4674660
  C        3.2880220    -0.8256370    -0.4545800
  C       -0.1082690     0.9825120    -0.4201650
  C       -2.0345350    -0.3435730     0.1532740
  C       -3.1365800    -1.0497620    -0.5798680
  H        1.2371820    -1.4239180    -0.2609290
  H        1.9026850     1.5280430    -0.7082120
  H        1.2768590     0.3787260    -1.9135380
  H        2.3119230     0.6465730     1.7229020
  H        2.1770720    -1.0909040     2.0408530
  H        0.7169210    -0.1225920     1.7908070
  H        3.9287710     0.0354160    -0.2359390
  H        3.6803822    -1.6723423     0.0775411
  H        3.3559530    -1.0370340    -1.5265420
  H       -3.5589910    -0.3771620    -1.3307760
  H       -3.9066010    -1.3512680     0.1291360
  H       -2.7361560    -1.9219890    -1.1015230
units angstrom
no_reorient  #important for SAPT in psi4, default
symmetry c1  #important for SAPT in psi4, default
}

set PROPERTIES_ORIGIN ["COM"]
properties('MP2/aug-cc-pvtz', properties = ['dipole'])
--------------------------------------------------------------------------

    Molecular point group: c1
  Charge       = 0
  Multiplicity = 1
  Basis Set: AUG-CC-PVTZ
    Blend: AUG-CC-PVTZ
  Basis Set: (AUG-CC-PVTZ AUX)
    Blend: AUG-CC-PVTZ-JKFIT

    Orbital Energies [Eh]
    ---------------------

    Doubly Occupied:

       1A    -20.626608     2A    -20.564734     3A    -20.564504
       4A    -11.404028     5A    -11.398401     6A    -11.254862
       7A    -11.250450     8A    -11.245559     9A    -11.222164
      10A    -11.215566    11A     -1.485443    12A     -1.405074
      13A     -1.363417    14A     -1.113687    15A     -1.042907
      16A     -0.991590    17A     -0.939585    18A     -0.868333
      19A     -0.795086    20A     -0.739356    21A     -0.702103
      22A     -0.698434    23A     -0.682749    24A     -0.648700
      25A     -0.629315    26A     -0.620856    27A     -0.594665
      28A     -0.590110    29A     -0.570378    30A     -0.555785
      31A     -0.551385    32A     -0.541900    33A     -0.527328
      34A     -0.495717    35A     -0.487238    36A     -0.479631
      37A     -0.473709    38A     -0.471403    39A     -0.439581

  @DF-RHF Final Energy:  -496.86399973071065

   => Energetics <=

    Nuclear Repulsion Energy =            555.7364320324051050
    One-Electron Energy =               -1780.6961799862644966
    Two-Electron Energy =                 728.0957482231485756
    Total Energy =                       -496.8639997307107024
  Basis Set: (AUG-CC-PVTZ AUX)
    Blend: AUG-CC-PVTZ-RI
    Molecular point group: c1

    Geometry (in Angstrom), charge = 0, multiplicity = 1:

       Center              X                  Y                   Z               Mass
    ------------   -----------------  -----------------  -----------------  -----------------
         O           -0.908046575556    -0.127416982717    -0.732032949366    15.994914619570
         O           -0.418472575556     1.964463017283     0.080896050634    15.994914619570
         O           -1.931049575556    -0.112382982717     1.322086050634    15.994914619570
         C            1.920024424444    -0.586894982717    -0.040372949366    12.000000000000
         C            1.358338424444     0.589517017283    -0.856043949366    12.000000000000
         C            1.824709424444    -0.304998982717     1.458564050634    12.000000000000
         C            3.359522424444    -0.869920982717    -0.463481949366    12.000000000000
         C           -0.036768575556     0.938228017283    -0.429066949366    12.000000000000
         C           -1.963034575556    -0.387856982717     0.144372050634    12.000000000000
         C           -3.065079575556    -1.094045982717    -0.588769949366    12.000000000000
         H            1.308682424444    -1.468201982717    -0.269830949366     1.007825032230
         H            1.974185424444     1.483759017283    -0.717113949366     1.007825032230
         H            1.348359424444     0.334442017283    -1.922439949366     1.007825032230
         H            2.383423424444     0.602289017283     1.714000050634     1.007825032230
         H            2.248572424444    -1.135187982717     2.031951050634     1.007825032230
         H            0.788421424444    -0.166875982717     1.781905050634     1.007825032230
         H            4.000271424444    -0.008867982717    -0.244840949366     1.007825032230
         H            3.751882624444    -1.716626282717     0.068639150634     1.007825032230
         H            3.427453424444    -1.081317982717    -1.535443949366     1.007825032230
         H           -3.487490575556    -0.421445982717    -1.339677949366     1.007825032230
         H           -3.835100575556    -1.395551982717     0.120234050634     1.007825032230
         H           -2.664655575556    -1.966272982717    -1.110424949366     1.007825032230

  Basis Set: AUG-CC-PVTZ
    Blend: AUG-CC-PVTZ
  Basis Set: (AUG-CC-PVTZ AUX)
    Blend: AUG-CC-PVTZ-JKFIT
	 Reference Energy          =    -496.8639997307106455 [Eh]
	 Singles Energy            =      -0.0000000000000000 [Eh]
	 Same-Spin Energy          =      -0.4946135184283744 [Eh]
	 Opposite-Spin Energy      =      -1.5976913461773283 [Eh]
	 Correlation Energy        =      -2.0923048646057030 [Eh]
	 Total Energy              =    -498.9563045953163396 [Eh]

	 ================> DF-SCS-MP2 Energies <==================
	-----------------------------------------------------------
	 SCS Same-Spin Scale       =       0.3333333333333333 [-]
	 SCS Opposite-Spin Scale   =       1.2000000000000000 [-]
	 SCS Same-Spin Energy      =      -0.1648711728094581 [Eh]
	 SCS Opposite-Spin Energy  =      -1.9172296154127939 [Eh]
	 SCS Correlation Energy    =      -2.0821007882222520 [Eh]
	 SCS Total Energy          =    -498.9461005189328944 [Eh]
	-----------------------------------------------------------

  Dipole Moment: [D]
     X:     0.7957      Y:    -2.5065      Z:    -2.5367     Total:     3.6538

*** Psi4 exiting successfully. Buy a developer a beer!
