                               Psi4 1.4a3.dev225

  ==> Input File <==

--------------------------------------------------------------------------
#psi4
#
memory 32 gb

molecule  {
0 1
  O       -0.9795470    -0.0831330    -0.7231310
  O       -0.4899730     2.0087470     0.0897980
  O       -2.0025500    -0.0680990     1.3309880
  C        1.8485240    -0.5426110    -0.0314710
  C        1.2868380     0.6338010    -0.8471420
  C        1.7532090    -0.2607150     1.4674660
  C        3.2880220    -0.8256370    -0.4545800
  C       -0.1082690     0.9825120    -0.4201650
  C       -2.0345350    -0.3435730     0.1532740
  C       -3.1365800    -1.0497620    -0.5798680
  H        1.2371820    -1.4239180    -0.2609290
  H        1.9026850     1.5280430    -0.7082120
  H        1.2768590     0.3787260    -1.9135380
  H        2.3119230     0.6465730     1.7229020
  H        2.1770720    -1.0909040     2.0408530
  H        0.7169210    -0.1225920     1.7908070
  H        3.9287710     0.0354160    -0.2359390
  H        3.7007919    -1.7211391     0.0198419
  H        3.3559530    -1.0370340    -1.5265420
  H       -3.5589910    -0.3771620    -1.3307760
  H       -3.9066010    -1.3512680     0.1291360
  H       -2.7361560    -1.9219890    -1.1015230
units angstrom
no_reorient  #important for SAPT in psi4, default
symmetry c1  #important for SAPT in psi4, default
}

set PROPERTIES_ORIGIN ["COM"]
properties('MP2/aug-cc-pvtz', properties = ['dipole'])
--------------------------------------------------------------------------

    Molecular point group: c1
  Charge       = 0
  Multiplicity = 1
  Basis Set: AUG-CC-PVTZ
    Blend: AUG-CC-PVTZ
  Basis Set: (AUG-CC-PVTZ AUX)
    Blend: AUG-CC-PVTZ-JKFIT

    Orbital Energies [Eh]
    ---------------------

    Doubly Occupied:

       1A    -20.626760     2A    -20.564820     3A    -20.564761
       4A    -11.404120     5A    -11.398698     6A    -11.254930
       7A    -11.250864     8A    -11.246163     9A    -11.224529
      10A    -11.215396    11A     -1.485597    12A     -1.405233
      13A     -1.363570    14A     -1.113550    15A     -1.042883
      16A     -0.990997    17A     -0.939003    18A     -0.868259
      19A     -0.794992    20A     -0.739489    21A     -0.702199
      22A     -0.698550    23A     -0.682933    24A     -0.649569
      25A     -0.629354    26A     -0.619808    27A     -0.592853
      28A     -0.589949    29A     -0.571283    30A     -0.556096
      31A     -0.550682    32A     -0.539618    33A     -0.527331
      34A     -0.496436    35A     -0.487123    36A     -0.478954
      37A     -0.473752    38A     -0.471031    39A     -0.440096

  @DF-RHF Final Energy:  -496.86344884055933

   => Energetics <=

    Nuclear Repulsion Energy =            555.5763449316089009
    One-Electron Energy =               -1780.3751250222230738
    Two-Electron Energy =                 727.9353312500547872
    Total Energy =                       -496.8634488405593856
  Basis Set: (AUG-CC-PVTZ AUX)
    Blend: AUG-CC-PVTZ-RI
    Molecular point group: c1

    Geometry (in Angstrom), charge = 0, multiplicity = 1:

       Center              X                  Y                   Z               Mass
    ------------   -----------------  -----------------  -----------------  -----------------
         O           -0.908189340687    -0.127075650823    -0.731629345498    15.994914619570
         O           -0.418615340687     1.964804349177     0.081299654502    15.994914619570
         O           -1.931192340687    -0.112041650823     1.322489654502    15.994914619570
         C            1.919881659313    -0.586553650823    -0.039969345498    12.000000000000
         C            1.358195659313     0.589858349177    -0.855640345498    12.000000000000
         C            1.824566659313    -0.304657650823     1.458967654502    12.000000000000
         C            3.359379659313    -0.869579650823    -0.463078345498    12.000000000000
         C           -0.036911340687     0.938569349177    -0.428663345498    12.000000000000
         C           -1.963177340687    -0.387515650823     0.144775654502    12.000000000000
         C           -3.065222340687    -1.093704650823    -0.588366345498    12.000000000000
         H            1.308539659313    -1.467860650823    -0.269427345498     1.007825032230
         H            1.974042659313     1.484100349177    -0.716710345498     1.007825032230
         H            1.348216659313     0.334783349177    -1.922036345498     1.007825032230
         H            2.383280659313     0.602630349177     1.714403654502     1.007825032230
         H            2.248429659313    -1.134846650823     2.032354654502     1.007825032230
         H            0.788278659313    -0.166534650823     1.782308654502     1.007825032230
         H            4.000128659313    -0.008526650823    -0.244437345498     1.007825032230
         H            3.772149559313    -1.765081750823     0.011343554502     1.007825032230
         H            3.427310659313    -1.080976650823    -1.535040345498     1.007825032230
         H           -3.487633340687    -0.421104650823    -1.339274345498     1.007825032230
         H           -3.835243340687    -1.395210650823     0.120637654502     1.007825032230
         H           -2.664798340687    -1.965931650823    -1.110021345498     1.007825032230

  Basis Set: AUG-CC-PVTZ
    Blend: AUG-CC-PVTZ
  Basis Set: (AUG-CC-PVTZ AUX)
    Blend: AUG-CC-PVTZ-JKFIT
	 Reference Energy          =    -496.8634488405593288 [Eh]
	 Singles Energy            =      -0.0000000000000000 [Eh]
	 Same-Spin Energy          =      -0.4946023325600029 [Eh]
	 Opposite-Spin Energy      =      -1.5977970434044897 [Eh]
	 Correlation Energy        =      -2.0923993759644928 [Eh]
	 Total Energy              =    -498.9558482165238047 [Eh]

	 ================> DF-SCS-MP2 Energies <==================
	-----------------------------------------------------------
	 SCS Same-Spin Scale       =       0.3333333333333333 [-]
	 SCS Opposite-Spin Scale   =       1.2000000000000000 [-]
	 SCS Same-Spin Energy      =      -0.1648674441866676 [Eh]
	 SCS Opposite-Spin Energy  =      -1.9173564520853876 [Eh]
	 SCS Correlation Energy    =      -2.0822238962720552 [Eh]
	 SCS Total Energy          =    -498.9456727368313977 [Eh]
	-----------------------------------------------------------

  Dipole Moment: [D]
     X:     0.7841      Y:    -2.5118      Z:    -2.5578     Total:     3.6696

*** Psi4 exiting successfully. Buy a developer a beer!
