                               Psi4 1.4a3.dev225

  ==> Input File <==

--------------------------------------------------------------------------
#psi4
#
memory 32 gb

molecule  {
0 1
  O       -0.9795470    -0.0831330    -0.7231310
  O       -0.4899730     2.0087470     0.0897980
  O       -2.0025500    -0.0680990     1.3309880
  C        1.8485240    -0.5426110    -0.0314710
  C        1.2868380     0.6338010    -0.8471420
  C        1.7656832    -0.2976078     1.2712944
  C        3.2880220    -0.8256370    -0.4545800
  C       -0.1082690     0.9825120    -0.4201650
  C       -2.0345350    -0.3435730     0.1532740
  C       -3.1365800    -1.0497620    -0.5798680
  H        1.2371820    -1.4239180    -0.2609290
  H        1.9026850     1.5280430    -0.7082120
  H        1.2768590     0.3787260    -1.9135380
  H        2.3119230     0.6465730     1.7229020
  H        2.1770720    -1.0909040     2.0408530
  H        0.7169210    -0.1225920     1.7908070
  H        3.9287710     0.0354160    -0.2359390
  H        3.6876870    -1.6881060     0.0874480
  H        3.3559530    -1.0370340    -1.5265420
  H       -3.5589910    -0.3771620    -1.3307760
  H       -3.9066010    -1.3512680     0.1291360
  H       -2.7361560    -1.9219890    -1.1015230
units angstrom
no_reorient  #important for SAPT in psi4, default
symmetry c1  #important for SAPT in psi4, default
}

set PROPERTIES_ORIGIN ["COM"]
properties('MP2/aug-cc-pvtz', properties = ['dipole'])
--------------------------------------------------------------------------

    Molecular point group: c1
  Charge       = 0
  Multiplicity = 1
  Basis Set: AUG-CC-PVTZ
    Blend: AUG-CC-PVTZ
  Basis Set: (AUG-CC-PVTZ AUX)
    Blend: AUG-CC-PVTZ-JKFIT

    Orbital Energies [Eh]
    ---------------------

    Doubly Occupied:

       1A    -20.626831     2A    -20.564800     3A    -20.564415
       4A    -11.403832     5A    -11.399129     6A    -11.254844
       7A    -11.252270     8A    -11.236199     9A    -11.228708
      10A    -11.225921    11A     -1.485557    12A     -1.405014
      13A     -1.363440    14A     -1.144326    15A     -1.045369
      16A     -0.998461    17A     -0.941498    18A     -0.867927
      19A     -0.791209    20A     -0.739581    21A     -0.703652
      22A     -0.698915    23A     -0.684904    24A     -0.661801
      25A     -0.631316    26A     -0.628401    27A     -0.596731
      28A     -0.590454    29A     -0.572846    30A     -0.558432
      31A     -0.553817    32A     -0.534045    33A     -0.525437
      34A     -0.512798    35A     -0.482658    36A     -0.475950
      37A     -0.462064    38A     -0.446512    39A     -0.434231

  @DF-RHF Final Energy:  -496.81358450929838

   => Energetics <=

    Nuclear Repulsion Energy =            558.9467869064309298
    One-Electron Energy =               -1786.9321467293466412
    Two-Electron Energy =                 731.1717753136172178
    Total Energy =                       -496.8135845092983800
  Basis Set: (AUG-CC-PVTZ AUX)
    Blend: AUG-CC-PVTZ-RI
    Molecular point group: c1

    Geometry (in Angstrom), charge = 0, multiplicity = 1:

       Center              X                  Y                   Z               Mass
    ------------   -----------------  -----------------  -----------------  -----------------
         O           -0.909136621629    -0.124233994330    -0.715763537681    15.994914619570
         O           -0.419562621629     1.967646005670     0.097165462319    15.994914619570
         O           -1.932139621629    -0.109199994330     1.338355462319    15.994914619570
         C            1.918934378371    -0.583711994330    -0.024103537681    12.000000000000
         C            1.357248378371     0.592700005670    -0.839774537681    12.000000000000
         C            1.836093578371    -0.338708794330     1.278661862319    12.000000000000
         C            3.358432378371    -0.866737994330    -0.447212537681    12.000000000000
         C           -0.037858621629     0.941411005670    -0.412797537681    12.000000000000
         C           -1.964124621629    -0.384673994330     0.160641462319    12.000000000000
         C           -3.066169621629    -1.090862994330    -0.572500537681    12.000000000000
         H            1.307592378371    -1.465018994330    -0.253561537681     1.007825032230
         H            1.973095378371     1.486942005670    -0.700844537681     1.007825032230
         H            1.347269378371     0.337625005670    -1.906170537681     1.007825032230
         H            2.382333378371     0.605472005670     1.730269462319     1.007825032230
         H            2.247482378371    -1.132004994330     2.048220462319     1.007825032230
         H            0.787331378371    -0.163692994330     1.798174462319     1.007825032230
         H            3.999181378371    -0.005684994330    -0.228571537681     1.007825032230
         H            3.758097378371    -1.729206994330     0.094815462319     1.007825032230
         H            3.426363378371    -1.078134994330    -1.519174537681     1.007825032230
         H           -3.488580621629    -0.418262994330    -1.323408537681     1.007825032230
         H           -3.836190621629    -1.392368994330     0.136503462319     1.007825032230
         H           -2.665745621629    -1.963089994330    -1.094155537681     1.007825032230

  Basis Set: AUG-CC-PVTZ
    Blend: AUG-CC-PVTZ
  Basis Set: (AUG-CC-PVTZ AUX)
    Blend: AUG-CC-PVTZ-JKFIT
	 Reference Energy          =    -496.8135845092983800 [Eh]
	 Singles Energy            =      -0.0000000000000000 [Eh]
	 Same-Spin Energy          =      -0.4979360402135961 [Eh]
	 Opposite-Spin Energy      =      -1.6021927226543218 [Eh]
	 Correlation Energy        =      -2.1001287628679179 [Eh]
	 Total Energy              =    -498.9137132721663193 [Eh]

	 ================> DF-SCS-MP2 Energies <==================
	-----------------------------------------------------------
	 SCS Same-Spin Scale       =       0.3333333333333333 [-]
	 SCS Opposite-Spin Scale   =       1.2000000000000000 [-]
	 SCS Same-Spin Energy      =      -0.1659786800711987 [Eh]
	 SCS Opposite-Spin Energy  =      -1.9226312671851860 [Eh]
	 SCS Correlation Energy    =      -2.0886099472563848 [Eh]
	 SCS Total Energy          =    -498.9021944565547528 [Eh]
	-----------------------------------------------------------

  Dipole Moment: [D]
     X:     0.7551      Y:    -2.5008      Z:    -2.5550     Total:     3.6540

*** Psi4 exiting successfully. Buy a developer a beer!
