                               Psi4 1.4a3.dev225

  ==> Input File <==

--------------------------------------------------------------------------
#psi4
#
memory 32 gb

molecule  {
0 1
  O       -0.9795470    -0.0831330    -0.7231310
  O       -0.4899730     2.0087470     0.0897980
  O       -2.0025500    -0.0680990     1.3309880
  C        1.8485240    -0.5426110    -0.0314710
  C        1.2868380     0.6338010    -0.8471420
  C        1.7694653    -0.2398039     1.4643298
  C        3.2880220    -0.8256370    -0.4545800
  C       -0.1082690     0.9825120    -0.4201650
  C       -2.0345350    -0.3435730     0.1532740
  C       -3.1365800    -1.0497620    -0.5798680
  H        1.2371820    -1.4239180    -0.2609290
  H        1.9026850     1.5280430    -0.7082120
  H        1.2768590     0.3787260    -1.9135380
  H        2.3119230     0.6465730     1.7229020
  H        2.1770720    -1.0909040     2.0408530
  H        0.7169210    -0.1225920     1.7908070
  H        3.9287710     0.0354160    -0.2359390
  H        3.6876870    -1.6881060     0.0874480
  H        3.3559530    -1.0370340    -1.5265420
  H       -3.5589910    -0.3771620    -1.3307760
  H       -3.9066010    -1.3512680     0.1291360
  H       -2.7361560    -1.9219890    -1.1015230
units angstrom
no_reorient  #important for SAPT in psi4, default
symmetry c1  #important for SAPT in psi4, default
}

set PROPERTIES_ORIGIN ["COM"]
properties('MP2/aug-cc-pvtz', properties = ['dipole'])
--------------------------------------------------------------------------

    Molecular point group: c1
  Charge       = 0
  Multiplicity = 1
  Basis Set: AUG-CC-PVTZ
    Blend: AUG-CC-PVTZ
  Basis Set: (AUG-CC-PVTZ AUX)
    Blend: AUG-CC-PVTZ-JKFIT

    Orbital Energies [Eh]
    ---------------------

    Doubly Occupied:

       1A    -20.626616     2A    -20.564700     3A    -20.564454
       4A    -11.404002     5A    -11.398432     6A    -11.254858
       7A    -11.250440     8A    -11.245822     9A    -11.224399
      10A    -11.215539    11A     -1.485429    12A     -1.405038
      13A     -1.363396    14A     -1.113848    15A     -1.042864
      16A     -0.991117    17A     -0.938291    18A     -0.868091
      19A     -0.795161    20A     -0.739388    21A     -0.702060
      22A     -0.698476    23A     -0.682666    24A     -0.648579
      25A     -0.629113    26A     -0.619781    27A     -0.593939
      28A     -0.590103    29A     -0.570098    30A     -0.556951
      31A     -0.552654    32A     -0.540518    33A     -0.526742
      34A     -0.492752    35A     -0.487620    36A     -0.480891
      37A     -0.473770    38A     -0.470883    39A     -0.439293

  @DF-RHF Final Energy:  -496.86313924924377

   => Energetics <=

    Nuclear Repulsion Energy =            555.6278773381113751
    One-Electron Energy =               -1780.4844831335124127
    Two-Electron Energy =                 727.9934665461572649
    Total Energy =                       -496.8631392492437726
  Basis Set: (AUG-CC-PVTZ AUX)
    Blend: AUG-CC-PVTZ-RI
    Molecular point group: c1

    Geometry (in Angstrom), charge = 0, multiplicity = 1:

       Center              X                  Y                   Z               Mass
    ------------   -----------------  -----------------  -----------------  -----------------
         O           -0.909451624593    -0.129048356678    -0.731841040438    15.994914619570
         O           -0.419877624593     1.962831643322     0.081087959562    15.994914619570
         O           -1.932454624593    -0.114014356678     1.322277959562    15.994914619570
         C            1.918619375407    -0.588526356678    -0.040181040438    12.000000000000
         C            1.356933375407     0.587885643322    -0.855852040438    12.000000000000
         C            1.839560675407    -0.285719256678     1.455619759562    12.000000000000
         C            3.358117375407    -0.871552356678    -0.463290040438    12.000000000000
         C           -0.038173624593     0.936596643322    -0.428875040438    12.000000000000
         C           -1.964439624593    -0.389488356678     0.144563959562    12.000000000000
         C           -3.066484624593    -1.095677356678    -0.588578040438    12.000000000000
         H            1.307277375407    -1.469833356678    -0.269639040438     1.007825032230
         H            1.972780375407     1.482127643322    -0.716922040438     1.007825032230
         H            1.346954375407     0.332810643322    -1.922248040438     1.007825032230
         H            2.382018375407     0.600657643322     1.714191959562     1.007825032230
         H            2.247167375407    -1.136819356678     2.032142959562     1.007825032230
         H            0.787016375407    -0.168507356678     1.782096959562     1.007825032230
         H            3.998866375407    -0.010499356678    -0.244649040438     1.007825032230
         H            3.757782375407    -1.734021356678     0.078737959562     1.007825032230
         H            3.426048375407    -1.082949356678    -1.535252040438     1.007825032230
         H           -3.488895624593    -0.423077356678    -1.339486040438     1.007825032230
         H           -3.836505624593    -1.397183356678     0.120425959562     1.007825032230
         H           -2.666060624593    -1.967904356678    -1.110233040438     1.007825032230

  Basis Set: AUG-CC-PVTZ
    Blend: AUG-CC-PVTZ
  Basis Set: (AUG-CC-PVTZ AUX)
    Blend: AUG-CC-PVTZ-JKFIT
	 Reference Energy          =    -496.8631392492437726 [Eh]
	 Singles Energy            =      -0.0000000000000000 [Eh]
	 Same-Spin Energy          =      -0.4946456371815437 [Eh]
	 Opposite-Spin Energy      =      -1.5978795932248107 [Eh]
	 Correlation Energy        =      -2.0925252304063542 [Eh]
	 Total Energy              =    -498.9556644796501246 [Eh]

	 ================> DF-SCS-MP2 Energies <==================
	-----------------------------------------------------------
	 SCS Same-Spin Scale       =       0.3333333333333333 [-]
	 SCS Opposite-Spin Scale   =       1.2000000000000000 [-]
	 SCS Same-Spin Energy      =      -0.1648818790605145 [Eh]
	 SCS Opposite-Spin Energy  =      -1.9174555118697727 [Eh]
	 SCS Correlation Energy    =      -2.0823373909302871 [Eh]
	 SCS Total Energy          =    -498.9454766401740358 [Eh]
	-----------------------------------------------------------

  Dipole Moment: [D]
     X:     0.7909      Y:    -2.4877      Z:    -2.5364     Total:     3.6397

*** Psi4 exiting successfully. Buy a developer a beer!
