                               Psi4 1.4a3.dev225

  ==> Input File <==

--------------------------------------------------------------------------
#psi4
#
memory 32 gb

molecule  {
0 1
  O       -0.9795470    -0.0831330    -0.7231310
  O       -0.4899730     2.0087470     0.0897980
  O       -2.0025500    -0.0680990     1.3309880
  C        1.8485240    -0.5426110    -0.0314710
  C        1.2868380     0.6338010    -0.8471420
  C        1.7532090    -0.2607150     1.4674660
  C        3.2880220    -0.8256370    -0.4545800
  C       -0.1082690     0.9825120    -0.4201650
  C       -2.0350637    -0.3481266     0.1338065
  C       -3.1365800    -1.0497620    -0.5798680
  H        1.2371820    -1.4239180    -0.2609290
  H        1.9026850     1.5280430    -0.7082120
  H        1.2768590     0.3787260    -1.9135380
  H        2.3119230     0.6465730     1.7229020
  H        2.1770720    -1.0909040     2.0408530
  H        0.7169210    -0.1225920     1.7908070
  H        3.9287710     0.0354160    -0.2359390
  H        3.6876870    -1.6881060     0.0874480
  H        3.3559530    -1.0370340    -1.5265420
  H       -3.5589910    -0.3771620    -1.3307760
  H       -3.9066010    -1.3512680     0.1291360
  H       -2.7361560    -1.9219890    -1.1015230
units angstrom
no_reorient  #important for SAPT in psi4, default
symmetry c1  #important for SAPT in psi4, default
}

set PROPERTIES_ORIGIN ["COM"]
properties('MP2/aug-cc-pvtz', properties = ['dipole'])
--------------------------------------------------------------------------

    Molecular point group: c1
  Charge       = 0
  Multiplicity = 1
  Basis Set: AUG-CC-PVTZ
    Blend: AUG-CC-PVTZ
  Basis Set: (AUG-CC-PVTZ AUX)
    Blend: AUG-CC-PVTZ-JKFIT

    Orbital Energies [Eh]
    ---------------------

    Doubly Occupied:

       1A    -20.629575     2A    -20.565657     3A    -20.561144
       4A    -11.405507     5A    -11.400125     6A    -11.255292
       7A    -11.251516     8A    -11.246111     9A    -11.224911
      10A    -11.215425    11A     -1.487079    12A     -1.399239
      13A     -1.358348    14A     -1.114346    15A     -1.046908
      16A     -0.992532    17A     -0.938742    18A     -0.872000
      19A     -0.795189    20A     -0.739048    21A     -0.702147
      22A     -0.698428    23A     -0.683084    24A     -0.648794
      25A     -0.629557    26A     -0.619535    27A     -0.594678
      28A     -0.588929    29A     -0.571372    30A     -0.556357
      31A     -0.551700    32A     -0.539982    33A     -0.524224
      34A     -0.496207    35A     -0.484512    36A     -0.479468
      37A     -0.472796    38A     -0.470239    39A     -0.440342

  @DF-RHF Final Energy:  -496.86155375797301

   => Energetics <=

    Nuclear Repulsion Energy =            555.5618303632694506
    One-Electron Energy =               -1780.3446702799403738
    Two-Electron Energy =                 727.9212861586979670
    Total Energy =                       -496.8615537579730699
  Basis Set: (AUG-CC-PVTZ AUX)
    Blend: AUG-CC-PVTZ-RI
    Molecular point group: c1

    Geometry (in Angstrom), charge = 0, multiplicity = 1:

       Center              X                  Y                   Z               Mass
    ------------   -----------------  -----------------  -----------------  -----------------
         O           -0.908053638090    -0.126927456654    -0.730480841631    15.994914619570
         O           -0.418479638090     1.964952543346     0.082448158369    15.994914619570
         O           -1.931056638090    -0.111893456654     1.323638158369    15.994914619570
         C            1.920017361910    -0.586405456654    -0.038820841631    12.000000000000
         C            1.358331361910     0.590006543346    -0.854491841631    12.000000000000
         C            1.824702361910    -0.304509456654     1.460116158369    12.000000000000
         C            3.359515361910    -0.869431456654    -0.461929841631    12.000000000000
         C           -0.036775638090     0.938717543346    -0.427514841631    12.000000000000
         C           -1.963570338090    -0.391921056654     0.126456658369    12.000000000000
         C           -3.065086638090    -1.093556456654    -0.587217841631    12.000000000000
         H            1.308675361910    -1.467712456654    -0.268278841631     1.007825032230
         H            1.974178361910     1.484248543346    -0.715561841631     1.007825032230
         H            1.348352361910     0.334931543346    -1.920887841631     1.007825032230
         H            2.383416361910     0.602778543346     1.715552158369     1.007825032230
         H            2.248565361910    -1.134698456654     2.033503158369     1.007825032230
         H            0.788414361910    -0.166386456654     1.783457158369     1.007825032230
         H            4.000264361910    -0.008378456654    -0.243288841631     1.007825032230
         H            3.759180361910    -1.731900456654     0.080098158369     1.007825032230
         H            3.427446361910    -1.080828456654    -1.533891841631     1.007825032230
         H           -3.487497638090    -0.420956456654    -1.338125841631     1.007825032230
         H           -3.835107638090    -1.395062456654     0.121786158369     1.007825032230
         H           -2.664662638090    -1.965783456654    -1.108872841631     1.007825032230

  Basis Set: AUG-CC-PVTZ
    Blend: AUG-CC-PVTZ
  Basis Set: (AUG-CC-PVTZ AUX)
    Blend: AUG-CC-PVTZ-JKFIT
	 Reference Energy          =    -496.8615537579730130 [Eh]
	 Singles Energy            =      -0.0000000000000000 [Eh]
	 Same-Spin Energy          =      -0.4950667578382871 [Eh]
	 Opposite-Spin Energy      =      -1.5986736553947194 [Eh]
	 Correlation Energy        =      -2.0937404132330064 [Eh]
	 Total Energy              =    -498.9552941712059919 [Eh]

	 ================> DF-SCS-MP2 Energies <==================
	-----------------------------------------------------------
	 SCS Same-Spin Scale       =       0.3333333333333333 [-]
	 SCS Opposite-Spin Scale   =       1.2000000000000000 [-]
	 SCS Same-Spin Energy      =      -0.1650222526127623 [Eh]
	 SCS Opposite-Spin Energy  =      -1.9184083864736632 [Eh]
	 SCS Correlation Energy    =      -2.0834306390864255 [Eh]
	 SCS Total Energy          =    -498.9449843970594429 [Eh]
	-----------------------------------------------------------

  Dipole Moment: [D]
     X:     0.8321      Y:    -2.4942      Z:    -2.6616     Total:     3.7413

*** Psi4 exiting successfully. Buy a developer a beer!
