                               Psi4 1.4a3.dev225

  ==> Input File <==

--------------------------------------------------------------------------
#psi4
#
memory 32 gb

molecule  {
0 1
  O       -0.9795470    -0.0831330    -0.7231310
  O       -0.4899730     2.0087470     0.0897980
  O       -2.0025500    -0.0680990     1.3309880
  C        1.8485240    -0.5426110    -0.0314710
  C        1.3247056     0.6653718    -0.8259189
  C        1.7532090    -0.2607150     1.4674660
  C        3.2880220    -0.8256370    -0.4545800
  C       -0.1082690     0.9825120    -0.4201650
  C       -2.0345350    -0.3435730     0.1532740
  C       -3.1365800    -1.0497620    -0.5798680
  H        1.2371820    -1.4239180    -0.2609290
  H        1.9026850     1.5280430    -0.7082120
  H        1.2768590     0.3787260    -1.9135380
  H        2.3119230     0.6465730     1.7229020
  H        2.1770720    -1.0909040     2.0408530
  H        0.7169210    -0.1225920     1.7908070
  H        3.9287710     0.0354160    -0.2359390
  H        3.6876870    -1.6881060     0.0874480
  H        3.3559530    -1.0370340    -1.5265420
  H       -3.5589910    -0.3771620    -1.3307760
  H       -3.9066010    -1.3512680     0.1291360
  H       -2.7361560    -1.9219890    -1.1015230
units angstrom
no_reorient  #important for SAPT in psi4, default
symmetry c1  #important for SAPT in psi4, default
}

set PROPERTIES_ORIGIN ["COM"]
properties('MP2/aug-cc-pvtz', properties = ['dipole'])
--------------------------------------------------------------------------

    Molecular point group: c1
  Charge       = 0
  Multiplicity = 1
  Basis Set: AUG-CC-PVTZ
    Blend: AUG-CC-PVTZ
  Basis Set: (AUG-CC-PVTZ AUX)
    Blend: AUG-CC-PVTZ-JKFIT

    Orbital Energies [Eh]
    ---------------------

    Doubly Occupied:

       1A    -20.627786     2A    -20.565071     3A    -20.563007
       4A    -11.404642     5A    -11.398364     6A    -11.255226
       7A    -11.250889     8A    -11.245392     9A    -11.224054
      10A    -11.215063    11A     -1.485304    12A     -1.404674
      13A     -1.363275    14A     -1.112933    15A     -1.042575
      16A     -0.988090    17A     -0.938444    18A     -0.869334
      19A     -0.794880    20A     -0.739244    21A     -0.702890
      22A     -0.697087    23A     -0.682343    24A     -0.647339
      25A     -0.626647    26A     -0.621180    27A     -0.594064
      28A     -0.591862    29A     -0.572613    30A     -0.562394
      31A     -0.550101    32A     -0.538810    33A     -0.527053
      34A     -0.494815    35A     -0.489771    36A     -0.477700
      37A     -0.473490    38A     -0.470562    39A     -0.436626

  @DF-RHF Final Energy:  -496.86110759218667

   => Energetics <=

    Nuclear Repulsion Energy =            555.2713143764924553
    One-Electron Energy =               -1779.7736569184116888
    Two-Electron Energy =                 727.6412349497325067
    Total Energy =                       -496.8611075921867268
  Basis Set: (AUG-CC-PVTZ AUX)
    Blend: AUG-CC-PVTZ-RI
    Molecular point group: c1

    Geometry (in Angstrom), charge = 0, multiplicity = 1:

       Center              X                  Y                   Z               Mass
    ------------   -----------------  -----------------  -----------------  -----------------
         O           -0.911251583229    -0.129936180134    -0.733869874076    15.994914619570
         O           -0.421677583229     1.961943819866     0.079059125924    15.994914619570
         O           -1.934254583229    -0.114902180134     1.320249125924    15.994914619570
         C            1.916819416771    -0.589414180134    -0.042209874076    12.000000000000
         C            1.393001016771     0.618568619866    -0.836657774076    12.000000000000
         C            1.821504416771    -0.307518180134     1.456727125924    12.000000000000
         C            3.356317416771    -0.872440180134    -0.465318874076    12.000000000000
         C           -0.039973583229     0.935708819866    -0.430903874076    12.000000000000
         C           -1.966239583229    -0.390376180134     0.142535125924    12.000000000000
         C           -3.068284583229    -1.096565180134    -0.590606874076    12.000000000000
         H            1.305477416771    -1.470721180134    -0.271667874076     1.007825032230
         H            1.970980416771     1.481239819866    -0.718950874076     1.007825032230
         H            1.345154416771     0.331922819866    -1.924276874076     1.007825032230
         H            2.380218416771     0.599769819866     1.712163125924     1.007825032230
         H            2.245367416771    -1.137707180134     2.030114125924     1.007825032230
         H            0.785216416771    -0.169395180134     1.780068125924     1.007825032230
         H            3.997066416771    -0.011387180134    -0.246677874076     1.007825032230
         H            3.755982416771    -1.734909180134     0.076709125924     1.007825032230
         H            3.424248416771    -1.083837180134    -1.537280874076     1.007825032230
         H           -3.490695583229    -0.423965180134    -1.341514874076     1.007825032230
         H           -3.838305583229    -1.398071180134     0.118397125924     1.007825032230
         H           -2.667860583229    -1.968792180134    -1.112261874076     1.007825032230

  Basis Set: AUG-CC-PVTZ
    Blend: AUG-CC-PVTZ
  Basis Set: (AUG-CC-PVTZ AUX)
    Blend: AUG-CC-PVTZ-JKFIT
	 Reference Energy          =    -496.8611075921866700 [Eh]
	 Singles Energy            =      -0.0000000000000000 [Eh]
	 Same-Spin Energy          =      -0.4944159779195552 [Eh]
	 Opposite-Spin Energy      =      -1.5976359960473994 [Eh]
	 Correlation Energy        =      -2.0920519739669547 [Eh]
	 Total Energy              =    -498.9531595661536016 [Eh]

	 ================> DF-SCS-MP2 Energies <==================
	-----------------------------------------------------------
	 SCS Same-Spin Scale       =       0.3333333333333333 [-]
	 SCS Opposite-Spin Scale   =       1.2000000000000000 [-]
	 SCS Same-Spin Energy      =      -0.1648053259731850 [Eh]
	 SCS Opposite-Spin Energy  =      -1.9171631952568791 [Eh]
	 SCS Correlation Energy    =      -2.0819685212300643 [Eh]
	 SCS Total Energy          =    -498.9430761134167369 [Eh]
	-----------------------------------------------------------

  Dipole Moment: [D]
     X:     0.7699      Y:    -2.4872      Z:    -2.5250     Total:     3.6269

*** Psi4 exiting successfully. Buy a developer a beer!
