                               Psi4 1.4a3.dev225

  ==> Input File <==

--------------------------------------------------------------------------
#psi4
#
memory 32 gb

molecule  {
0 1
  O       -0.9795470    -0.0831330    -0.7231310
  O       -0.4899730     2.0087470     0.0897980
  O       -2.0025500    -0.0680990     1.3309880
  C        1.8485240    -0.5426110    -0.0314710
  C        1.2868380     0.6338010    -0.8471420
  C        1.8183587    -0.1776495     1.4521919
  C        3.2880220    -0.8256370    -0.4545800
  C       -0.1082690     0.9825120    -0.4201650
  C       -2.0345350    -0.3435730     0.1532740
  C       -3.1365800    -1.0497620    -0.5798680
  H        1.2371820    -1.4239180    -0.2609290
  H        1.9026850     1.5280430    -0.7082120
  H        1.2768590     0.3787260    -1.9135380
  H        2.3119230     0.6465730     1.7229020
  H        2.1770720    -1.0909040     2.0408530
  H        0.7169210    -0.1225920     1.7908070
  H        3.9287710     0.0354160    -0.2359390
  H        3.6876870    -1.6881060     0.0874480
  H        3.3559530    -1.0370340    -1.5265420
  H       -3.5589910    -0.3771620    -1.3307760
  H       -3.9066010    -1.3512680     0.1291360
  H       -2.7361560    -1.9219890    -1.1015230
units angstrom
no_reorient  #important for SAPT in psi4, default
symmetry c1  #important for SAPT in psi4, default
}

set PROPERTIES_ORIGIN ["COM"]
properties('MP2/aug-cc-pvtz', properties = ['dipole'])
--------------------------------------------------------------------------

    Molecular point group: c1
  Charge       = 0
  Multiplicity = 1
  Basis Set: AUG-CC-PVTZ
    Blend: AUG-CC-PVTZ
  Basis Set: (AUG-CC-PVTZ AUX)
    Blend: AUG-CC-PVTZ-JKFIT

    Orbital Energies [Eh]
    ---------------------

    Doubly Occupied:

       1A    -20.626493     2A    -20.564510     3A    -20.564044
       4A    -11.403831     5A    -11.398216     6A    -11.254788
       7A    -11.250035     8A    -11.246788     9A    -11.223876
      10A    -11.216848    11A     -1.485236    12A     -1.404760
      13A     -1.363174    14A     -1.114873    15A     -1.042881
      16A     -0.991193    17A     -0.938232    18A     -0.867997
      19A     -0.798140    20A     -0.739452    21A     -0.702107
      22A     -0.698952    23A     -0.682388    24A     -0.648037
      25A     -0.629199    26A     -0.618087    27A     -0.595100
      28A     -0.590645    29A     -0.573812    30A     -0.563496
      31A     -0.553927    32A     -0.538715    33A     -0.524577
      34A     -0.493554    35A     -0.485260    36A     -0.477072
      37A     -0.474168    38A     -0.465517    39A     -0.438086

  @DF-RHF Final Energy:  -496.85020403842964

   => Energetics <=

    Nuclear Repulsion Energy =            555.5920468217273083
    One-Electron Energy =               -1780.3883637212290978
    Two-Electron Energy =                 727.9461128610721516
    Total Energy =                       -496.8502040384296379
  Basis Set: (AUG-CC-PVTZ AUX)
    Blend: AUG-CC-PVTZ-RI
    Molecular point group: c1

    Geometry (in Angstrom), charge = 0, multiplicity = 1:

       Center              X                  Y                   Z               Mass
    ------------   -----------------  -----------------  -----------------  -----------------
         O           -0.913523850585    -0.134225062801    -0.730830100886    15.994914619570
         O           -0.423949850585     1.957654937199     0.082098899114    15.994914619570
         O           -1.936526850585    -0.119191062801     1.323288899114    15.994914619570
         C            1.914547149415    -0.593703062801    -0.039170100886    12.000000000000
         C            1.352861149415     0.582708937199    -0.854841100886    12.000000000000
         C            1.884381849415    -0.228741562801     1.444492799114    12.000000000000
         C            3.354045149415    -0.876729062801    -0.462279100886    12.000000000000
         C           -0.042245850585     0.931419937199    -0.427864100886    12.000000000000
         C           -1.968511850585    -0.394665062801     0.145574899114    12.000000000000
         C           -3.070556850585    -1.100854062801    -0.587567100886    12.000000000000
         H            1.303205149415    -1.475010062801    -0.268628100886     1.007825032230
         H            1.968708149415     1.476950937199    -0.715911100886     1.007825032230
         H            1.342882149415     0.327633937199    -1.921237100886     1.007825032230
         H            2.377946149415     0.595480937199     1.715202899114     1.007825032230
         H            2.243095149415    -1.141996062801     2.033153899114     1.007825032230
         H            0.782944149415    -0.173684062801     1.783107899114     1.007825032230
         H            3.994794149415    -0.015676062801    -0.243638100886     1.007825032230
         H            3.753710149415    -1.739198062801     0.079748899114     1.007825032230
         H            3.421976149415    -1.088126062801    -1.534241100886     1.007825032230
         H           -3.492967850585    -0.428254062801    -1.338475100886     1.007825032230
         H           -3.840577850585    -1.402360062801     0.121436899114     1.007825032230
         H           -2.670132850585    -1.973081062801    -1.109222100886     1.007825032230

  Basis Set: AUG-CC-PVTZ
    Blend: AUG-CC-PVTZ
  Basis Set: (AUG-CC-PVTZ AUX)
    Blend: AUG-CC-PVTZ-JKFIT
	 Reference Energy          =    -496.8502040384296379 [Eh]
	 Singles Energy            =      -0.0000000000000000 [Eh]
	 Same-Spin Energy          =      -0.4949044487527546 [Eh]
	 Opposite-Spin Energy      =      -1.5985417347096402 [Eh]
	 Correlation Energy        =      -2.0934461834623947 [Eh]
	 Total Energy              =    -498.9436502218920282 [Eh]

	 ================> DF-SCS-MP2 Energies <==================
	-----------------------------------------------------------
	 SCS Same-Spin Scale       =       0.3333333333333333 [-]
	 SCS Opposite-Spin Scale   =       1.2000000000000000 [-]
	 SCS Same-Spin Energy      =      -0.1649681495842515 [Eh]
	 SCS Opposite-Spin Energy  =      -1.9182500816515682 [Eh]
	 SCS Correlation Energy    =      -2.0832182312358198 [Eh]
	 SCS Total Energy          =    -498.9334222696654706 [Eh]
	-----------------------------------------------------------

  Dipole Moment: [D]
     X:     0.7984      Y:    -2.4691      Z:    -2.5358     Total:     3.6283

*** Psi4 exiting successfully. Buy a developer a beer!
