                               Psi4 1.4a3.dev225

  ==> Input File <==

--------------------------------------------------------------------------
#psi4
#
memory 32 gb

molecule  {
0 1
  O       -0.9795470    -0.0831330    -0.7231310
  O       -0.4899730     2.0087470     0.0897980
  O       -2.0025500    -0.0680990     1.3309880
  C        1.8483573    -0.4610231    -0.1000359
  C        1.2868380     0.6338010    -0.8471420
  C        1.7532090    -0.2607150     1.4674660
  C        3.2880220    -0.8256370    -0.4545800
  C       -0.1082690     0.9825120    -0.4201650
  C       -2.0345350    -0.3435730     0.1532740
  C       -3.1365800    -1.0497620    -0.5798680
  H        1.2371820    -1.4239180    -0.2609290
  H        1.9026850     1.5280430    -0.7082120
  H        1.2768590     0.3787260    -1.9135380
  H        2.3119230     0.6465730     1.7229020
  H        2.1770720    -1.0909040     2.0408530
  H        0.7169210    -0.1225920     1.7908070
  H        3.9287710     0.0354160    -0.2359390
  H        3.6876870    -1.6881060     0.0874480
  H        3.3559530    -1.0370340    -1.5265420
  H       -3.5589910    -0.3771620    -1.3307760
  H       -3.9066010    -1.3512680     0.1291360
  H       -2.7361560    -1.9219890    -1.1015230
units angstrom
no_reorient  #important for SAPT in psi4, default
symmetry c1  #important for SAPT in psi4, default
}

set PROPERTIES_ORIGIN ["COM"]
properties('MP2/aug-cc-pvtz', properties = ['dipole'])
--------------------------------------------------------------------------

    Molecular point group: c1
  Charge       = 0
  Multiplicity = 1
  Basis Set: AUG-CC-PVTZ
    Blend: AUG-CC-PVTZ
  Basis Set: (AUG-CC-PVTZ AUX)
    Blend: AUG-CC-PVTZ-JKFIT

    Orbital Energies [Eh]
    ---------------------

    Doubly Occupied:

       1A    -20.627783     2A    -20.567363     3A    -20.565226
       4A    -11.404615     5A    -11.401511     6A    -11.255186
       7A    -11.249611     8A    -11.246624     9A    -11.225266
      10A    -11.216934    11A     -1.486752    12A     -1.406625
      13A     -1.364742    14A     -1.124656    15A     -1.042734
      16A     -0.991667    17A     -0.933691    18A     -0.874124
      19A     -0.791938    20A     -0.740307    21A     -0.704934
      22A     -0.701010    23A     -0.683489    24A     -0.652158
      25A     -0.632301    26A     -0.621271    27A     -0.593963
      28A     -0.590290    29A     -0.569999    30A     -0.556766
      31A     -0.551107    32A     -0.539994    33A     -0.529391
      34A     -0.510558    35A     -0.487696    36A     -0.478785
      37A     -0.470117    38A     -0.451146    39A     -0.440011

  @DF-RHF Final Energy:  -496.85139051840383

   => Energetics <=

    Nuclear Repulsion Energy =            556.3241663969954516
    One-Electron Energy =               -1781.7864322332104621
    Two-Electron Energy =                 728.6108753178111783
    Total Energy =                       -496.8513905184038322
  Basis Set: (AUG-CC-PVTZ AUX)
    Blend: AUG-CC-PVTZ-RI
    Molecular point group: c1

    Geometry (in Angstrom), charge = 0, multiplicity = 1:

       Center              X                  Y                   Z               Mass
    ------------   -----------------  -----------------  -----------------  -----------------
         O           -0.908083788290    -0.134101996680    -0.726391624918    15.994914619570
         O           -0.418509788290     1.957778003320     0.086537375082    15.994914619570
         O           -1.931086788290    -0.119067996680     1.327727375082    15.994914619570
         C            1.919820511710    -0.511992096680    -0.103296524918    12.000000000000
         C            1.358301211710     0.582832003320    -0.850402624918    12.000000000000
         C            1.824672211710    -0.311683996680     1.464205375082    12.000000000000
         C            3.359485211710    -0.876605996680    -0.457840624918    12.000000000000
         C           -0.036805788290     0.931543003320    -0.423425624918    12.000000000000
         C           -1.963071788290    -0.394541996680     0.150013375082    12.000000000000
         C           -3.065116788290    -1.100730996680    -0.583128624918    12.000000000000
         H            1.308645211710    -1.474886996680    -0.264189624918     1.007825032230
         H            1.974148211710     1.477074003320    -0.711472624918     1.007825032230
         H            1.348322211710     0.327757003320    -1.916798624918     1.007825032230
         H            2.383386211710     0.595604003320     1.719641375082     1.007825032230
         H            2.248535211710    -1.141872996680     2.037592375082     1.007825032230
         H            0.788384211710    -0.173560996680     1.787546375082     1.007825032230
         H            4.000234211710    -0.015552996680    -0.239199624918     1.007825032230
         H            3.759150211710    -1.739074996680     0.084187375082     1.007825032230
         H            3.427416211710    -1.088002996680    -1.529802624918     1.007825032230
         H           -3.487527788290    -0.428130996680    -1.334036624918     1.007825032230
         H           -3.835137788290    -1.402236996680     0.125875375082     1.007825032230
         H           -2.664692788290    -1.972957996680    -1.104783624918     1.007825032230

  Basis Set: AUG-CC-PVTZ
    Blend: AUG-CC-PVTZ
  Basis Set: (AUG-CC-PVTZ AUX)
    Blend: AUG-CC-PVTZ-JKFIT
	 Reference Energy          =    -496.8513905184038322 [Eh]
	 Singles Energy            =      -0.0000000000000000 [Eh]
	 Same-Spin Energy          =      -0.4952982543979724 [Eh]
	 Opposite-Spin Energy      =      -1.5990926811023982 [Eh]
	 Correlation Energy        =      -2.0943909355003707 [Eh]
	 Total Energy              =    -498.9457814539042033 [Eh]

	 ================> DF-SCS-MP2 Energies <==================
	-----------------------------------------------------------
	 SCS Same-Spin Scale       =       0.3333333333333333 [-]
	 SCS Opposite-Spin Scale   =       1.2000000000000000 [-]
	 SCS Same-Spin Energy      =      -0.1650994181326574 [Eh]
	 SCS Opposite-Spin Energy  =      -1.9189112173228777 [Eh]
	 SCS Correlation Energy    =      -2.0840106354555350 [Eh]
	 SCS Total Energy          =    -498.9354011538593454 [Eh]
	-----------------------------------------------------------

  Dipole Moment: [D]
     X:     0.7119      Y:    -2.4365      Z:    -2.5749     Total:     3.6157

*** Psi4 exiting successfully. Buy a developer a beer!
