                               Psi4 1.4a3.dev225

  ==> Input File <==

--------------------------------------------------------------------------
#psi4
#
memory 32 gb

molecule  {
0 1
  O       -0.9795470    -0.0831330    -0.7231310
  O       -0.4899730     2.0087470     0.0897980
  O       -2.0025500    -0.0680990     1.3309880
  C        1.8485240    -0.5426110    -0.0314710
  C        1.2868380     0.6338010    -0.8471420
  C        1.7532090    -0.2607150     1.4674660
  C        3.2880220    -0.8256370    -0.4545800
  C       -0.1082690     0.9825120    -0.4201650
  C       -2.0345350    -0.3435730     0.1532740
  C       -3.1365800    -1.0497620    -0.5798680
  H        1.2371820    -1.4239180    -0.2609290
  H        1.9026850     1.5280430    -0.7082120
  H        1.2768590     0.3787260    -1.9135380
  H        2.3119230     0.6465730     1.7229020
  H        2.1770720    -1.0909040     2.0408530
  H        0.7169210    -0.1225920     1.7908070
  H        3.9580198     0.0747212    -0.2259585
  H        3.6876870    -1.6881060     0.0874480
  H        3.3559530    -1.0370340    -1.5265420
  H       -3.5589910    -0.3771620    -1.3307760
  H       -3.9066010    -1.3512680     0.1291360
  H       -2.7361560    -1.9219890    -1.1015230
units angstrom
no_reorient  #important for SAPT in psi4, default
symmetry c1  #important for SAPT in psi4, default
}

set PROPERTIES_ORIGIN ["COM"]
properties('MP2/aug-cc-pvtz', properties = ['dipole'])
--------------------------------------------------------------------------

    Molecular point group: c1
  Charge       = 0
  Multiplicity = 1
  Basis Set: AUG-CC-PVTZ
    Blend: AUG-CC-PVTZ
  Basis Set: (AUG-CC-PVTZ AUX)
    Blend: AUG-CC-PVTZ-JKFIT

    Orbital Energies [Eh]
    ---------------------

    Doubly Occupied:

       1A    -20.626789     2A    -20.564874     3A    -20.564695
       4A    -11.404166     5A    -11.398603     6A    -11.254980
       7A    -11.250718     8A    -11.246387     9A    -11.230763
      10A    -11.215660    11A     -1.485619    12A     -1.405231
      13A     -1.363583    14A     -1.113435    15A     -1.042865
      16A     -0.990509    17A     -0.936586    18A     -0.867951
      19A     -0.793154    20A     -0.739504    21A     -0.702177
      22A     -0.698511    23A     -0.682846    24A     -0.647836
      25A     -0.629281    26A     -0.621007    27A     -0.594587
      28A     -0.589933    29A     -0.570313    30A     -0.555332
      31A     -0.547443    32A     -0.537385    33A     -0.527230
      34A     -0.496284    35A     -0.487049    36A     -0.479063
      37A     -0.473967    38A     -0.470836    39A     -0.439745

  @DF-RHF Final Energy:  -496.86193226171918

   => Energetics <=

    Nuclear Repulsion Energy =            555.4367353221432495
    One-Electron Energy =               -1780.1035437638297481
    Two-Electron Energy =                 727.8048761799673230
    Total Energy =                       -496.8619322617191756
  Basis Set: (AUG-CC-PVTZ AUX)
    Blend: AUG-CC-PVTZ-RI
    Molecular point group: c1

    Geometry (in Angstrom), charge = 0, multiplicity = 1:

       Center              X                  Y                   Z               Mass
    ------------   -----------------  -----------------  -----------------  -----------------
         O           -0.908302266698    -0.127581654678    -0.732172061027    15.994914619570
         O           -0.418728266698     1.964298345322     0.080756938973    15.994914619570
         O           -1.931305266698    -0.112547654678     1.321946938973    15.994914619570
         C            1.919768733302    -0.587059654678    -0.040512061027    12.000000000000
         C            1.358082733302     0.589352345322    -0.856183061027    12.000000000000
         C            1.824453733302    -0.305163654678     1.458424938973    12.000000000000
         C            3.359266733302    -0.870085654678    -0.463621061027    12.000000000000
         C           -0.037024266698     0.938063345322    -0.429206061027    12.000000000000
         C           -1.963290266698    -0.388021654678     0.144232938973    12.000000000000
         C           -3.065335266698    -1.094210654678    -0.588909061027    12.000000000000
         H            1.308426733302    -1.468366654678    -0.269970061027     1.007825032230
         H            1.973929733302     1.483594345322    -0.717253061027     1.007825032230
         H            1.348103733302     0.334277345322    -1.922579061027     1.007825032230
         H            2.383167733302     0.602124345322     1.713860938973     1.007825032230
         H            2.248316733302    -1.135352654678     2.031811938973     1.007825032230
         H            0.788165733302    -0.167040654678     1.781765938973     1.007825032230
         H            4.029264533302     0.030272545322    -0.234999561027     1.007825032230
         H            3.758931733302    -1.732554654678     0.078406938973     1.007825032230
         H            3.427197733302    -1.081482654678    -1.535583061027     1.007825032230
         H           -3.487746266698    -0.421610654678    -1.339817061027     1.007825032230
         H           -3.835356266698    -1.395716654678     0.120094938973     1.007825032230
         H           -2.664911266698    -1.966437654678    -1.110564061027     1.007825032230

  Basis Set: AUG-CC-PVTZ
    Blend: AUG-CC-PVTZ
  Basis Set: (AUG-CC-PVTZ AUX)
    Blend: AUG-CC-PVTZ-JKFIT
	 Reference Energy          =    -496.8619322617191756 [Eh]
	 Singles Energy            =      -0.0000000000000000 [Eh]
	 Same-Spin Energy          =      -0.4946100341287252 [Eh]
	 Opposite-Spin Energy      =      -1.5981424373995190 [Eh]
	 Correlation Energy        =      -2.0927524715282440 [Eh]
	 Total Energy              =    -498.9546847332474044 [Eh]

	 ================> DF-SCS-MP2 Energies <==================
	-----------------------------------------------------------
	 SCS Same-Spin Scale       =       0.3333333333333333 [-]
	 SCS Opposite-Spin Scale   =       1.2000000000000000 [-]
	 SCS Same-Spin Energy      =      -0.1648700113762417 [Eh]
	 SCS Opposite-Spin Energy  =      -1.9177709248794228 [Eh]
	 SCS Correlation Energy    =      -2.0826409362556646 [Eh]
	 SCS Total Energy          =    -498.9445731979748189 [Eh]
	-----------------------------------------------------------

  Dipole Moment: [D]
     X:     0.7607      Y:    -2.5169      Z:    -2.5436     Total:     3.6584

*** Psi4 exiting successfully. Buy a developer a beer!
