                               Psi4 1.4a3.dev225

  ==> Input File <==

--------------------------------------------------------------------------
#psi4
#
memory 32 gb

molecule  {
0 1
  O       -0.9795470    -0.0831330    -0.7231310
  O       -0.4899730     2.0087470     0.0897980
  O       -2.0025500    -0.0680990     1.3309880
  C        1.8406503    -0.5462422    -0.0566692
  C        1.2868380     0.6338010    -0.8471420
  C        1.7532090    -0.2607150     1.4674660
  C        3.2880220    -0.8256370    -0.4545800
  C       -0.1082690     0.9825120    -0.4201650
  C       -2.0345350    -0.3435730     0.1532740
  C       -3.1365800    -1.0497620    -0.5798680
  H        1.2371820    -1.4239180    -0.2609290
  H        1.9026850     1.5280430    -0.7082120
  H        1.2768590     0.3787260    -1.9135380
  H        2.3119230     0.6465730     1.7229020
  H        2.1770720    -1.0909040     2.0408530
  H        0.7169210    -0.1225920     1.7908070
  H        3.9287710     0.0354160    -0.2359390
  H        3.6876870    -1.6881060     0.0874480
  H        3.3559530    -1.0370340    -1.5265420
  H       -3.5589910    -0.3771620    -1.3307760
  H       -3.9066010    -1.3512680     0.1291360
  H       -2.7361560    -1.9219890    -1.1015230
units angstrom
no_reorient  #important for SAPT in psi4, default
symmetry c1  #important for SAPT in psi4, default
}

set PROPERTIES_ORIGIN ["COM"]
properties('MP2/aug-cc-pvtz', properties = ['dipole'])
--------------------------------------------------------------------------

    Molecular point group: c1
  Charge       = 0
  Multiplicity = 1
  Basis Set: AUG-CC-PVTZ
    Blend: AUG-CC-PVTZ
  Basis Set: (AUG-CC-PVTZ AUX)
    Blend: AUG-CC-PVTZ-JKFIT

    Orbital Energies [Eh]
    ---------------------

    Doubly Occupied:

       1A    -20.626902     2A    -20.564928     3A    -20.564874
       4A    -11.404179     5A    -11.398912     6A    -11.254994
       7A    -11.250571     8A    -11.244970     9A    -11.224583
      10A    -11.215960    11A     -1.485735    12A     -1.405335
      13A     -1.363690    14A     -1.113782    15A     -1.042739
      16A     -0.990599    17A     -0.936019    18A     -0.868865
      19A     -0.797070    20A     -0.739681    21A     -0.702608
      22A     -0.699006    23A     -0.682916    24A     -0.648360
      25A     -0.629548    26A     -0.619956    27A     -0.593869
      28A     -0.590166    29A     -0.569577    30A     -0.555788
      31A     -0.551464    32A     -0.539399    33A     -0.527463
      34A     -0.496354    35A     -0.489643    36A     -0.478704
      37A     -0.473987    38A     -0.468940    39A     -0.440040

  @DF-RHF Final Energy:  -496.86341523547389

   => Energetics <=

    Nuclear Repulsion Energy =            555.6425711578890514
    One-Electron Energy =               -1780.5076213569598167
    Two-Electron Energy =                 728.0016349635968709
    Total Energy =                       -496.8634152354738944
  Basis Set: (AUG-CC-PVTZ AUX)
    Blend: AUG-CC-PVTZ-RI
    Molecular point group: c1

    Geometry (in Angstrom), charge = 0, multiplicity = 1:

       Center              X                  Y                   Z               Mass
    ------------   -----------------  -----------------  -----------------  -----------------
         O           -0.907441888858    -0.127004281363    -0.730003543969    15.994914619570
         O           -0.417867888858     1.964875718637     0.082925456031    15.994914619570
         O           -1.930444888858    -0.111970281363     1.324115456031    15.994914619570
         C            1.912755411142    -0.590113481363    -0.063541743969    12.000000000000
         C            1.358943111142     0.589929718637    -0.854014543969    12.000000000000
         C            1.825314111142    -0.304586281363     1.460593456031    12.000000000000
         C            3.360127111142    -0.869508281363    -0.461452543969    12.000000000000
         C           -0.036163888858     0.938640718637    -0.427037543969    12.000000000000
         C           -1.962429888858    -0.387444281363     0.146401456031    12.000000000000
         C           -3.064474888858    -1.093633281363    -0.586740543969    12.000000000000
         H            1.309287111142    -1.467789281363    -0.267801543969     1.007825032230
         H            1.974790111142     1.484171718637    -0.715084543969     1.007825032230
         H            1.348964111142     0.334854718637    -1.920410543969     1.007825032230
         H            2.384028111142     0.602701718637     1.716029456031     1.007825032230
         H            2.249177111142    -1.134775281363     2.033980456031     1.007825032230
         H            0.789026111142    -0.166463281363     1.783934456031     1.007825032230
         H            4.000876111142    -0.008455281363    -0.242811543969     1.007825032230
         H            3.759792111142    -1.731977281363     0.080575456031     1.007825032230
         H            3.428058111142    -1.080905281363    -1.533414543969     1.007825032230
         H           -3.486885888858    -0.421033281363    -1.337648543969     1.007825032230
         H           -3.834495888858    -1.395139281363     0.122263456031     1.007825032230
         H           -2.664050888858    -1.965860281363    -1.108395543969     1.007825032230

  Basis Set: AUG-CC-PVTZ
    Blend: AUG-CC-PVTZ
  Basis Set: (AUG-CC-PVTZ AUX)
    Blend: AUG-CC-PVTZ-JKFIT
	 Reference Energy          =    -496.8634152354738944 [Eh]
	 Singles Energy            =      -0.0000000000000000 [Eh]
	 Same-Spin Energy          =      -0.4945542860562792 [Eh]
	 Opposite-Spin Energy      =      -1.5978025559613396 [Eh]
	 Correlation Energy        =      -2.0923568420176188 [Eh]
	 Total Energy              =    -498.9557720774915310 [Eh]

	 ================> DF-SCS-MP2 Energies <==================
	-----------------------------------------------------------
	 SCS Same-Spin Scale       =       0.3333333333333333 [-]
	 SCS Opposite-Spin Scale   =       1.2000000000000000 [-]
	 SCS Same-Spin Energy      =      -0.1648514286854264 [Eh]
	 SCS Opposite-Spin Energy  =      -1.9173630671536075 [Eh]
	 SCS Correlation Energy    =      -2.0822144958390338 [Eh]
	 SCS Total Energy          =    -498.9456297313129198 [Eh]
	-----------------------------------------------------------

  Dipole Moment: [D]
     X:     0.7751      Y:    -2.4929      Z:    -2.5555     Total:     3.6533

*** Psi4 exiting successfully. Buy a developer a beer!
