                               Psi4 1.4a3.dev225

  ==> Input File <==

--------------------------------------------------------------------------
#psi4
#
memory 32 gb

molecule  {
0 1
  O       -0.9795470    -0.0831330    -0.7231310
  O       -0.4899730     2.0087470     0.0897980
  O       -2.0025500    -0.0680990     1.3309880
  C        1.8485240    -0.5426110    -0.0314710
  C        1.2685751     0.6720514    -0.8736631
  C        1.7532090    -0.2607150     1.4674660
  C        3.2880220    -0.8256370    -0.4545800
  C       -0.1082690     0.9825120    -0.4201650
  C       -2.0345350    -0.3435730     0.1532740
  C       -3.1365800    -1.0497620    -0.5798680
  H        1.2371820    -1.4239180    -0.2609290
  H        1.9026850     1.5280430    -0.7082120
  H        1.2768590     0.3787260    -1.9135380
  H        2.3119230     0.6465730     1.7229020
  H        2.1770720    -1.0909040     2.0408530
  H        0.7169210    -0.1225920     1.7908070
  H        3.9287710     0.0354160    -0.2359390
  H        3.6876870    -1.6881060     0.0874480
  H        3.3559530    -1.0370340    -1.5265420
  H       -3.5589910    -0.3771620    -1.3307760
  H       -3.9066010    -1.3512680     0.1291360
  H       -2.7361560    -1.9219890    -1.1015230
units angstrom
no_reorient  #important for SAPT in psi4, default
symmetry c1  #important for SAPT in psi4, default
}

set PROPERTIES_ORIGIN ["COM"]
properties('MP2/aug-cc-pvtz', properties = ['dipole'])
--------------------------------------------------------------------------

    Molecular point group: c1
  Charge       = 0
  Multiplicity = 1
  Basis Set: AUG-CC-PVTZ
    Blend: AUG-CC-PVTZ
  Basis Set: (AUG-CC-PVTZ AUX)
    Blend: AUG-CC-PVTZ-JKFIT

    Orbital Energies [Eh]
    ---------------------

    Doubly Occupied:

       1A    -20.627038     2A    -20.564663     3A    -20.562757
       4A    -11.404025     5A    -11.397448     6A    -11.254899
       7A    -11.249294     8A    -11.248190     9A    -11.224959
      10A    -11.215758    11A     -1.485463    12A     -1.404731
      13A     -1.363165    14A     -1.108633    15A     -1.042997
      16A     -0.994596    17A     -0.938444    18A     -0.867553
      19A     -0.792778    20A     -0.739672    21A     -0.702543
      22A     -0.699760    23A     -0.682535    24A     -0.647775
      25A     -0.629619    26A     -0.619810    27A     -0.593910
      28A     -0.590265    29A     -0.572073    30A     -0.559985
      31A     -0.552656    32A     -0.540377    33A     -0.527068
      34A     -0.493962    35A     -0.486038    36A     -0.479125
      37A     -0.475052    38A     -0.466614    39A     -0.438765

  @DF-RHF Final Energy:  -496.86252707502126

   => Energetics <=

    Nuclear Repulsion Energy =            555.2582744182564056
    One-Electron Energy =               -1779.7516054532964063
    Two-Electron Energy =                 727.6308039600187385
    Total Energy =                       -496.8625270750212621
  Basis Set: (AUG-CC-PVTZ AUX)
    Blend: AUG-CC-PVTZ-RI
    Molecular point group: c1

    Geometry (in Angstrom), charge = 0, multiplicity = 1:

       Center              X                  Y                   Z               Mass
    ------------   -----------------  -----------------  -----------------  -----------------
         O           -0.906576594763    -0.130492509634    -0.729893362477    15.994914619570
         O           -0.417002594763     1.961387490366     0.083035637523    15.994914619570
         O           -1.929579594763    -0.115458509634     1.324225637523    15.994914619570
         C            1.921494405237    -0.589970509634    -0.038233362477    12.000000000000
         C            1.341545505237     0.624691890366    -0.880425462477    12.000000000000
         C            1.826179405237    -0.308074509634     1.460703637523    12.000000000000
         C            3.360992405237    -0.872996509634    -0.461342362477    12.000000000000
         C           -0.035298594763     0.935152490366    -0.426927362477    12.000000000000
         C           -1.961564594763    -0.390932509634     0.146511637523    12.000000000000
         C           -3.063609594763    -1.097121509634    -0.586630362477    12.000000000000
         H            1.310152405237    -1.471277509634    -0.267691362477     1.007825032230
         H            1.975655405237     1.480683490366    -0.714974362477     1.007825032230
         H            1.349829405237     0.331366490366    -1.920300362477     1.007825032230
         H            2.384893405237     0.599213490366     1.716139637523     1.007825032230
         H            2.250042405237    -1.138263509634     2.034090637523     1.007825032230
         H            0.789891405237    -0.169951509634     1.784044637523     1.007825032230
         H            4.001741405237    -0.011943509634    -0.242701362477     1.007825032230
         H            3.760657405237    -1.735465509634     0.080685637523     1.007825032230
         H            3.428923405237    -1.084393509634    -1.533304362477     1.007825032230
         H           -3.486020594763    -0.424521509634    -1.337538362477     1.007825032230
         H           -3.833630594763    -1.398627509634     0.122373637523     1.007825032230
         H           -2.663185594763    -1.969348509634    -1.108285362477     1.007825032230

  Basis Set: AUG-CC-PVTZ
    Blend: AUG-CC-PVTZ
  Basis Set: (AUG-CC-PVTZ AUX)
    Blend: AUG-CC-PVTZ-JKFIT
	 Reference Energy          =    -496.8625270750212621 [Eh]
	 Singles Energy            =      -0.0000000000000000 [Eh]
	 Same-Spin Energy          =      -0.4944644678664182 [Eh]
	 Opposite-Spin Energy      =      -1.5976584541886321 [Eh]
	 Correlation Energy        =      -2.0921229220550503 [Eh]
	 Total Energy              =    -498.9546499970763307 [Eh]

	 ================> DF-SCS-MP2 Energies <==================
	-----------------------------------------------------------
	 SCS Same-Spin Scale       =       0.3333333333333333 [-]
	 SCS Opposite-Spin Scale   =       1.2000000000000000 [-]
	 SCS Same-Spin Energy      =      -0.1648214892888061 [Eh]
	 SCS Opposite-Spin Energy  =      -1.9171901450263584 [Eh]
	 SCS Correlation Energy    =      -2.0820116343151645 [Eh]
	 SCS Total Energy          =    -498.9445387093364275 [Eh]
	-----------------------------------------------------------

  Dipole Moment: [D]
     X:     0.8352      Y:    -2.5277      Z:    -2.5487     Total:     3.6855

*** Psi4 exiting successfully. Buy a developer a beer!
