                               Psi4 1.4a3.dev225

  ==> Input File <==

--------------------------------------------------------------------------
#psi4
#
memory 32 gb

molecule  {
0 1
  O       -0.9795470    -0.0831330    -0.7231310
  O       -0.4899730     2.0087470     0.0897980
  O       -2.0025500    -0.0680990     1.3309880
  C        1.8485240    -0.5426110    -0.0314710
  C        1.2868380     0.6338010    -0.8471420
  C        1.7532090    -0.2607150     1.4674660
  C        3.2880220    -0.8256370    -0.4545800
  C       -0.1082690     0.9825120    -0.4201650
  C       -2.0345350    -0.3435730     0.1532740
  C       -3.1365800    -1.0497620    -0.5798680
  H        1.2371820    -1.4239180    -0.2609290
  H        1.9026850     1.5280430    -0.7082120
  H        1.2768590     0.3787260    -1.9135380
  H        2.3119230     0.6465730     1.7229020
  H        2.1770720    -1.0909040     2.0408530
  H        0.7169210    -0.1225920     1.7908070
  H        3.9287710     0.0354160    -0.2359390
  H        3.6876870    -1.6881060     0.0874480
  H        3.3547119    -1.0331719    -1.5069577
  H       -3.5589910    -0.3771620    -1.3307760
  H       -3.9066010    -1.3512680     0.1291360
  H       -2.7361560    -1.9219890    -1.1015230
units angstrom
no_reorient  #important for SAPT in psi4, default
symmetry c1  #important for SAPT in psi4, default
}

set PROPERTIES_ORIGIN ["COM"]
properties('MP2/aug-cc-pvtz', properties = ['dipole'])
--------------------------------------------------------------------------

    Molecular point group: c1
  Charge       = 0
  Multiplicity = 1
  Basis Set: AUG-CC-PVTZ
    Blend: AUG-CC-PVTZ
  Basis Set: (AUG-CC-PVTZ AUX)
    Blend: AUG-CC-PVTZ-JKFIT

    Orbital Energies [Eh]
    ---------------------

    Doubly Occupied:

       1A    -20.626657     2A    -20.564750     3A    -20.564578
       4A    -11.404048     5A    -11.398509     6A    -11.254881
       7A    -11.250620     8A    -11.245533     9A    -11.222125
      10A    -11.215357    11A     -1.485488    12A     -1.405116
      13A     -1.363460    14A     -1.113726    15A     -1.042911
      16A     -0.991453    17A     -0.939797    18A     -0.868264
      19A     -0.794952    20A     -0.739397    21A     -0.702066
      22A     -0.698373    23A     -0.682849    24A     -0.648795
      25A     -0.629192    26A     -0.621606    27A     -0.595015
      28A     -0.590032    29A     -0.570453    30A     -0.555464
      31A     -0.552208    32A     -0.539758    33A     -0.527397
      34A     -0.496273    35A     -0.487141    36A     -0.479935
      37A     -0.473884    38A     -0.471218    39A     -0.439517

  @DF-RHF Final Energy:  -496.86398502681925

   => Energetics <=

    Nuclear Repulsion Energy =            555.7331482092358783
    One-Electron Energy =               -1780.6886689175148604
    Two-Electron Energy =                 728.0915356814597317
    Total Energy =                       -496.8639850268192504
  Basis Set: (AUG-CC-PVTZ AUX)
    Blend: AUG-CC-PVTZ-RI
    Molecular point group: c1

    Geometry (in Angstrom), charge = 0, multiplicity = 1:

       Center              X                  Y                   Z               Mass
    ------------   -----------------  -----------------  -----------------  -----------------
         O           -0.908088990924    -0.127333731445    -0.732239239269    15.994914619570
         O           -0.418514990924     1.964546268555     0.080689760731    15.994914619570
         O           -1.931091990924    -0.112299731445     1.321879760731    15.994914619570
         C            1.919982009076    -0.586811731445    -0.040579239269    12.000000000000
         C            1.358296009076     0.589600268555    -0.856250239269    12.000000000000
         C            1.824667009076    -0.304915731445     1.458357760731    12.000000000000
         C            3.359480009076    -0.869837731445    -0.463688239269    12.000000000000
         C           -0.036810990924     0.938311268555    -0.429273239269    12.000000000000
         C           -1.963076990924    -0.387773731445     0.144165760731    12.000000000000
         C           -3.065121990924    -1.093962731445    -0.588976239269    12.000000000000
         H            1.308640009076    -1.468118731445    -0.270037239269     1.007825032230
         H            1.974143009076     1.483842268555    -0.717320239269     1.007825032230
         H            1.348317009076     0.334525268555    -1.922646239269     1.007825032230
         H            2.383381009076     0.602372268555     1.713793760731     1.007825032230
         H            2.248530009076    -1.135104731445     2.031744760731     1.007825032230
         H            0.788379009076    -0.166792731445     1.781698760731     1.007825032230
         H            4.000229009076    -0.008784731445    -0.245047239269     1.007825032230
         H            3.759145009076    -1.732306731445     0.078339760731     1.007825032230
         H            3.426169909076    -1.077372631445    -1.516065939269     1.007825032230
         H           -3.487532990924    -0.421362731445    -1.339884239269     1.007825032230
         H           -3.835142990924    -1.395468731445     0.120027760731     1.007825032230
         H           -2.664697990924    -1.966189731445    -1.110631239269     1.007825032230

  Basis Set: AUG-CC-PVTZ
    Blend: AUG-CC-PVTZ
  Basis Set: (AUG-CC-PVTZ AUX)
    Blend: AUG-CC-PVTZ-JKFIT
	 Reference Energy          =    -496.8639850268192504 [Eh]
	 Singles Energy            =      -0.0000000000000000 [Eh]
	 Same-Spin Energy          =      -0.4946172920412546 [Eh]
	 Opposite-Spin Energy      =      -1.5976983730117824 [Eh]
	 Correlation Energy        =      -2.0923156650530368 [Eh]
	 Total Energy              =    -498.9563006918722863 [Eh]

	 ================> DF-SCS-MP2 Energies <==================
	-----------------------------------------------------------
	 SCS Same-Spin Scale       =       0.3333333333333333 [-]
	 SCS Opposite-Spin Scale   =       1.2000000000000000 [-]
	 SCS Same-Spin Energy      =      -0.1648724306804182 [Eh]
	 SCS Opposite-Spin Energy  =      -1.9172380476141389 [Eh]
	 SCS Correlation Energy    =      -2.0821104782945570 [Eh]
	 SCS Total Energy          =    -498.9460955051138171 [Eh]
	-----------------------------------------------------------

  Dipole Moment: [D]
     X:     0.7912      Y:    -2.4998      Z:    -2.5540     Total:     3.6603

*** Psi4 exiting successfully. Buy a developer a beer!
