                               Psi4 1.4a3.dev225

  ==> Input File <==

--------------------------------------------------------------------------
#psi4
#
memory 32 gb

molecule  {
0 1
  O       -0.9795470    -0.0831330    -0.7231310
  O       -0.4899730     2.0087470     0.0897980
  O       -2.0025500    -0.0680990     1.3309880
  C        1.8485240    -0.5426110    -0.0314710
  C        1.2681580     0.6174757    -0.8573825
  C        1.7532090    -0.2607150     1.4674660
  C        3.2880220    -0.8256370    -0.4545800
  C       -0.1082690     0.9825120    -0.4201650
  C       -2.0345350    -0.3435730     0.1532740
  C       -3.1365800    -1.0497620    -0.5798680
  H        1.2371820    -1.4239180    -0.2609290
  H        1.9026850     1.5280430    -0.7082120
  H        1.2768590     0.3787260    -1.9135380
  H        2.3119230     0.6465730     1.7229020
  H        2.1770720    -1.0909040     2.0408530
  H        0.7169210    -0.1225920     1.7908070
  H        3.9287710     0.0354160    -0.2359390
  H        3.6876870    -1.6881060     0.0874480
  H        3.3559530    -1.0370340    -1.5265420
  H       -3.5589910    -0.3771620    -1.3307760
  H       -3.9066010    -1.3512680     0.1291360
  H       -2.7361560    -1.9219890    -1.1015230
units angstrom
no_reorient  #important for SAPT in psi4, default
symmetry c1  #important for SAPT in psi4, default
}

set PROPERTIES_ORIGIN ["COM"]
properties('MP2/aug-cc-pvtz', properties = ['dipole'])
--------------------------------------------------------------------------

    Molecular point group: c1
  Charge       = 0
  Multiplicity = 1
  Basis Set: AUG-CC-PVTZ
    Blend: AUG-CC-PVTZ
  Basis Set: (AUG-CC-PVTZ AUX)
    Blend: AUG-CC-PVTZ-JKFIT

    Orbital Energies [Eh]
    ---------------------

    Doubly Occupied:

       1A    -20.626148     2A    -20.565440     3A    -20.564657
       4A    -11.403805     5A    -11.398707     6A    -11.254745
       7A    -11.250814     8A    -11.246073     9A    -11.224948
      10A    -11.215864    11A     -1.485671    12A     -1.405396
      13A     -1.363628    14A     -1.114131    15A     -1.043113
      16A     -0.992780    17A     -0.938821    18A     -0.867776
      19A     -0.794752    20A     -0.739691    21A     -0.701813
      22A     -0.699433    23A     -0.683076    24A     -0.649076
      25A     -0.630511    26A     -0.620823    27A     -0.594713
      28A     -0.589431    29A     -0.569896    30A     -0.552656
      31A     -0.550443    32A     -0.540057    33A     -0.527489
      34A     -0.496529    35A     -0.486287    36A     -0.480690
      37A     -0.474668    38A     -0.469791    39A     -0.440824

  @DF-RHF Final Energy:  -496.86282262782709

   => Energetics <=

    Nuclear Repulsion Energy =            555.8315367659213280
    One-Electron Energy =               -1780.8783868201367113
    Two-Electron Energy =                 728.1840274263882975
    Total Energy =                       -496.8628226278270859
  Basis Set: (AUG-CC-PVTZ AUX)
    Blend: AUG-CC-PVTZ-RI
    Molecular point group: c1

    Geometry (in Angstrom), charge = 0, multiplicity = 1:

       Center              X                  Y                   Z               Mass
    ------------   -----------------  -----------------  -----------------  -----------------
         O           -0.906541855402    -0.125947017112    -0.731249338590    15.994914619570
         O           -0.416967855402     1.965932982888     0.081679661410    15.994914619570
         O           -1.929544855402    -0.110913017112     1.322869661410    15.994914619570
         C            1.921529144598    -0.585425017112    -0.039589338590    12.000000000000
         C            1.341163144598     0.574661682888    -0.865500838590    12.000000000000
         C            1.826214144598    -0.303529017112     1.459347661410    12.000000000000
         C            3.361027144598    -0.868451017112    -0.462698338590    12.000000000000
         C           -0.035263855402     0.939697982888    -0.428283338590    12.000000000000
         C           -1.961529855402    -0.386387017112     0.145155661410    12.000000000000
         C           -3.063574855402    -1.092576017112    -0.587986338590    12.000000000000
         H            1.310187144598    -1.466732017112    -0.269047338590     1.007825032230
         H            1.975690144598     1.485228982888    -0.716330338590     1.007825032230
         H            1.349864144598     0.335911982888    -1.921656338590     1.007825032230
         H            2.384928144598     0.603758982888     1.714783661410     1.007825032230
         H            2.250077144598    -1.133718017112     2.032734661410     1.007825032230
         H            0.789926144598    -0.165406017112     1.782688661410     1.007825032230
         H            4.001776144598    -0.007398017112    -0.244057338590     1.007825032230
         H            3.760692144598    -1.730920017112     0.079329661410     1.007825032230
         H            3.428958144598    -1.079848017112    -1.534660338590     1.007825032230
         H           -3.485985855402    -0.419976017112    -1.338894338590     1.007825032230
         H           -3.833595855402    -1.394082017112     0.121017661410     1.007825032230
         H           -2.663150855402    -1.964803017112    -1.109641338590     1.007825032230

  Basis Set: AUG-CC-PVTZ
    Blend: AUG-CC-PVTZ
  Basis Set: (AUG-CC-PVTZ AUX)
    Blend: AUG-CC-PVTZ-JKFIT
	 Reference Energy          =    -496.8628226278270859 [Eh]
	 Singles Energy            =      -0.0000000000000000 [Eh]
	 Same-Spin Energy          =      -0.4947668910216385 [Eh]
	 Opposite-Spin Energy      =      -1.5980561557433450 [Eh]
	 Correlation Energy        =      -2.0928230467649835 [Eh]
	 Total Energy              =    -498.9556456745920627 [Eh]

	 ================> DF-SCS-MP2 Energies <==================
	-----------------------------------------------------------
	 SCS Same-Spin Scale       =       0.3333333333333333 [-]
	 SCS Opposite-Spin Scale   =       1.2000000000000000 [-]
	 SCS Same-Spin Energy      =      -0.1649222970072128 [Eh]
	 SCS Opposite-Spin Energy  =      -1.9176673868920140 [Eh]
	 SCS Correlation Energy    =      -2.0825896838992266 [Eh]
	 SCS Total Energy          =    -498.9454123117263293 [Eh]
	-----------------------------------------------------------

  Dipole Moment: [D]
     X:     0.7925      Y:    -2.5042      Z:    -2.5461     Total:     3.6581

*** Psi4 exiting successfully. Buy a developer a beer!
