                               Psi4 1.4a3.dev225

  ==> Input File <==

--------------------------------------------------------------------------
#psi4
#
memory 32 gb

molecule  {
0 1
  O       -0.9795470    -0.0831330    -0.7231310
  O       -0.4899730     2.0087470     0.0897980
  O       -2.0025500    -0.0680990     1.3309880
  C        1.8485240    -0.5426110    -0.0314710
  C        1.2868380     0.6338010    -0.8471420
  C        1.7532090    -0.2607150     1.4674660
  C        3.2880220    -0.8256370    -0.4545800
  C       -0.2012713     1.0057582    -0.3917013
  C       -2.0345350    -0.3435730     0.1532740
  C       -3.1365800    -1.0497620    -0.5798680
  H        1.2371820    -1.4239180    -0.2609290
  H        1.9026850     1.5280430    -0.7082120
  H        1.2768590     0.3787260    -1.9135380
  H        2.3119230     0.6465730     1.7229020
  H        2.1770720    -1.0909040     2.0408530
  H        0.7169210    -0.1225920     1.7908070
  H        3.9287710     0.0354160    -0.2359390
  H        3.6876870    -1.6881060     0.0874480
  H        3.3559530    -1.0370340    -1.5265420
  H       -3.5589910    -0.3771620    -1.3307760
  H       -3.9066010    -1.3512680     0.1291360
  H       -2.7361560    -1.9219890    -1.1015230
units angstrom
no_reorient  #important for SAPT in psi4, default
symmetry c1  #important for SAPT in psi4, default
}

set PROPERTIES_ORIGIN ["COM"]
properties('MP2/aug-cc-pvtz', properties = ['dipole'])
--------------------------------------------------------------------------

    Molecular point group: c1
  Charge       = 0
  Multiplicity = 1
  Basis Set: AUG-CC-PVTZ
    Blend: AUG-CC-PVTZ
  Basis Set: (AUG-CC-PVTZ AUX)
    Blend: AUG-CC-PVTZ-JKFIT

    Orbital Energies [Eh]
    ---------------------

    Doubly Occupied:

       1A    -20.633873     2A    -20.571043     3A    -20.568090
       4A    -11.408270     5A    -11.390600     6A    -11.257642
       7A    -11.243841     8A    -11.238399     9A    -11.219769
      10A    -11.212002    11A     -1.505176    12A     -1.433720
      13A     -1.382012    14A     -1.100310    15A     -1.046521
      16A     -0.969942    17A     -0.934139    18A     -0.873018
      19A     -0.784961    20A     -0.748433    21A     -0.708861
      22A     -0.704615    23A     -0.695308    24A     -0.641154
      25A     -0.630219    26A     -0.622797    27A     -0.598656
      28A     -0.592318    29A     -0.573576    30A     -0.554233
      31A     -0.549788    32A     -0.539865    33A     -0.535652
      34A     -0.498857    35A     -0.488407    36A     -0.479863
      37A     -0.472629    38A     -0.470298    39A     -0.425189

  @DF-RHF Final Energy:  -496.85816397810112

   => Energetics <=

    Nuclear Repulsion Energy =            556.2133919876524715
    One-Electron Energy =               -1781.5350208925563038
    Two-Electron Energy =                 728.4634649268025441
    Total Energy =                       -496.8581639781011745
  Basis Set: (AUG-CC-PVTZ AUX)
    Blend: AUG-CC-PVTZ-RI
    Molecular point group: c1

    Geometry (in Angstrom), charge = 0, multiplicity = 1:

       Center              X                  Y                   Z               Mass
    ------------   -----------------  -----------------  -----------------  -----------------
         O           -0.900351711091    -0.129242842128    -0.734472928057    15.994914619570
         O           -0.410777711091     1.962637157872     0.078456071943    15.994914619570
         O           -1.923354711091    -0.114208842128     1.319646071943    15.994914619570
         C            1.927719288909    -0.588720842128    -0.042812928057    12.000000000000
         C            1.366033288909     0.587691157872    -0.858483928057    12.000000000000
         C            1.832404288909    -0.306824842128     1.456124071943    12.000000000000
         C            3.367217288909    -0.871746842128    -0.465921928057    12.000000000000
         C           -0.122076011091     0.959648357872    -0.403043228057    12.000000000000
         C           -1.955339711091    -0.389682842128     0.141932071943    12.000000000000
         C           -3.057384711091    -1.095871842128    -0.591209928057    12.000000000000
         H            1.316377288909    -1.470027842128    -0.272270928057     1.007825032230
         H            1.981880288909     1.481933157872    -0.719553928057     1.007825032230
         H            1.356054288909     0.332616157872    -1.924879928057     1.007825032230
         H            2.391118288909     0.600463157872     1.711560071943     1.007825032230
         H            2.256267288909    -1.137013842128     2.029511071943     1.007825032230
         H            0.796116288909    -0.168701842128     1.779465071943     1.007825032230
         H            4.007966288909    -0.010693842128    -0.247280928057     1.007825032230
         H            3.766882288909    -1.734215842128     0.076106071943     1.007825032230
         H            3.435148288909    -1.083143842128    -1.537883928057     1.007825032230
         H           -3.479795711091    -0.423271842128    -1.342117928057     1.007825032230
         H           -3.827405711091    -1.397377842128     0.117794071943     1.007825032230
         H           -2.656960711091    -1.968098842128    -1.112864928057     1.007825032230

  Basis Set: AUG-CC-PVTZ
    Blend: AUG-CC-PVTZ
  Basis Set: (AUG-CC-PVTZ AUX)
    Blend: AUG-CC-PVTZ-JKFIT
	 Reference Energy          =    -496.8581639781011177 [Eh]
	 Singles Energy            =      -0.0000000000000000 [Eh]
	 Same-Spin Energy          =      -0.4927744084551803 [Eh]
	 Opposite-Spin Energy      =      -1.5944515797967100 [Eh]
	 Correlation Energy        =      -2.0872259882518902 [Eh]
	 Total Energy              =    -498.9453899663529910 [Eh]

	 ================> DF-SCS-MP2 Energies <==================
	-----------------------------------------------------------
	 SCS Same-Spin Scale       =       0.3333333333333333 [-]
	 SCS Opposite-Spin Scale   =       1.2000000000000000 [-]
	 SCS Same-Spin Energy      =      -0.1642581361517267 [Eh]
	 SCS Opposite-Spin Energy  =      -1.9133418957560520 [Eh]
	 SCS Correlation Energy    =      -2.0776000319077785 [Eh]
	 SCS Total Energy          =    -498.9357640100088815 [Eh]
	-----------------------------------------------------------

  Dipole Moment: [D]
     X:     0.1153      Y:    -2.3493      Z:    -2.4101     Total:     3.3676

*** Psi4 exiting successfully. Buy a developer a beer!
