                               Psi4 1.4a3.dev225

  ==> Input File <==

--------------------------------------------------------------------------
#psi4
#
memory 32 gb

molecule  {
0 1
  O       -0.9795470    -0.0831330    -0.7231310
  O       -0.4899730     2.0087470     0.0897980
  O       -2.0025500    -0.0680990     1.3309880
  C        1.8485240    -0.5426110    -0.0314710
  C        1.2868380     0.6338010    -0.8471420
  C        1.7532090    -0.2607150     1.4674660
  C        3.2880220    -0.8256370    -0.4545800
  C       -0.1082690     0.9825120    -0.4201650
  C       -2.0345350    -0.3435730     0.1532740
  C       -3.1365800    -1.0497620    -0.5798680
  H        1.2371820    -1.4239180    -0.2609290
  H        1.9026850     1.5280430    -0.7082120
  H        1.2768590     0.3787260    -1.9135380
  H        2.3119230     0.6465730     1.7229020
  H        2.1770720    -1.0909040     2.0408530
  H        0.7169210    -0.1225920     1.7908070
  H        3.9287710     0.0354160    -0.2359390
  H        3.6876870    -1.6881060     0.0874480
  H        3.3683637    -1.0756553    -1.7223847
  H       -3.5589910    -0.3771620    -1.3307760
  H       -3.9066010    -1.3512680     0.1291360
  H       -2.7361560    -1.9219890    -1.1015230
units angstrom
no_reorient  #important for SAPT in psi4, default
symmetry c1  #important for SAPT in psi4, default
}

set PROPERTIES_ORIGIN ["COM"]
properties('MP2/aug-cc-pvtz', properties = ['dipole'])
--------------------------------------------------------------------------

    Molecular point group: c1
  Charge       = 0
  Multiplicity = 1
  Basis Set: AUG-CC-PVTZ
    Blend: AUG-CC-PVTZ
  Basis Set: (AUG-CC-PVTZ AUX)
    Blend: AUG-CC-PVTZ-JKFIT

    Orbital Energies [Eh]
    ---------------------

    Doubly Occupied:

       1A    -20.627072     2A    -20.565219     3A    -20.565049
       4A    -11.404487     5A    -11.398867     6A    -11.255133
       7A    -11.250958     8A    -11.248635     9A    -11.247990
      10A    -11.218248    11A     -1.485934    12A     -1.405594
      13A     -1.363915    14A     -1.113923    15A     -1.043030
      16A     -0.990370    17A     -0.931405    18A     -0.867768
      19A     -0.793211    20A     -0.739846    21A     -0.702575
      22A     -0.698847    23A     -0.682906    24A     -0.648446
      25A     -0.629726    26A     -0.616457    27A     -0.590635
      28A     -0.589241    29A     -0.569892    30A     -0.556500
      31A     -0.547176    32A     -0.537370    33A     -0.527029
      34A     -0.492744    35A     -0.488133    36A     -0.476800
      37A     -0.472757    38A     -0.466026    39A     -0.440430

  @DF-RHF Final Energy:  -496.84420980120967

   => Energetics <=

    Nuclear Repulsion Energy =            554.8693854043298188
    One-Electron Energy =               -1778.9264956164072373
    Two-Electron Energy =                 727.2129004108678600
    Total Energy =                       -496.8442098012096722
  Basis Set: (AUG-CC-PVTZ AUX)
    Blend: AUG-CC-PVTZ-RI
    Molecular point group: c1

    Geometry (in Angstrom), charge = 0, multiplicity = 1:

       Center              X                  Y                   Z               Mass
    ------------   -----------------  -----------------  -----------------  -----------------
         O           -0.908184484783    -0.127036561561    -0.730732335006    15.994914619570
         O           -0.418610484783     1.964843438439     0.082196664994    15.994914619570
         O           -1.931187484783    -0.112002561561     1.323386664994    15.994914619570
         C            1.919886515217    -0.586514561561    -0.039072335006    12.000000000000
         C            1.358200515217     0.589897438439    -0.854743335006    12.000000000000
         C            1.824571515217    -0.304618561561     1.459864664994    12.000000000000
         C            3.359384515217    -0.869540561561    -0.462181335006    12.000000000000
         C           -0.036906484783     0.938608438439    -0.427766335006    12.000000000000
         C           -1.963172484783    -0.387476561561     0.145672664994    12.000000000000
         C           -3.065217484783    -1.093665561561    -0.587469335006    12.000000000000
         H            1.308544515217    -1.467821561561    -0.268530335006     1.007825032230
         H            1.974047515217     1.484139438439    -0.715813335006     1.007825032230
         H            1.348221515217     0.334822438439    -1.921139335006     1.007825032230
         H            2.383285515217     0.602669438439     1.715300664994     1.007825032230
         H            2.248434515217    -1.134807561561     2.033251664994     1.007825032230
         H            0.788283515217    -0.166495561561     1.783205664994     1.007825032230
         H            4.000133515217    -0.008487561561    -0.243540335006     1.007825032230
         H            3.759049515217    -1.732009561561     0.079846664994     1.007825032230
         H            3.439726215217    -1.119558861561    -1.729986035006     1.007825032230
         H           -3.487628484783    -0.421065561561    -1.338377335006     1.007825032230
         H           -3.835238484783    -1.395171561561     0.121534664994     1.007825032230
         H           -2.664793484783    -1.965892561561    -1.109124335006     1.007825032230

  Basis Set: AUG-CC-PVTZ
    Blend: AUG-CC-PVTZ
  Basis Set: (AUG-CC-PVTZ AUX)
    Blend: AUG-CC-PVTZ-JKFIT
	 Reference Energy          =    -496.8442098012096722 [Eh]
	 Singles Energy            =      -0.0000000000000000 [Eh]
	 Same-Spin Energy          =      -0.4945627234261444 [Eh]
	 Opposite-Spin Energy      =      -1.5993460731733908 [Eh]
	 Correlation Energy        =      -2.0939087965995351 [Eh]
	 Total Energy              =    -498.9381185978091935 [Eh]

	 ================> DF-SCS-MP2 Energies <==================
	-----------------------------------------------------------
	 SCS Same-Spin Scale       =       0.3333333333333333 [-]
	 SCS Opposite-Spin Scale   =       1.2000000000000000 [-]
	 SCS Same-Spin Energy      =      -0.1648542411420481 [Eh]
	 SCS Opposite-Spin Energy  =      -1.9192152878080688 [Eh]
	 SCS Correlation Energy    =      -2.0840695289501170 [Eh]
	 SCS Total Energy          =    -498.9282793301597962 [Eh]
	-----------------------------------------------------------

  Dipole Moment: [D]
     X:     0.7271      Y:    -2.4575      Z:    -2.3757     Total:     3.4946

*** Psi4 exiting successfully. Buy a developer a beer!
