                               Psi4 1.4a3.dev225

  ==> Input File <==

--------------------------------------------------------------------------
#psi4
#
memory 32 gb

molecule  {
0 1
  O       -0.9795470    -0.0831330    -0.7231310
  O       -0.4899730     2.0087470     0.0897980
  O       -2.0025500    -0.0680990     1.3309880
  C        1.8485240    -0.5426110    -0.0314710
  C        1.2868380     0.6338010    -0.8471420
  C        1.7532090    -0.2607150     1.4674660
  C        3.2880220    -0.8256370    -0.4545800
  C       -0.0896685     0.9778628    -0.4258577
  C       -2.0345350    -0.3435730     0.1532740
  C       -3.1365800    -1.0497620    -0.5798680
  H        1.2371820    -1.4239180    -0.2609290
  H        1.9026850     1.5280430    -0.7082120
  H        1.2768590     0.3787260    -1.9135380
  H        2.3119230     0.6465730     1.7229020
  H        2.1770720    -1.0909040     2.0408530
  H        0.7169210    -0.1225920     1.7908070
  H        3.9287710     0.0354160    -0.2359390
  H        3.6876870    -1.6881060     0.0874480
  H        3.3559530    -1.0370340    -1.5265420
  H       -3.5589910    -0.3771620    -1.3307760
  H       -3.9066010    -1.3512680     0.1291360
  H       -2.7361560    -1.9219890    -1.1015230
units angstrom
no_reorient  #important for SAPT in psi4, default
symmetry c1  #important for SAPT in psi4, default
}

set PROPERTIES_ORIGIN ["COM"]
properties('MP2/aug-cc-pvtz', properties = ['dipole'])
--------------------------------------------------------------------------

    Molecular point group: c1
  Charge       = 0
  Multiplicity = 1
  Basis Set: AUG-CC-PVTZ
    Blend: AUG-CC-PVTZ
  Basis Set: (AUG-CC-PVTZ AUX)
    Blend: AUG-CC-PVTZ-JKFIT

    Orbital Energies [Eh]
    ---------------------

    Doubly Occupied:

       1A    -20.625289     2A    -20.564020     3A    -20.563545
       4A    -11.403242     5A    -11.400412     6A    -11.254354
       7A    -11.251554     8A    -11.247272     9A    -11.225597
      10A    -11.216273    11A     -1.481838    12A     -1.400506
      13A     -1.358589    14A     -1.116807    15A     -1.042293
      16A     -0.995601    17A     -0.939564    18A     -0.866984
      19A     -0.796663    20A     -0.738049    21A     -0.700780
      22A     -0.697748    23A     -0.680516    24A     -0.650096
      25A     -0.629058    26A     -0.620943    27A     -0.593175
      28A     -0.589597    29A     -0.569894    30A     -0.556187
      31A     -0.551780    32A     -0.540224    33A     -0.525021
      34A     -0.495702    35A     -0.487206    36A     -0.480227
      37A     -0.472985    38A     -0.470221    39A     -0.441091

  @DF-RHF Final Energy:  -496.86164142214784

   => Energetics <=

    Nuclear Repulsion Energy =            555.5429581241976393
    One-Electron Energy =               -1780.3273950727941610
    Two-Electron Energy =                 727.9227955264486809
    Total Energy =                       -496.8616414221478408
  Basis Set: (AUG-CC-PVTZ AUX)
    Blend: AUG-CC-PVTZ-RI
    Molecular point group: c1

    Geometry (in Angstrom), charge = 0, multiplicity = 1:

       Center              X                  Y                   Z               Mass
    ------------   -----------------  -----------------  -----------------  -----------------
         O           -0.909646867962    -0.126919494336    -0.731628115058    15.994914619570
         O           -0.420072867962     1.964960505664     0.081300884942    15.994914619570
         O           -1.932649867962    -0.111885494336     1.322490884942    15.994914619570
         C            1.918424132038    -0.586397494336    -0.039968115058    12.000000000000
         C            1.356738132038     0.590014505664    -0.855639115058    12.000000000000
         C            1.823109132038    -0.304501494336     1.458968884942    12.000000000000
         C            3.357922132038    -0.869423494336    -0.463077115058    12.000000000000
         C           -0.019768367962     0.934076305664    -0.434354815058    12.000000000000
         C           -1.964634867962    -0.387359494336     0.144776884942    12.000000000000
         C           -3.066679867962    -1.093548494336    -0.588365115058    12.000000000000
         H            1.307082132038    -1.467704494336    -0.269426115058     1.007825032230
         H            1.972585132038     1.484256505664    -0.716709115058     1.007825032230
         H            1.346759132038     0.334939505664    -1.922035115058     1.007825032230
         H            2.381823132038     0.602786505664     1.714404884942     1.007825032230
         H            2.246972132038    -1.134690494336     2.032355884942     1.007825032230
         H            0.786821132038    -0.166378494336     1.782309884942     1.007825032230
         H            3.998671132038    -0.008370494336    -0.244436115058     1.007825032230
         H            3.757587132038    -1.731892494336     0.078950884942     1.007825032230
         H            3.425853132038    -1.080820494336    -1.535039115058     1.007825032230
         H           -3.489090867962    -0.420948494336    -1.339273115058     1.007825032230
         H           -3.836700867962    -1.395054494336     0.120638884942     1.007825032230
         H           -2.666255867962    -1.965775494336    -1.110020115058     1.007825032230

  Basis Set: AUG-CC-PVTZ
    Blend: AUG-CC-PVTZ
  Basis Set: (AUG-CC-PVTZ AUX)
    Blend: AUG-CC-PVTZ-JKFIT
	 Reference Energy          =    -496.8616414221478408 [Eh]
	 Singles Energy            =      -0.0000000000000000 [Eh]
	 Same-Spin Energy          =      -0.4951376521830568 [Eh]
	 Opposite-Spin Energy      =      -1.5987805436811000 [Eh]
	 Correlation Energy        =      -2.0939181958641568 [Eh]
	 Total Energy              =    -498.9555596180119892 [Eh]

	 ================> DF-SCS-MP2 Energies <==================
	-----------------------------------------------------------
	 SCS Same-Spin Scale       =       0.3333333333333333 [-]
	 SCS Opposite-Spin Scale   =       1.2000000000000000 [-]
	 SCS Same-Spin Energy      =      -0.1650458840610189 [Eh]
	 SCS Opposite-Spin Energy  =      -1.9185366524173200 [Eh]
	 SCS Correlation Energy    =      -2.0835825364783389 [Eh]
	 SCS Total Energy          =    -498.9452239586261726 [Eh]
	-----------------------------------------------------------

  Dipole Moment: [D]
     X:     0.9157      Y:    -2.5225      Z:    -2.5644     Total:     3.7119

*** Psi4 exiting successfully. Buy a developer a beer!
