                               Psi4 1.4a3.dev225

  ==> Input File <==

--------------------------------------------------------------------------
#psi4
#
memory 32 gb

molecule  {
0 1
  O       -0.9795470    -0.0831330    -0.7231310
  O       -0.4899730     2.0087470     0.0897980
  O       -2.0025500    -0.0680990     1.3309880
  C        1.8485240    -0.5426110    -0.0314710
  C        1.2868380     0.6338010    -0.8471420
  C        1.7532090    -0.2607150     1.4674660
  C        3.2880220    -0.8256370    -0.4545800
  C       -0.1082690     0.9825120    -0.4201650
  C       -2.0345350    -0.3435730     0.1532740
  C       -3.1365800    -1.0497620    -0.5798680
  H        1.2371820    -1.4239180    -0.2609290
  H        1.9026850     1.5280430    -0.7082120
  H        1.2768590     0.3787260    -1.9135380
  H        2.3119230     0.6465730     1.7229020
  H        2.1770720    -1.0909040     2.0408530
  H        0.7169210    -0.1225920     1.7908070
  H        3.9287710     0.0354160    -0.2359390
  H        3.6876870    -1.6881060     0.0874480
  H        3.3559530    -1.0370340    -1.5265420
  H       -3.5268392    -0.4541252    -1.4090840
  H       -3.9066010    -1.3512680     0.1291360
  H       -2.7361560    -1.9219890    -1.1015230
units angstrom
no_reorient  #important for SAPT in psi4, default
symmetry c1  #important for SAPT in psi4, default
}

set PROPERTIES_ORIGIN ["COM"]
properties('MP2/aug-cc-pvtz', properties = ['dipole'])
--------------------------------------------------------------------------

    Molecular point group: c1
  Charge       = 0
  Multiplicity = 1
  Basis Set: AUG-CC-PVTZ
    Blend: AUG-CC-PVTZ
  Basis Set: (AUG-CC-PVTZ AUX)
    Blend: AUG-CC-PVTZ-JKFIT

    Orbital Energies [Eh]
    ---------------------

    Doubly Occupied:

       1A    -20.626614     2A    -20.565356     3A    -20.564574
       4A    -11.404920     5A    -11.398510     6A    -11.254878
       7A    -11.250634     8A    -11.245731     9A    -11.224633
      10A    -11.215566    11A     -1.485572    12A     -1.405348
      13A     -1.363635    14A     -1.113632    15A     -1.042671
      16A     -0.991171    17A     -0.938662    18A     -0.868424
      19A     -0.794703    20A     -0.740090    21A     -0.704429
      22A     -0.698349    23A     -0.682846    24A     -0.648930
      25A     -0.626549    26A     -0.621905    27A     -0.595725
      28A     -0.590539    29A     -0.567183    30A     -0.555994
      31A     -0.551175    32A     -0.539807    33A     -0.525607
      34A     -0.495831    35A     -0.487191    36A     -0.479909
      37A     -0.474406    38A     -0.471450    39A     -0.439958

  @DF-RHF Final Energy:  -496.86270473789176

   => Energetics <=

    Nuclear Repulsion Energy =            555.5919849351223547
    One-Electron Energy =               -1780.4031654334257837
    Two-Electron Energy =                 727.9484757604116112
    Total Energy =                       -496.8627047378918178
  Basis Set: (AUG-CC-PVTZ AUX)
    Blend: AUG-CC-PVTZ-RI
    Molecular point group: c1

    Geometry (in Angstrom), charge = 0, multiplicity = 1:

       Center              X                  Y                   Z               Mass
    ------------   -----------------  -----------------  -----------------  -----------------
         O           -0.908322573081    -0.126768361323    -0.731554486085    15.994914619570
         O           -0.418748573081     1.965111638677     0.081374513915    15.994914619570
         O           -1.931325573081    -0.111734361323     1.322564513915    15.994914619570
         C            1.919748426919    -0.586246361323    -0.039894486085    12.000000000000
         C            1.358062426919     0.590165638677    -0.855565486085    12.000000000000
         C            1.824433426919    -0.304350361323     1.459042513915    12.000000000000
         C            3.359246426919    -0.869272361323    -0.463003486085    12.000000000000
         C           -0.037044573081     0.938876638677    -0.428588486085    12.000000000000
         C           -1.963310573081    -0.387208361323     0.144850513915    12.000000000000
         C           -3.065355573081    -1.093397361323    -0.588291486085    12.000000000000
         H            1.308406426919    -1.467553361323    -0.269352486085     1.007825032230
         H            1.973909426919     1.484407638677    -0.716635486085     1.007825032230
         H            1.348083426919     0.335090638677    -1.921961486085     1.007825032230
         H            2.383147426919     0.602937638677     1.714478513915     1.007825032230
         H            2.248296426919    -1.134539361323     2.032429513915     1.007825032230
         H            0.788145426919    -0.166227361323     1.782383513915     1.007825032230
         H            3.999995426919    -0.008219361323    -0.244362486085     1.007825032230
         H            3.758911426919    -1.731741361323     0.079024513915     1.007825032230
         H            3.427177426919    -1.080669361323    -1.534965486085     1.007825032230
         H           -3.455614773081    -0.497760561323    -1.417507486085     1.007825032230
         H           -3.835376573081    -1.394903361323     0.120712513915     1.007825032230
         H           -2.664931573081    -1.965624361323    -1.109946486085     1.007825032230

  Basis Set: AUG-CC-PVTZ
    Blend: AUG-CC-PVTZ
  Basis Set: (AUG-CC-PVTZ AUX)
    Blend: AUG-CC-PVTZ-JKFIT
	 Reference Energy          =    -496.8627047378917609 [Eh]
	 Singles Energy            =      -0.0000000000000000 [Eh]
	 Same-Spin Energy          =      -0.4947054994862625 [Eh]
	 Opposite-Spin Energy      =      -1.5978753904917120 [Eh]
	 Correlation Energy        =      -2.0925808899779748 [Eh]
	 Total Energy              =    -498.9552856278697277 [Eh]

	 ================> DF-SCS-MP2 Energies <==================
	-----------------------------------------------------------
	 SCS Same-Spin Scale       =       0.3333333333333333 [-]
	 SCS Opposite-Spin Scale   =       1.2000000000000000 [-]
	 SCS Same-Spin Energy      =      -0.1649018331620875 [Eh]
	 SCS Opposite-Spin Energy  =      -1.9174504685900544 [Eh]
	 SCS Correlation Energy    =      -2.0823523017521417 [Eh]
	 SCS Total Energy          =    -498.9450570396439275 [Eh]
	-----------------------------------------------------------

  Dipole Moment: [D]
     X:     0.7979      Y:    -2.5269      Z:    -2.5832     Total:     3.7006

*** Psi4 exiting successfully. Buy a developer a beer!
