                               Psi4 1.4a3.dev225

  ==> Input File <==

--------------------------------------------------------------------------
#psi4
#
memory 32 gb

molecule  {
0 1
  O       -0.9795470    -0.0831330    -0.7231310
  O       -0.4899730     2.0087470     0.0897980
  O       -2.0025500    -0.0680990     1.3309880
  C        1.8485240    -0.5426110    -0.0314710
  C        1.2868380     0.6338010    -0.8471420
  C        1.7532090    -0.2607150     1.4674660
  C        3.3068778    -0.8293443    -0.4601222
  C       -0.1082690     0.9825120    -0.4201650
  C       -2.0345350    -0.3435730     0.1532740
  C       -3.1365800    -1.0497620    -0.5798680
  H        1.2371820    -1.4239180    -0.2609290
  H        1.9026850     1.5280430    -0.7082120
  H        1.2768590     0.3787260    -1.9135380
  H        2.3119230     0.6465730     1.7229020
  H        2.1770720    -1.0909040     2.0408530
  H        0.7169210    -0.1225920     1.7908070
  H        3.9287710     0.0354160    -0.2359390
  H        3.6876870    -1.6881060     0.0874480
  H        3.3559530    -1.0370340    -1.5265420
  H       -3.5589910    -0.3771620    -1.3307760
  H       -3.9066010    -1.3512680     0.1291360
  H       -2.7361560    -1.9219890    -1.1015230
units angstrom
no_reorient  #important for SAPT in psi4, default
symmetry c1  #important for SAPT in psi4, default
}

set PROPERTIES_ORIGIN ["COM"]
properties('MP2/aug-cc-pvtz', properties = ['dipole'])
--------------------------------------------------------------------------

    Molecular point group: c1
  Charge       = 0
  Multiplicity = 1
  Basis Set: AUG-CC-PVTZ
    Blend: AUG-CC-PVTZ
  Basis Set: (AUG-CC-PVTZ AUX)
    Blend: AUG-CC-PVTZ-JKFIT

    Orbital Energies [Eh]
    ---------------------

    Doubly Occupied:

       1A    -20.626635     2A    -20.564744     3A    -20.564553
       4A    -11.404040     5A    -11.398480     6A    -11.254871
       7A    -11.250560     8A    -11.246537     9A    -11.223801
      10A    -11.215501    11A     -1.485468    12A     -1.405102
      13A     -1.363442    14A     -1.111701    15A     -1.042610
      16A     -0.990502    17A     -0.938931    18A     -0.868276
      19A     -0.794578    20A     -0.739343    21A     -0.701964
      22A     -0.698257    23A     -0.682635    24A     -0.648052
      25A     -0.629050    26A     -0.620341    27A     -0.594581
      28A     -0.590075    29A     -0.570017    30A     -0.555887
      31A     -0.552205    32A     -0.541874    33A     -0.527434
      34A     -0.493588    35A     -0.487314    36A     -0.480353
      37A     -0.473502    38A     -0.471426    39A     -0.438907

  @DF-RHF Final Energy:  -496.86381253192150

   => Energetics <=

    Nuclear Repulsion Energy =            555.2942060957836929
    One-Electron Energy =               -1779.8217666868074502
    Two-Electron Energy =                 727.6637480591022040
    Total Energy =                       -496.8638125319215533
  Basis Set: (AUG-CC-PVTZ AUX)
    Blend: AUG-CC-PVTZ-RI
    Molecular point group: c1

    Geometry (in Angstrom), charge = 0, multiplicity = 1:

       Center              X                  Y                   Z               Mass
    ------------   -----------------  -----------------  -----------------  -----------------
         O           -0.909668131350    -0.126997943158    -0.731640649879    15.994914619570
         O           -0.420094131350     1.964882056842     0.081288350121    15.994914619570
         O           -1.932671131350    -0.111963943158     1.322478350121    15.994914619570
         C            1.918402868650    -0.586475943158    -0.039980649879    12.000000000000
         C            1.356716868650     0.589936056842    -0.855651649879    12.000000000000
         C            1.823087868650    -0.304579943158     1.458956350121    12.000000000000
         C            3.376756668650    -0.873209243158    -0.468631849879    12.000000000000
         C           -0.038390131350     0.938647056842    -0.428674649879    12.000000000000
         C           -1.964656131350    -0.387437943158     0.144764350121    12.000000000000
         C           -3.066701131350    -1.093626943158    -0.588377649879    12.000000000000
         H            1.307060868650    -1.467782943158    -0.269438649879     1.007825032230
         H            1.972563868650     1.484178056842    -0.716721649879     1.007825032230
         H            1.346737868650     0.334861056842    -1.922047649879     1.007825032230
         H            2.381801868650     0.602708056842     1.714392350121     1.007825032230
         H            2.246950868650    -1.134768943158     2.032343350121     1.007825032230
         H            0.786799868650    -0.166456943158     1.782297350121     1.007825032230
         H            3.998649868650    -0.008448943158    -0.244448649879     1.007825032230
         H            3.757565868650    -1.731970943158     0.078938350121     1.007825032230
         H            3.425831868650    -1.080898943158    -1.535051649879     1.007825032230
         H           -3.489112131350    -0.421026943158    -1.339285649879     1.007825032230
         H           -3.836722131350    -1.395132943158     0.120626350121     1.007825032230
         H           -2.666277131350    -1.965853943158    -1.110032649879     1.007825032230

  Basis Set: AUG-CC-PVTZ
    Blend: AUG-CC-PVTZ
  Basis Set: (AUG-CC-PVTZ AUX)
    Blend: AUG-CC-PVTZ-JKFIT
	 Reference Energy          =    -496.8638125319214964 [Eh]
	 Singles Energy            =      -0.0000000000000000 [Eh]
	 Same-Spin Energy          =      -0.4944906197532203 [Eh]
	 Opposite-Spin Energy      =      -1.5977245210391093 [Eh]
	 Correlation Energy        =      -2.0922151407923297 [Eh]
	 Total Energy              =    -498.9560276727138444 [Eh]

	 ================> DF-SCS-MP2 Energies <==================
	-----------------------------------------------------------
	 SCS Same-Spin Scale       =       0.3333333333333333 [-]
	 SCS Opposite-Spin Scale   =       1.2000000000000000 [-]
	 SCS Same-Spin Energy      =      -0.1648302065844068 [Eh]
	 SCS Opposite-Spin Energy  =      -1.9172694252469311 [Eh]
	 SCS Correlation Energy    =      -2.0820996318313378 [Eh]
	 SCS Total Energy          =    -498.9459121637528369 [Eh]
	-----------------------------------------------------------

  Dipole Moment: [D]
     X:     0.7862      Y:    -2.4962      Z:    -2.5406     Total:     3.6474

*** Psi4 exiting successfully. Buy a developer a beer!
