                               Psi4 1.4a3.dev225

  ==> Input File <==

--------------------------------------------------------------------------
#psi4
#
memory 32 gb

molecule  {
0 1
  O       -0.9795470    -0.0831330    -0.7231310
  O       -0.4899730     2.0087470     0.0897980
  O       -2.0025500    -0.0680990     1.3309880
  C        1.8485240    -0.5426110    -0.0314710
  C        1.2868380     0.6338010    -0.8471420
  C        1.7532090    -0.2607150     1.4674660
  C        3.2880220    -0.8256370    -0.4545800
  C       -0.1082690     0.9825120    -0.4201650
  C       -2.0345350    -0.3435730     0.1532740
  C       -3.1365800    -1.0497620    -0.5798680
  H        1.2371820    -1.4239180    -0.2609290
  H        1.9026850     1.5280430    -0.7082120
  H        1.2768590     0.3787260    -1.9135380
  H        2.3119230     0.6465730     1.7229020
  H        2.1770720    -1.0909040     2.0408530
  H        0.7169210    -0.1225920     1.7908070
  H        3.9287710     0.0354160    -0.2359390
  H        3.6146387    -1.5304692    -0.0116206
  H        3.3559530    -1.0370340    -1.5265420
  H       -3.5589910    -0.3771620    -1.3307760
  H       -3.9066010    -1.3512680     0.1291360
  H       -2.7361560    -1.9219890    -1.1015230
units angstrom
no_reorient  #important for SAPT in psi4, default
symmetry c1  #important for SAPT in psi4, default
}

set PROPERTIES_ORIGIN ["COM"]
properties('MP2/aug-cc-pvtz', properties = ['dipole'])
--------------------------------------------------------------------------

    Molecular point group: c1
  Charge       = 0
  Multiplicity = 1
  Basis Set: AUG-CC-PVTZ
    Blend: AUG-CC-PVTZ
  Basis Set: (AUG-CC-PVTZ AUX)
    Blend: AUG-CC-PVTZ-JKFIT

    Orbital Energies [Eh]
    ---------------------

    Doubly Occupied:

       1A    -20.626105     2A    -20.564421     3A    -20.563819
       4A    -11.403704     5A    -11.397530     6A    -11.254627
       7A    -11.249220     8A    -11.244337     9A    -11.215632
      10A    -11.199696    11A     -1.484951    12A     -1.404590
      13A     -1.362934    14A     -1.115466    15A     -1.043639
      16A     -0.998711    17A     -0.950318    18A     -0.870263
      19A     -0.800371    20A     -0.738906    21A     -0.702862
      22A     -0.699042    23A     -0.682352    24A     -0.651286
      25A     -0.631264    26A     -0.621681    27A     -0.600515
      28A     -0.590335    29A     -0.573664    30A     -0.562651
      31A     -0.552043    32A     -0.548597    33A     -0.526929
      34A     -0.494964    35A     -0.487432    36A     -0.479615
      37A     -0.473134    38A     -0.471861    39A     -0.439515

  @DF-RHF Final Energy:  -496.83008893870397

   => Energetics <=

    Nuclear Repulsion Energy =            556.6710535060058191
    One-Electron Energy =               -1782.4443153755748881
    Two-Electron Energy =                 728.9431729308651029
    Total Energy =                       -496.8300889387039661
  Basis Set: (AUG-CC-PVTZ AUX)
    Blend: AUG-CC-PVTZ-RI
    Molecular point group: c1

    Geometry (in Angstrom), charge = 0, multiplicity = 1:

       Center              X                  Y                   Z               Mass
    ------------   -----------------  -----------------  -----------------  -----------------
         O           -0.907586702093    -0.128409380045    -0.731409266421    15.994914619570
         O           -0.418012702093     1.963470619955     0.081519733579    15.994914619570
         O           -1.930589702093    -0.113375380045     1.322709733579    15.994914619570
         C            1.920484297907    -0.587887380045    -0.039749266421    12.000000000000
         C            1.358798297907     0.588524619955    -0.855420266421    12.000000000000
         C            1.825169297907    -0.305991380045     1.459187733579    12.000000000000
         C            3.359982297907    -0.870913380045    -0.462858266421    12.000000000000
         C           -0.036308702093     0.937235619955    -0.428443266421    12.000000000000
         C           -1.962574702093    -0.388849380045     0.144995733579    12.000000000000
         C           -3.064619702093    -1.095038380045    -0.588146266421    12.000000000000
         H            1.309142297907    -1.469194380045    -0.269207266421     1.007825032230
         H            1.974645297907     1.482766619955    -0.716490266421     1.007825032230
         H            1.348819297907     0.333449619955    -1.921816266421     1.007825032230
         H            2.383883297907     0.601296619955     1.714623733579     1.007825032230
         H            2.249032297907    -1.136180380045     2.032574733579     1.007825032230
         H            0.788881297907    -0.167868380045     1.782528733579     1.007825032230
         H            4.000731297907    -0.009860380045    -0.244217266421     1.007825032230
         H            3.686598997907    -1.575745580045    -0.019898866421     1.007825032230
         H            3.427913297907    -1.082310380045    -1.534820266421     1.007825032230
         H           -3.487030702093    -0.422438380045    -1.339054266421     1.007825032230
         H           -3.834640702093    -1.396544380045     0.120857733579     1.007825032230
         H           -2.664195702093    -1.967265380045    -1.109801266421     1.007825032230

  Basis Set: AUG-CC-PVTZ
    Blend: AUG-CC-PVTZ
  Basis Set: (AUG-CC-PVTZ AUX)
    Blend: AUG-CC-PVTZ-JKFIT
	 Reference Energy          =    -496.8300889387039661 [Eh]
	 Singles Energy            =      -0.0000000000000000 [Eh]
	 Same-Spin Energy          =      -0.4947164745662134 [Eh]
	 Opposite-Spin Energy      =      -1.5971621403934755 [Eh]
	 Correlation Energy        =      -2.0918786149596889 [Eh]
	 Total Energy              =    -498.9219675536636487 [Eh]

	 ================> DF-SCS-MP2 Energies <==================
	-----------------------------------------------------------
	 SCS Same-Spin Scale       =       0.3333333333333333 [-]
	 SCS Opposite-Spin Scale   =       1.2000000000000000 [-]
	 SCS Same-Spin Energy      =      -0.1649054915220711 [Eh]
	 SCS Opposite-Spin Energy  =      -1.9165945684721706 [Eh]
	 SCS Correlation Energy    =      -2.0815000599942417 [Eh]
	 SCS Total Energy          =    -498.9115889986982211 [Eh]
	-----------------------------------------------------------

  Dipole Moment: [D]
     X:     0.8596      Y:    -2.5689      Z:    -2.5103     Total:     3.6932

*** Psi4 exiting successfully. Buy a developer a beer!
