                               Psi4 1.4a3.dev225

  ==> Input File <==

--------------------------------------------------------------------------
#psi4
#
memory 32 gb

molecule  {
0 1
  O       -0.9795470    -0.0831330    -0.7231310
  O       -0.4899730     2.0087470     0.0897980
  O       -2.0025500    -0.0680990     1.3309880
  C        1.8485240    -0.5426110    -0.0314710
  C        1.2868380     0.6338010    -0.8471420
  C        1.7532090    -0.2607150     1.4674660
  C        3.2880220    -0.8256370    -0.4545800
  C       -0.1082690     0.9825120    -0.4201650
  C       -2.0345350    -0.3435730     0.1532740
  C       -3.1365800    -1.0497620    -0.5798680
  H        1.2929179    -1.3435695    -0.2400094
  H        1.9026850     1.5280430    -0.7082120
  H        1.2768590     0.3787260    -1.9135380
  H        2.3119230     0.6465730     1.7229020
  H        2.1770720    -1.0909040     2.0408530
  H        0.7169210    -0.1225920     1.7908070
  H        3.9287710     0.0354160    -0.2359390
  H        3.6876870    -1.6881060     0.0874480
  H        3.3559530    -1.0370340    -1.5265420
  H       -3.5589910    -0.3771620    -1.3307760
  H       -3.9066010    -1.3512680     0.1291360
  H       -2.7361560    -1.9219890    -1.1015230
units angstrom
no_reorient  #important for SAPT in psi4, default
symmetry c1  #important for SAPT in psi4, default
}

set PROPERTIES_ORIGIN ["COM"]
properties('MP2/aug-cc-pvtz', properties = ['dipole'])
--------------------------------------------------------------------------

    Molecular point group: c1
  Charge       = 0
  Multiplicity = 1
  Basis Set: AUG-CC-PVTZ
    Blend: AUG-CC-PVTZ
  Basis Set: (AUG-CC-PVTZ AUX)
    Blend: AUG-CC-PVTZ-JKFIT

    Orbital Energies [Eh]
    ---------------------

    Doubly Occupied:

       1A    -20.627047     2A    -20.565005     3A    -20.564438
       4A    -11.404291     5A    -11.398377     6A    -11.255085
       7A    -11.249700     8A    -11.233156     9A    -11.223837
      10A    -11.214711    11A     -1.485740    12A     -1.405168
      13A     -1.363629    14A     -1.117212    15A     -1.043332
      16A     -0.991322    17A     -0.938030    18A     -0.868402
      19A     -0.808310    20A     -0.740041    21A     -0.703053
      22A     -0.698911    23A     -0.683190    24A     -0.652160
      25A     -0.629184    26A     -0.620553    27A     -0.594331
      28A     -0.590263    29A     -0.570589    30A     -0.555249
      31A     -0.551099    32A     -0.539400    33A     -0.527386
      34A     -0.495181    35A     -0.492278    36A     -0.483061
      37A     -0.474205    38A     -0.472916    39A     -0.439400

  @DF-RHF Final Energy:  -496.85830929058432

   => Energetics <=

    Nuclear Repulsion Energy =            556.1279911049098246
    One-Electron Energy =               -1781.4341218967813347
    Two-Electron Energy =                 728.4478215012871942
    Total Energy =                       -496.8583092905843159
  Basis Set: (AUG-CC-PVTZ AUX)
    Blend: AUG-CC-PVTZ-RI
    Molecular point group: c1

    Geometry (in Angstrom), charge = 0, multiplicity = 1:

       Center              X                  Y                   Z               Mass
    ------------   -----------------  -----------------  -----------------  -----------------
         O           -0.908487543028    -0.127868751114    -0.732248579646    15.994914619570
         O           -0.418913543028     1.964011248886     0.080680420354    15.994914619570
         O           -1.931490543028    -0.112834751114     1.321870420354    15.994914619570
         C            1.919583456972    -0.587346751114    -0.040588579646    12.000000000000
         C            1.357897456972     0.589065248886    -0.856259579646    12.000000000000
         C            1.824268456972    -0.305450751114     1.458348420354    12.000000000000
         C            3.359081456972    -0.870372751114    -0.463697579646    12.000000000000
         C           -0.037209543028     0.937776248886    -0.429282579646    12.000000000000
         C           -1.963475543028    -0.388308751114     0.144156420354    12.000000000000
         C           -3.065520543028    -1.094497751114    -0.588985579646    12.000000000000
         H            1.363977356972    -1.388305251114    -0.249126979646     1.007825032230
         H            1.973744456972     1.483307248886    -0.717329579646     1.007825032230
         H            1.347918456972     0.333990248886    -1.922655579646     1.007825032230
         H            2.382982456972     0.601837248886     1.713784420354     1.007825032230
         H            2.248131456972    -1.135639751114     2.031735420354     1.007825032230
         H            0.787980456972    -0.167327751114     1.781689420354     1.007825032230
         H            3.999830456972    -0.009319751114    -0.245056579646     1.007825032230
         H            3.758746456972    -1.732841751114     0.078330420354     1.007825032230
         H            3.427012456972    -1.081769751114    -1.535659579646     1.007825032230
         H           -3.487931543028    -0.421897751114    -1.339893579646     1.007825032230
         H           -3.835541543028    -1.396003751114     0.120018420354     1.007825032230
         H           -2.665096543028    -1.966724751114    -1.110640579646     1.007825032230

  Basis Set: AUG-CC-PVTZ
    Blend: AUG-CC-PVTZ
  Basis Set: (AUG-CC-PVTZ AUX)
    Blend: AUG-CC-PVTZ-JKFIT
	 Reference Energy          =    -496.8583092905843159 [Eh]
	 Singles Energy            =      -0.0000000000000000 [Eh]
	 Same-Spin Energy          =      -0.4945315253006843 [Eh]
	 Opposite-Spin Energy      =      -1.5972467429412944 [Eh]
	 Correlation Energy        =      -2.0917782682419785 [Eh]
	 Total Energy              =    -498.9500875588262829 [Eh]

	 ================> DF-SCS-MP2 Energies <==================
	-----------------------------------------------------------
	 SCS Same-Spin Scale       =       0.3333333333333333 [-]
	 SCS Opposite-Spin Scale   =       1.2000000000000000 [-]
	 SCS Same-Spin Energy      =      -0.1648438417668948 [Eh]
	 SCS Opposite-Spin Energy  =      -1.9166960915295532 [Eh]
	 SCS Correlation Energy    =      -2.0815399332964479 [Eh]
	 SCS Total Energy          =    -498.9398492238807421 [Eh]
	-----------------------------------------------------------

  Dipole Moment: [D]
     X:     0.7580      Y:    -2.5364      Z:    -2.5509     Total:     3.6762

*** Psi4 exiting successfully. Buy a developer a beer!
