                               Psi4 1.4a3.dev225

  ==> Input File <==

--------------------------------------------------------------------------
#psi4
#
memory 32 gb

molecule  {
0 1
  O       -0.9795470    -0.0831330    -0.7231310
  O       -0.4899730     2.0087470     0.0897980
  O       -2.0025500    -0.0680990     1.3309880
  C        1.8485240    -0.5426110    -0.0314710
  C        1.2868380     0.6338010    -0.8471420
  C        1.7532090    -0.2607150     1.4674660
  C        3.2880220    -0.8256370    -0.4545800
  C       -0.1082690     0.9825120    -0.4201650
  C       -2.0345350    -0.3435730     0.1532740
  C       -3.2100382    -1.0968339    -0.6287365
  H        1.2371820    -1.4239180    -0.2609290
  H        1.9026850     1.5280430    -0.7082120
  H        1.2768590     0.3787260    -1.9135380
  H        2.3119230     0.6465730     1.7229020
  H        2.1770720    -1.0909040     2.0408530
  H        0.7169210    -0.1225920     1.7908070
  H        3.9287710     0.0354160    -0.2359390
  H        3.6876870    -1.6881060     0.0874480
  H        3.3559530    -1.0370340    -1.5265420
  H       -3.5589910    -0.3771620    -1.3307760
  H       -3.9066010    -1.3512680     0.1291360
  H       -2.7361560    -1.9219890    -1.1015230
units angstrom
no_reorient  #important for SAPT in psi4, default
symmetry c1  #important for SAPT in psi4, default
}

set PROPERTIES_ORIGIN ["COM"]
properties('MP2/aug-cc-pvtz', properties = ['dipole'])
--------------------------------------------------------------------------

    Molecular point group: c1
  Charge       = 0
  Multiplicity = 1
  Basis Set: AUG-CC-PVTZ
    Blend: AUG-CC-PVTZ
  Basis Set: (AUG-CC-PVTZ AUX)
    Blend: AUG-CC-PVTZ-JKFIT

    Orbital Energies [Eh]
    ---------------------

    Doubly Occupied:

       1A    -20.627373     2A    -20.565649     3A    -20.564740
       4A    -11.406143     5A    -11.398684     6A    -11.254909
       7A    -11.250784     8A    -11.245852     9A    -11.224721
      10A    -11.215666    11A     -1.484563    12A     -1.404451
      13A     -1.363191    14A     -1.113451    15A     -1.031224
      16A     -0.990901    17A     -0.938759    18A     -0.869923
      19A     -0.794649    20A     -0.738196    21A     -0.698685
      22A     -0.694180    23A     -0.680104    24A     -0.648476
      25A     -0.631312    26A     -0.615465    27A     -0.605010
      28A     -0.591155    29A     -0.574174    30A     -0.558463
      31A     -0.551814    32A     -0.539787    33A     -0.530393
      34A     -0.495771    35A     -0.487892    36A     -0.479154
      37A     -0.472498    38A     -0.469657    39A     -0.434057

  @DF-RHF Final Energy:  -496.85615331032710

   => Energetics <=

    Nuclear Repulsion Energy =            553.7850357256033931
    One-Electron Energy =               -1776.7986238509445229
    Two-Electron Energy =                 726.1574348150140850
    Total Energy =                       -496.8561533103270449
  Basis Set: (AUG-CC-PVTZ AUX)
    Blend: AUG-CC-PVTZ-RI
    Molecular point group: c1

    Geometry (in Angstrom), charge = 0, multiplicity = 1:

       Center              X                  Y                   Z               Mass
    ------------   -----------------  -----------------  -----------------  -----------------
         O           -0.901979497091    -0.123386199012    -0.728032095657    15.994914619570
         O           -0.412405497091     1.968493800988     0.084896904343    15.994914619570
         O           -1.924982497091    -0.108352199012     1.326086904343    15.994914619570
         C            1.926091502909    -0.582864199012    -0.036372095657    12.000000000000
         C            1.364405502909     0.593547800988    -0.852043095657    12.000000000000
         C            1.830776502909    -0.300968199012     1.462564904343    12.000000000000
         C            3.365589502909    -0.865890199012    -0.459481095657    12.000000000000
         C           -0.030701497091     0.942258800988    -0.425066095657    12.000000000000
         C           -1.956967497091    -0.383826199012     0.148372904343    12.000000000000
         C           -3.132470697091    -1.137087099012    -0.633637595657    12.000000000000
         H            1.314749502909    -1.464171199012    -0.265830095657     1.007825032230
         H            1.980252502909     1.487789800988    -0.713113095657     1.007825032230
         H            1.354426502909     0.338472800988    -1.918439095657     1.007825032230
         H            2.389490502909     0.606319800988     1.718000904343     1.007825032230
         H            2.254639502909    -1.131157199012     2.035951904343     1.007825032230
         H            0.794488502909    -0.162845199012     1.785905904343     1.007825032230
         H            4.006338502909    -0.004837199012    -0.240840095657     1.007825032230
         H            3.765254502909    -1.728359199012     0.082546904343     1.007825032230
         H            3.433520502909    -1.077287199012    -1.531443095657     1.007825032230
         H           -3.481423497091    -0.417415199012    -1.335677095657     1.007825032230
         H           -3.829033497091    -1.391521199012     0.124234904343     1.007825032230
         H           -2.658588497091    -1.962242199012    -1.106424095657     1.007825032230

  Basis Set: AUG-CC-PVTZ
    Blend: AUG-CC-PVTZ
  Basis Set: (AUG-CC-PVTZ AUX)
    Blend: AUG-CC-PVTZ-JKFIT
	 Reference Energy          =    -496.8561533103271017 [Eh]
	 Singles Energy            =      -0.0000000000000000 [Eh]
	 Same-Spin Energy          =      -0.4943291697213242 [Eh]
	 Opposite-Spin Energy      =      -1.5980472724787673 [Eh]
	 Correlation Energy        =      -2.0923764422000914 [Eh]
	 Total Energy              =    -498.9485297525271790 [Eh]

	 ================> DF-SCS-MP2 Energies <==================
	-----------------------------------------------------------
	 SCS Same-Spin Scale       =       0.3333333333333333 [-]
	 SCS Opposite-Spin Scale   =       1.2000000000000000 [-]
	 SCS Same-Spin Energy      =      -0.1647763899071081 [Eh]
	 SCS Opposite-Spin Energy  =      -1.9176567269745206 [Eh]
	 SCS Correlation Energy    =      -2.0824331168816288 [Eh]
	 SCS Total Energy          =    -498.9385864272087474 [Eh]
	-----------------------------------------------------------

  Dipole Moment: [D]
     X:     0.8919      Y:    -2.4325      Z:    -2.4677     Total:     3.5780

*** Psi4 exiting successfully. Buy a developer a beer!
