                               Psi4 1.4a3.dev225

  ==> Input File <==

--------------------------------------------------------------------------
#psi4
#
memory 32 gb

molecule  {
0 1
  O       -0.9795470    -0.0831330    -0.7231310
  O       -0.4899730     2.0087470     0.0897980
  O       -2.0025500    -0.0680990     1.3309880
  C        1.8485240    -0.5426110    -0.0314710
  C        1.2868380     0.6338010    -0.8471420
  C        1.7532090    -0.2607150     1.4674660
  C        3.2880220    -0.8256370    -0.4545800
  C       -0.1082690     0.9825120    -0.4201650
  C       -2.0345350    -0.3435730     0.1532740
  C       -3.1365800    -1.0497620    -0.5798680
  H        1.2371820    -1.4239180    -0.2609290
  H        1.9026850     1.5280430    -0.7082120
  H        1.2768590     0.3787260    -1.9135380
  H        2.3119230     0.6465730     1.7229020
  H        2.1770720    -1.0909040     2.0408530
  H        0.7169210    -0.1225920     1.7908070
  H        3.9287710     0.0354160    -0.2359390
  H        3.6644013    -1.6307337     0.1838064
  H        3.3559530    -1.0370340    -1.5265420
  H       -3.5589910    -0.3771620    -1.3307760
  H       -3.9066010    -1.3512680     0.1291360
  H       -2.7361560    -1.9219890    -1.1015230
units angstrom
no_reorient  #important for SAPT in psi4, default
symmetry c1  #important for SAPT in psi4, default
}

set PROPERTIES_ORIGIN ["COM"]
properties('MP2/aug-cc-pvtz', properties = ['dipole'])
--------------------------------------------------------------------------

    Molecular point group: c1
  Charge       = 0
  Multiplicity = 1
  Basis Set: AUG-CC-PVTZ
    Blend: AUG-CC-PVTZ
  Basis Set: (AUG-CC-PVTZ AUX)
    Blend: AUG-CC-PVTZ-JKFIT

    Orbital Energies [Eh]
    ---------------------

    Doubly Occupied:

       1A    -20.626560     2A    -20.564726     3A    -20.564351
       4A    -11.404012     5A    -11.398234     6A    -11.254850
       7A    -11.250235     8A    -11.245204     9A    -11.224812
      10A    -11.215888    11A     -1.485389    12A     -1.405008
      13A     -1.363359    14A     -1.113876    15A     -1.042924
      16A     -0.991584    17A     -0.938353    18A     -0.868079
      19A     -0.794264    20A     -0.739324    21A     -0.701953
      22A     -0.698164    23A     -0.682661    24A     -0.647385
      25A     -0.629115    26A     -0.623015    27A     -0.596870
      28A     -0.590002    29A     -0.569319    30A     -0.555108
      31A     -0.553279    32A     -0.537639    33A     -0.527341
      34A     -0.494867    35A     -0.487154    36A     -0.480521
      37A     -0.473914    38A     -0.471097    39A     -0.438612

  @DF-RHF Final Energy:  -496.86262770262641

   => Energetics <=

    Nuclear Repulsion Energy =            555.7648791919247060
    One-Electron Energy =               -1780.7569250561730314
    Two-Electron Energy =                 728.1294181616217429
    Total Energy =                       -496.8626277026264688
  Basis Set: (AUG-CC-PVTZ AUX)
    Blend: AUG-CC-PVTZ-RI
    Molecular point group: c1

    Geometry (in Angstrom), charge = 0, multiplicity = 1:

       Center              X                  Y                   Z               Mass
    ------------   -----------------  -----------------  -----------------  -----------------
         O           -0.907934789724    -0.127708033405    -0.732776271389    15.994914619570
         O           -0.418360789724     1.964171966595     0.080152728611    15.994914619570
         O           -1.930937789724    -0.112674033405     1.321342728611    15.994914619570
         C            1.920136210276    -0.587186033405    -0.041116271389    12.000000000000
         C            1.358450210276     0.589225966595    -0.856787271389    12.000000000000
         C            1.824821210276    -0.305290033405     1.457820728611    12.000000000000
         C            3.359634210276    -0.870212033405    -0.464225271389    12.000000000000
         C           -0.036656789724     0.937936966595    -0.429810271389    12.000000000000
         C           -1.962922789724    -0.388148033405     0.143628728611    12.000000000000
         C           -3.064967789724    -1.094337033405    -0.589513271389    12.000000000000
         H            1.308794210276    -1.468493033405    -0.270574271389     1.007825032230
         H            1.974297210276     1.483467966595    -0.717857271389     1.007825032230
         H            1.348471210276     0.334150966595    -1.923183271389     1.007825032230
         H            2.383535210276     0.601997966595     1.713256728611     1.007825032230
         H            2.248684210276    -1.135479033405     2.031207728611     1.007825032230
         H            0.788533210276    -0.167167033405     1.781161728611     1.007825032230
         H            4.000383210276    -0.009159033405    -0.245584271389     1.007825032230
         H            3.736013510276    -1.675308733405     0.174161128611     1.007825032230
         H            3.427565210276    -1.081609033405    -1.536187271389     1.007825032230
         H           -3.487378789724    -0.421737033405    -1.340421271389     1.007825032230
         H           -3.834988789724    -1.395843033405     0.119490728611     1.007825032230
         H           -2.664543789724    -1.966564033405    -1.111168271389     1.007825032230

  Basis Set: AUG-CC-PVTZ
    Blend: AUG-CC-PVTZ
  Basis Set: (AUG-CC-PVTZ AUX)
    Blend: AUG-CC-PVTZ-JKFIT
	 Reference Energy          =    -496.8626277026264120 [Eh]
	 Singles Energy            =      -0.0000000000000000 [Eh]
	 Same-Spin Energy          =      -0.4947342801359280 [Eh]
	 Opposite-Spin Energy      =      -1.5979919908723705 [Eh]
	 Correlation Energy        =      -2.0927262710082983 [Eh]
	 Total Energy              =    -498.9553539736347147 [Eh]

	 ================> DF-SCS-MP2 Energies <==================
	-----------------------------------------------------------
	 SCS Same-Spin Scale       =       0.3333333333333333 [-]
	 SCS Opposite-Spin Scale   =       1.2000000000000000 [-]
	 SCS Same-Spin Energy      =      -0.1649114267119760 [Eh]
	 SCS Opposite-Spin Energy  =      -1.9175903890468446 [Eh]
	 SCS Correlation Energy    =      -2.0825018157588207 [Eh]
	 SCS Total Energy          =    -498.9451295183852153 [Eh]
	-----------------------------------------------------------

  Dipole Moment: [D]
     X:     0.7885      Y:    -2.4726      Z:    -2.5205     Total:     3.6178

*** Psi4 exiting successfully. Buy a developer a beer!
