                               Psi4 1.4a3.dev225

  ==> Input File <==

--------------------------------------------------------------------------
#psi4
#
memory 32 gb

molecule  {
0 1
  O       -1.0527537    -0.0295589    -0.6850693
  O       -0.4899730     2.0087470     0.0897980
  O       -2.0025500    -0.0680990     1.3309880
  C        1.8485240    -0.5426110    -0.0314710
  C        1.2868380     0.6338010    -0.8471420
  C        1.7532090    -0.2607150     1.4674660
  C        3.2880220    -0.8256370    -0.4545800
  C       -0.1082690     0.9825120    -0.4201650
  C       -2.0345350    -0.3435730     0.1532740
  C       -3.1365800    -1.0497620    -0.5798680
  H        1.2371820    -1.4239180    -0.2609290
  H        1.9026850     1.5280430    -0.7082120
  H        1.2768590     0.3787260    -1.9135380
  H        2.3119230     0.6465730     1.7229020
  H        2.1770720    -1.0909040     2.0408530
  H        0.7169210    -0.1225920     1.7908070
  H        3.9287710     0.0354160    -0.2359390
  H        3.6876870    -1.6881060     0.0874480
  H        3.3559530    -1.0370340    -1.5265420
  H       -3.5589910    -0.3771620    -1.3307760
  H       -3.9066010    -1.3512680     0.1291360
  H       -2.7361560    -1.9219890    -1.1015230
units angstrom
no_reorient  #important for SAPT in psi4, default
symmetry c1  #important for SAPT in psi4, default
}

set PROPERTIES_ORIGIN ["COM"]
properties('MP2/aug-cc-pvtz', properties = ['dipole'])
--------------------------------------------------------------------------

    Molecular point group: c1
  Charge       = 0
  Multiplicity = 1
  Basis Set: AUG-CC-PVTZ
    Blend: AUG-CC-PVTZ
  Basis Set: (AUG-CC-PVTZ AUX)
    Blend: AUG-CC-PVTZ-JKFIT

    Orbital Energies [Eh]
    ---------------------

    Doubly Occupied:

       1A    -20.626042     2A    -20.565799     3A    -20.549912
       4A    -11.403058     5A    -11.393846     6A    -11.257595
       7A    -11.249828     8A    -11.249505     9A    -11.227415
      10A    -11.217401    11A     -1.503008    12A     -1.403587
      13A     -1.360987    14A     -1.118100    15A     -1.042841
      16A     -0.995052    17A     -0.941037    18A     -0.886671
      19A     -0.798792    20A     -0.735690    21A     -0.708007
      22A     -0.700137    23A     -0.686375    24A     -0.652922
      25A     -0.631009    26A     -0.620223    27A     -0.588539
      28A     -0.586728    29A     -0.572253    30A     -0.560631
      31A     -0.552982    32A     -0.541413    33A     -0.524356
      34A     -0.497671    35A     -0.485267    36A     -0.481867
      37A     -0.471559    38A     -0.469593    39A     -0.440252

  @DF-RHF Final Energy:  -496.86506025829078

   => Energetics <=

    Nuclear Repulsion Energy =            556.7622717344777357
    One-Electron Energy =               -1782.6587602158435857
    Two-Electron Energy =                 729.0314282230750678
    Total Energy =                       -496.8650602582907823
  Basis Set: (AUG-CC-PVTZ AUX)
    Blend: AUG-CC-PVTZ-RI
    Molecular point group: c1

    Geometry (in Angstrom), charge = 0, multiplicity = 1:

       Center              X                  Y                   Z               Mass
    ------------   -----------------  -----------------  -----------------  -----------------
         O           -0.973177318416    -0.079680153801    -0.698265973729    15.994914619570
         O           -0.410396618416     1.958625746199     0.076601326271    15.994914619570
         O           -1.922973618416    -0.118220253801     1.317791326271    15.994914619570
         C            1.928100381584    -0.592732253801    -0.044667673729    12.000000000000
         C            1.366414381584     0.583679746199    -0.860338673729    12.000000000000
         C            1.832785381584    -0.310836253801     1.454269326271    12.000000000000
         C            3.367598381584    -0.875758253801    -0.467776673729    12.000000000000
         C           -0.028692618416     0.932390746199    -0.433361673729    12.000000000000
         C           -1.954958618416    -0.393694253801     0.140077326271    12.000000000000
         C           -3.057003618416    -1.099883253801    -0.593064673729    12.000000000000
         H            1.316758381584    -1.474039253801    -0.274125673729     1.007825032230
         H            1.982261381584     1.477921746199    -0.721408673729     1.007825032230
         H            1.356435381584     0.328604746199    -1.926734673729     1.007825032230
         H            2.391499381584     0.596451746199     1.709705326271     1.007825032230
         H            2.256648381584    -1.141025253801     2.027656326271     1.007825032230
         H            0.796497381584    -0.172713253801     1.777610326271     1.007825032230
         H            4.008347381584    -0.014705253801    -0.249135673729     1.007825032230
         H            3.767263381584    -1.738227253801     0.074251326271     1.007825032230
         H            3.435529381584    -1.087155253801    -1.539738673729     1.007825032230
         H           -3.479414618416    -0.427283253801    -1.343972673729     1.007825032230
         H           -3.827024618416    -1.401389253801     0.115939326271     1.007825032230
         H           -2.656579618416    -1.972110253801    -1.114719673729     1.007825032230

  Basis Set: AUG-CC-PVTZ
    Blend: AUG-CC-PVTZ
  Basis Set: (AUG-CC-PVTZ AUX)
    Blend: AUG-CC-PVTZ-JKFIT
	 Reference Energy          =    -496.8650602582907823 [Eh]
	 Singles Energy            =      -0.0000000000000000 [Eh]
	 Same-Spin Energy          =      -0.4935330211278248 [Eh]
	 Opposite-Spin Energy      =      -1.5948512724494419 [Eh]
	 Correlation Energy        =      -2.0883842935772670 [Eh]
	 Total Energy              =    -498.9534445518680741 [Eh]

	 ================> DF-SCS-MP2 Energies <==================
	-----------------------------------------------------------
	 SCS Same-Spin Scale       =       0.3333333333333333 [-]
	 SCS Opposite-Spin Scale   =       1.2000000000000000 [-]
	 SCS Same-Spin Energy      =      -0.1645110070426083 [Eh]
	 SCS Opposite-Spin Energy  =      -1.9138215269393302 [Eh]
	 SCS Correlation Energy    =      -2.0783325339819383 [Eh]
	 SCS Total Energy          =    -498.9433927922727321 [Eh]
	-----------------------------------------------------------

  Dipole Moment: [D]
     X:     1.3233      Y:    -2.4126      Z:    -2.7876     Total:     3.9170

*** Psi4 exiting successfully. Buy a developer a beer!
