                               Psi4 1.4a3.dev225

  ==> Input File <==

--------------------------------------------------------------------------
#psi4
#
memory 32 gb

molecule  {
0 1
  O       -0.9795470    -0.0831330    -0.7231310
  O       -0.4899730     2.0087470     0.0897980
  O       -2.0025500    -0.0680990     1.3309880
  C        1.8485240    -0.5426110    -0.0314710
  C        1.3051009     0.5955506    -0.8206209
  C        1.7532090    -0.2607150     1.4674660
  C        3.2880220    -0.8256370    -0.4545800
  C       -0.1082690     0.9825120    -0.4201650
  C       -2.0345350    -0.3435730     0.1532740
  C       -3.1365800    -1.0497620    -0.5798680
  H        1.2371820    -1.4239180    -0.2609290
  H        1.9026850     1.5280430    -0.7082120
  H        1.2768590     0.3787260    -1.9135380
  H        2.3119230     0.6465730     1.7229020
  H        2.1770720    -1.0909040     2.0408530
  H        0.7169210    -0.1225920     1.7908070
  H        3.9287710     0.0354160    -0.2359390
  H        3.6876870    -1.6881060     0.0874480
  H        3.3559530    -1.0370340    -1.5265420
  H       -3.5589910    -0.3771620    -1.3307760
  H       -3.9066010    -1.3512680     0.1291360
  H       -2.7361560    -1.9219890    -1.1015230
units angstrom
no_reorient  #important for SAPT in psi4, default
symmetry c1  #important for SAPT in psi4, default
}

set PROPERTIES_ORIGIN ["COM"]
properties('MP2/aug-cc-pvtz', properties = ['dipole'])
--------------------------------------------------------------------------

    Molecular point group: c1
  Charge       = 0
  Multiplicity = 1
  Basis Set: AUG-CC-PVTZ
    Blend: AUG-CC-PVTZ
  Basis Set: (AUG-CC-PVTZ AUX)
    Blend: AUG-CC-PVTZ-JKFIT

    Orbital Energies [Eh]
    ---------------------

    Doubly Occupied:

       1A    -20.626252     2A    -20.566248     3A    -20.564858
       4A    -11.404088     5A    -11.399565     6A    -11.254868
       7A    -11.253440     8A    -11.242274     9A    -11.224559
      10A    -11.215591    11A     -1.485479    12A     -1.405481
      13A     -1.363720    14A     -1.119742    15A     -1.042759
      16A     -0.987548    17A     -0.939127    18A     -0.869138
      19A     -0.796662    20A     -0.739155    21A     -0.702001
      22A     -0.697013    23A     -0.683019    24A     -0.649995
      25A     -0.628825    26A     -0.621955    27A     -0.595055
      28A     -0.589788    29A     -0.569352    30A     -0.550672
      31A     -0.549858    32A     -0.539266    33A     -0.527708
      34A     -0.499193    35A     -0.489516    36A     -0.479903
      37A     -0.474383    38A     -0.471001    39A     -0.438728

  @DF-RHF Final Energy:  -496.86094406659674

   => Energetics <=

    Nuclear Repulsion Energy =            556.0426474691461181
    One-Electron Energy =               -1781.2916065033402901
    Two-Electron Energy =                 728.3880149675975417
    Total Energy =                       -496.8609440665967441
  Basis Set: (AUG-CC-PVTZ AUX)
    Blend: AUG-CC-PVTZ-RI
    Molecular point group: c1

    Geometry (in Angstrom), charge = 0, multiplicity = 1:

       Center              X                  Y                   Z               Mass
    ------------   -----------------  -----------------  -----------------  -----------------
         O           -0.909618749985    -0.124120922749    -0.734311133087    15.994914619570
         O           -0.420044749985     1.967759077251     0.078617866913    15.994914619570
         O           -1.932621749985    -0.109086922749     1.319807866913    15.994914619570
         C            1.918452250015    -0.583598922749    -0.042651133087    12.000000000000
         C            1.375029150015     0.554562677251    -0.831801033087    12.000000000000
         C            1.823137250015    -0.301702922749     1.456285866913    12.000000000000
         C            3.357950250015    -0.866624922749    -0.465760133087    12.000000000000
         C           -0.038340749985     0.941524077251    -0.431345133087    12.000000000000
         C           -1.964606749985    -0.384560922749     0.142093866913    12.000000000000
         C           -3.066651749985    -1.090749922749    -0.591048133087    12.000000000000
         H            1.307110250015    -1.464905922749    -0.272109133087     1.007825032230
         H            1.972613250015     1.487055077251    -0.719392133087     1.007825032230
         H            1.346787250015     0.337738077251    -1.924718133087     1.007825032230
         H            2.381851250015     0.605585077251     1.711721866913     1.007825032230
         H            2.247000250015    -1.131891922749     2.029672866913     1.007825032230
         H            0.786849250015    -0.163579922749     1.779626866913     1.007825032230
         H            3.998699250015    -0.005571922749    -0.247119133087     1.007825032230
         H            3.757615250015    -1.729093922749     0.076267866913     1.007825032230
         H            3.425881250015    -1.078021922749    -1.537722133087     1.007825032230
         H           -3.489062749985    -0.418149922749    -1.341956133087     1.007825032230
         H           -3.836672749985    -1.392255922749     0.117955866913     1.007825032230
         H           -2.666227749985    -1.962976922749    -1.112703133087     1.007825032230

  Basis Set: AUG-CC-PVTZ
    Blend: AUG-CC-PVTZ
  Basis Set: (AUG-CC-PVTZ AUX)
    Blend: AUG-CC-PVTZ-JKFIT
	 Reference Energy          =    -496.8609440665967441 [Eh]
	 Singles Energy            =      -0.0000000000000000 [Eh]
	 Same-Spin Energy          =      -0.4949723435896429 [Eh]
	 Opposite-Spin Energy      =      -1.5983345678015191 [Eh]
	 Correlation Energy        =      -2.0933069113911618 [Eh]
	 Total Energy              =    -498.9542509779878969 [Eh]

	 ================> DF-SCS-MP2 Energies <==================
	-----------------------------------------------------------
	 SCS Same-Spin Scale       =       0.3333333333333333 [-]
	 SCS Opposite-Spin Scale   =       1.2000000000000000 [-]
	 SCS Same-Spin Energy      =      -0.1649907811965476 [Eh]
	 SCS Opposite-Spin Energy  =      -1.9180014813618227 [Eh]
	 SCS Correlation Energy    =      -2.0829922625583701 [Eh]
	 SCS Total Energy          =    -498.9439363291551217 [Eh]
	-----------------------------------------------------------

  Dipole Moment: [D]
     X:     0.7470      Y:    -2.4773      Z:    -2.5251     Total:     3.6154

*** Psi4 exiting successfully. Buy a developer a beer!
