                               Psi4 1.4a3.dev225

  ==> Input File <==

--------------------------------------------------------------------------
#psi4
#
memory 32 gb

molecule  {
0 1
  O       -0.9795470    -0.0831330    -0.7231310
  O       -0.4899730     2.0087470     0.0897980
  O       -2.0025500    -0.0680990     1.3309880
  C        1.8485240    -0.5426110    -0.0314710
  C        1.2868380     0.6338010    -0.8471420
  C        1.7519616    -0.2570257     1.4870832
  C        3.2880220    -0.8256370    -0.4545800
  C       -0.1082690     0.9825120    -0.4201650
  C       -2.0345350    -0.3435730     0.1532740
  C       -3.1365800    -1.0497620    -0.5798680
  H        1.2371820    -1.4239180    -0.2609290
  H        1.9026850     1.5280430    -0.7082120
  H        1.2768590     0.3787260    -1.9135380
  H        2.3119230     0.6465730     1.7229020
  H        2.1770720    -1.0909040     2.0408530
  H        0.7169210    -0.1225920     1.7908070
  H        3.9287710     0.0354160    -0.2359390
  H        3.6876870    -1.6881060     0.0874480
  H        3.3559530    -1.0370340    -1.5265420
  H       -3.5589910    -0.3771620    -1.3307760
  H       -3.9066010    -1.3512680     0.1291360
  H       -2.7361560    -1.9219890    -1.1015230
units angstrom
no_reorient  #important for SAPT in psi4, default
symmetry c1  #important for SAPT in psi4, default
}

set PROPERTIES_ORIGIN ["COM"]
properties('MP2/aug-cc-pvtz', properties = ['dipole'])
--------------------------------------------------------------------------

    Molecular point group: c1
  Charge       = 0
  Multiplicity = 1
  Basis Set: AUG-CC-PVTZ
    Blend: AUG-CC-PVTZ
  Basis Set: (AUG-CC-PVTZ AUX)
    Blend: AUG-CC-PVTZ-JKFIT

    Orbital Energies [Eh]
    ---------------------

    Doubly Occupied:

       1A    -20.626687     2A    -20.564823     3A    -20.564614
       4A    -11.404108     5A    -11.398499     6A    -11.254910
       7A    -11.250580     8A    -11.246490     9A    -11.224608
      10A    -11.214789    11A     -1.485529    12A     -1.405173
      13A     -1.363508    14A     -1.111685    15A     -1.042700
      16A     -0.990634    17A     -0.938784    18A     -0.868217
      19A     -0.794676    20A     -0.739416    21A     -0.702035
      22A     -0.698349    23A     -0.682712    24A     -0.647765
      25A     -0.629119    26A     -0.620392    27A     -0.594231
      28A     -0.590081    29A     -0.570517    30A     -0.555923
      31A     -0.551616    32A     -0.541396    33A     -0.527714
      34A     -0.497626    35A     -0.487828    36A     -0.477838
      37A     -0.472155    38A     -0.471211    39A     -0.439629

  @DF-RHF Final Energy:  -496.86386490094617

   => Energetics <=

    Nuclear Repulsion Energy =            555.3380060894982080
    One-Electron Energy =               -1779.9066075294508664
    Two-Electron Energy =                 727.7047365390063760
    Total Energy =                       -496.8638649009461687
  Basis Set: (AUG-CC-PVTZ AUX)
    Blend: AUG-CC-PVTZ-RI
    Molecular point group: c1

    Geometry (in Angstrom), charge = 0, multiplicity = 1:

       Center              X                  Y                   Z               Mass
    ------------   -----------------  -----------------  -----------------  -----------------
         O           -0.907993779115    -0.127613990043    -0.733736122123    15.994914619570
         O           -0.418419779115     1.964266009957     0.079192877877    15.994914619570
         O           -1.930996779115    -0.112579990043     1.320382877877    15.994914619570
         C            1.920077220885    -0.587091990043    -0.042076122123    12.000000000000
         C            1.358391220885     0.589320009957    -0.857747122123    12.000000000000
         C            1.823514820885    -0.301506690043     1.476478077877    12.000000000000
         C            3.359575220885    -0.870117990043    -0.465185122123    12.000000000000
         C           -0.036715779115     0.938031009957    -0.430770122123    12.000000000000
         C           -1.962981779115    -0.388053990043     0.142668877877    12.000000000000
         C           -3.065026779115    -1.094242990043    -0.590473122123    12.000000000000
         H            1.308735220885    -1.468398990043    -0.271534122123     1.007825032230
         H            1.974238220885     1.483562009957    -0.718817122123     1.007825032230
         H            1.348412220885     0.334245009957    -1.924143122123     1.007825032230
         H            2.383476220885     0.602092009957     1.712296877877     1.007825032230
         H            2.248625220885    -1.135384990043     2.030247877877     1.007825032230
         H            0.788474220885    -0.167072990043     1.780201877877     1.007825032230
         H            4.000324220885    -0.009064990043    -0.246544122123     1.007825032230
         H            3.759240220885    -1.732586990043     0.076842877877     1.007825032230
         H            3.427506220885    -1.081514990043    -1.537147122123     1.007825032230
         H           -3.487437779115    -0.421642990043    -1.341381122123     1.007825032230
         H           -3.835047779115    -1.395748990043     0.118530877877     1.007825032230
         H           -2.664602779115    -1.966469990043    -1.112128122123     1.007825032230

  Basis Set: AUG-CC-PVTZ
    Blend: AUG-CC-PVTZ
  Basis Set: (AUG-CC-PVTZ AUX)
    Blend: AUG-CC-PVTZ-JKFIT
	 Reference Energy          =    -496.8638649009461687 [Eh]
	 Singles Energy            =      -0.0000000000000000 [Eh]
	 Same-Spin Energy          =      -0.4944661960598017 [Eh]
	 Opposite-Spin Energy      =      -1.5977019147579872 [Eh]
	 Correlation Energy        =      -2.0921681108177888 [Eh]
	 Total Energy              =    -498.9560330117639637 [Eh]

	 ================> DF-SCS-MP2 Energies <==================
	-----------------------------------------------------------
	 SCS Same-Spin Scale       =       0.3333333333333333 [-]
	 SCS Opposite-Spin Scale   =       1.2000000000000000 [-]
	 SCS Same-Spin Energy      =      -0.1648220653532672 [Eh]
	 SCS Opposite-Spin Energy  =      -1.9172422977095844 [Eh]
	 SCS Correlation Energy    =      -2.0820643630628517 [Eh]
	 SCS Total Energy          =    -498.9459292640090098 [Eh]
	-----------------------------------------------------------

  Dipole Moment: [D]
     X:     0.7887      Y:    -2.4971      Z:    -2.5454     Total:     3.6519

*** Psi4 exiting successfully. Buy a developer a beer!
