                               Psi4 1.4a3.dev225

  ==> Input File <==

--------------------------------------------------------------------------
#psi4
#
memory 32 gb

molecule  {
0 1
  O       -0.9795470    -0.0831330    -0.7231310
  O       -0.4899730     2.0087470     0.0897980
  O       -2.0025500    -0.0680990     1.3309880
  C        1.8485240    -0.5426110    -0.0314710
  C        1.2868380     0.6338010    -0.8471420
  C        1.7532090    -0.2607150     1.4674660
  C        3.2880220    -0.8256370    -0.4545800
  C       -0.1082690     0.9825120    -0.4201650
  C       -2.0345350    -0.3435730     0.1532740
  C       -3.1365800    -1.0497620    -0.5798680
  H        1.2371820    -1.4239180    -0.2609290
  H        1.9026850     1.5280430    -0.7082120
  H        1.2768590     0.3787260    -1.9135380
  H        2.3119230     0.6465730     1.7229020
  H        2.1770720    -1.0909040     2.0408530
  H        0.7169210    -0.1225920     1.7908070
  H        3.9404705     0.0511381    -0.2319468
  H        3.6876870    -1.6881060     0.0874480
  H        3.3559530    -1.0370340    -1.5265420
  H       -3.5589910    -0.3771620    -1.3307760
  H       -3.9066010    -1.3512680     0.1291360
  H       -2.7361560    -1.9219890    -1.1015230
units angstrom
no_reorient  #important for SAPT in psi4, default
symmetry c1  #important for SAPT in psi4, default
}

set PROPERTIES_ORIGIN ["COM"]
properties('MP2/aug-cc-pvtz', properties = ['dipole'])
--------------------------------------------------------------------------

    Molecular point group: c1
  Charge       = 0
  Multiplicity = 1
  Basis Set: AUG-CC-PVTZ
    Blend: AUG-CC-PVTZ
  Basis Set: (AUG-CC-PVTZ AUX)
    Blend: AUG-CC-PVTZ-JKFIT

    Orbital Energies [Eh]
    ---------------------

    Doubly Occupied:

       1A    -20.626724     2A    -20.564817     3A    -20.564640
       4A    -11.404111     5A    -11.398556     6A    -11.254929
       7A    -11.250665     8A    -11.245992     9A    -11.227105
      10A    -11.215603    11A     -1.485556    12A     -1.405179
      13A     -1.363525    14A     -1.113542    15A     -1.042874
      16A     -0.990885    17A     -0.937782    18A     -0.868079
      19A     -0.794021    20A     -0.739455    21A     -0.702127
      22A     -0.698441    23A     -0.682824    24A     -0.648275
      25A     -0.629245    26A     -0.620879    27A     -0.594425
      28A     -0.589996    29A     -0.570277    30A     -0.555377
      31A     -0.549593    32A     -0.539116    33A     -0.527348
      34A     -0.496014    35A     -0.487141    36A     -0.479421
      37A     -0.473862    38A     -0.471147    39A     -0.439645

  @DF-RHF Final Energy:  -496.86347342096781

   => Energetics <=

    Nuclear Repulsion Energy =            555.5606348829616081
    One-Electron Energy =               -1780.3498342489660899
    Two-Electron Energy =                 727.9257259450367883
    Total Energy =                       -496.8634734209678072
  Basis Set: (AUG-CC-PVTZ AUX)
    Blend: AUG-CC-PVTZ-RI
    Molecular point group: c1

    Geometry (in Angstrom), charge = 0, multiplicity = 1:

       Center              X                  Y                   Z               Mass
    ------------   -----------------  -----------------  -----------------  -----------------
         O           -0.908179509964    -0.127416691726    -0.732130173080    15.994914619570
         O           -0.418605509964     1.964463308274     0.080798826920    15.994914619570
         O           -1.931182509964    -0.112382691726     1.321988826920    15.994914619570
         C            1.919891490036    -0.586894691726    -0.040470173080    12.000000000000
         C            1.358205490036     0.589517308274    -0.856141173080    12.000000000000
         C            1.824576490036    -0.304998691726     1.458466826920    12.000000000000
         C            3.359389490036    -0.869920691726    -0.463579173080    12.000000000000
         C           -0.036901509964     0.938228308274    -0.429164173080    12.000000000000
         C           -1.963167509964    -0.387856691726     0.144274826920    12.000000000000
         C           -3.065212509964    -1.094045691726    -0.588867173080    12.000000000000
         H            1.308549490036    -1.468201691726    -0.269928173080     1.007825032230
         H            1.974052490036     1.483759308274    -0.717211173080     1.007825032230
         H            1.348226490036     0.334442308274    -1.922537173080     1.007825032230
         H            2.383290490036     0.602289308274     1.713902826920     1.007825032230
         H            2.248439490036    -1.135187691726     2.031853826920     1.007825032230
         H            0.788288490036    -0.166875691726     1.781807826920     1.007825032230
         H            4.011837990036     0.006854408274    -0.240945973080     1.007825032230
         H            3.759054490036    -1.732389691726     0.078448826920     1.007825032230
         H            3.427320490036    -1.081317691726    -1.535541173080     1.007825032230
         H           -3.487623509964    -0.421445691726    -1.339775173080     1.007825032230
         H           -3.835233509964    -1.395551691726     0.120136826920     1.007825032230
         H           -2.664788509964    -1.966272691726    -1.110522173080     1.007825032230

  Basis Set: AUG-CC-PVTZ
    Blend: AUG-CC-PVTZ
  Basis Set: (AUG-CC-PVTZ AUX)
    Blend: AUG-CC-PVTZ-JKFIT
	 Reference Energy          =    -496.8634734209678072 [Eh]
	 Singles Energy            =      -0.0000000000000000 [Eh]
	 Same-Spin Energy          =      -0.4946108969410369 [Eh]
	 Opposite-Spin Energy      =      -1.5979400490854574 [Eh]
	 Correlation Energy        =      -2.0925509460264942 [Eh]
	 Total Energy              =    -498.9560243669943134 [Eh]

	 ================> DF-SCS-MP2 Energies <==================
	-----------------------------------------------------------
	 SCS Same-Spin Scale       =       0.3333333333333333 [-]
	 SCS Opposite-Spin Scale   =       1.2000000000000000 [-]
	 SCS Same-Spin Energy      =      -0.1648702989803456 [Eh]
	 SCS Opposite-Spin Energy  =      -1.9175280589025487 [Eh]
	 SCS Correlation Energy    =      -2.0823983578828944 [Eh]
	 SCS Total Energy          =    -498.9458717788506874 [Eh]
	-----------------------------------------------------------

  Dipole Moment: [D]
     X:     0.7765      Y:    -2.5046      Z:    -2.5419     Total:     3.6520

*** Psi4 exiting successfully. Buy a developer a beer!
