                               Psi4 1.4a3.dev225

  ==> Input File <==

--------------------------------------------------------------------------
#psi4
#
memory 32 gb

molecule  {
0 1
  O       -0.9795470    -0.0831330    -0.7231310
  O       -0.4899730     2.0087470     0.0897980
  O       -2.0025500    -0.0680990     1.3309880
  C        1.8485240    -0.5426110    -0.0314710
  C        1.2868380     0.6338010    -0.8471420
  C        1.7532090    -0.2607150     1.4674660
  C        3.2880220    -0.8256370    -0.4545800
  C       -0.1082690     0.9825120    -0.4201650
  C       -2.0345350    -0.3435730     0.1532740
  C       -3.1365800    -1.0497620    -0.5798680
  H        1.2371820    -1.4239180    -0.2609290
  H        1.9026850     1.5280430    -0.7082120
  H        1.2768590     0.3787260    -1.9135380
  H        2.3119230     0.6465730     1.7229020
  H        2.1770720    -1.0909040     2.0408530
  H        0.7169210    -0.1225920     1.7908070
  H        3.9287710     0.0354160    -0.2359390
  H        3.6911484    -1.6967649     0.0707814
  H        3.3559530    -1.0370340    -1.5265420
  H       -3.5589910    -0.3771620    -1.3307760
  H       -3.9066010    -1.3512680     0.1291360
  H       -2.7361560    -1.9219890    -1.1015230
units angstrom
no_reorient  #important for SAPT in psi4, default
symmetry c1  #important for SAPT in psi4, default
}

set PROPERTIES_ORIGIN ["COM"]
properties('MP2/aug-cc-pvtz', properties = ['dipole'])
--------------------------------------------------------------------------

    Molecular point group: c1
  Charge       = 0
  Multiplicity = 1
  Basis Set: AUG-CC-PVTZ
    Blend: AUG-CC-PVTZ
  Basis Set: (AUG-CC-PVTZ AUX)
    Blend: AUG-CC-PVTZ-JKFIT

    Orbital Energies [Eh]
    ---------------------

    Doubly Occupied:

       1A    -20.626703     2A    -20.564792     3A    -20.564647
       4A    -11.404088     5A    -11.398573     6A    -11.254906
       7A    -11.250694     8A    -11.245844     9A    -11.224606
      10A    -11.215523    11A     -1.485538    12A     -1.405169
      13A     -1.363510    14A     -1.113614    15A     -1.042887
      16A     -0.991132    17A     -0.938739    18A     -0.868197
      19A     -0.794728    20A     -0.739442    21A     -0.702122
      22A     -0.698436    23A     -0.682845    24A     -0.648833
      25A     -0.629256    26A     -0.620523    27A     -0.593926
      28A     -0.590048    29A     -0.570496    30A     -0.555661
      31A     -0.551189    32A     -0.539905    33A     -0.527382
      34A     -0.495999    35A     -0.487191    36A     -0.479469
      37A     -0.473781    38A     -0.471269    39A     -0.439720

  @DF-RHF Final Energy:  -496.86394515534585

   => Energetics <=

    Nuclear Repulsion Energy =            555.6275135505744629
    One-Electron Energy =               -1780.4801467794727614
    Two-Electron Energy =                 727.9886880735525665
    Total Energy =                       -496.8639451553458457
  Basis Set: (AUG-CC-PVTZ AUX)
    Blend: AUG-CC-PVTZ-RI
    Molecular point group: c1

    Geometry (in Angstrom), charge = 0, multiplicity = 1:

       Center              X                  Y                   Z               Mass
    ------------   -----------------  -----------------  -----------------  -----------------
         O           -0.908121884745    -0.127246147491    -0.731985665503    15.994914619570
         O           -0.418547884745     1.964633852509     0.080943334497    15.994914619570
         O           -1.931124884745    -0.112212147491     1.322133334497    15.994914619570
         C            1.919949115255    -0.586724147491    -0.040325665503    12.000000000000
         C            1.358263115255     0.589687852509    -0.855996665503    12.000000000000
         C            1.824634115255    -0.304828147491     1.458611334497    12.000000000000
         C            3.359447115255    -0.869750147491    -0.463434665503    12.000000000000
         C           -0.036843884745     0.938398852509    -0.429019665503    12.000000000000
         C           -1.963109884745    -0.387686147491     0.144419334497    12.000000000000
         C           -3.065154884745    -1.093875147491    -0.588722665503    12.000000000000
         H            1.308607115255    -1.468031147491    -0.269783665503     1.007825032230
         H            1.974110115255     1.483929852509    -0.717066665503     1.007825032230
         H            1.348284115255     0.334612852509    -1.922392665503     1.007825032230
         H            2.383348115255     0.602459852509     1.714047334497     1.007825032230
         H            2.248497115255    -1.135017147491     2.031998334497     1.007825032230
         H            0.788346115255    -0.166705147491     1.781952334497     1.007825032230
         H            4.000196115255    -0.008697147491    -0.244793665503     1.007825032230
         H            3.762573515255    -1.740878047491     0.061926734497     1.007825032230
         H            3.427378115255    -1.081147147491    -1.535396665503     1.007825032230
         H           -3.487565884745    -0.421275147491    -1.339630665503     1.007825032230
         H           -3.835175884745    -1.395381147491     0.120281334497     1.007825032230
         H           -2.664730884745    -1.966102147491    -1.110377665503     1.007825032230

  Basis Set: AUG-CC-PVTZ
    Blend: AUG-CC-PVTZ
  Basis Set: (AUG-CC-PVTZ AUX)
    Blend: AUG-CC-PVTZ-JKFIT
	 Reference Energy          =    -496.8639451553458457 [Eh]
	 Singles Energy            =      -0.0000000000000000 [Eh]
	 Same-Spin Energy          =      -0.4946042054688161 [Eh]
	 Opposite-Spin Energy      =      -1.5978030559669154 [Eh]
	 Correlation Energy        =      -2.0924072614357314 [Eh]
	 Total Energy              =    -498.9563524167815558 [Eh]

	 ================> DF-SCS-MP2 Energies <==================
	-----------------------------------------------------------
	 SCS Same-Spin Scale       =       0.3333333333333333 [-]
	 SCS Opposite-Spin Scale   =       1.2000000000000000 [-]
	 SCS Same-Spin Energy      =      -0.1648680684896054 [Eh]
	 SCS Opposite-Spin Energy  =      -1.9173636671602985 [Eh]
	 SCS Correlation Energy    =      -2.0822317356499038 [Eh]
	 SCS Total Energy          =    -498.9461768909957300 [Eh]
	-----------------------------------------------------------

  Dipole Moment: [D]
     X:     0.7859      Y:    -2.5006      Z:    -2.5448     Total:     3.6533

*** Psi4 exiting successfully. Buy a developer a beer!
