                               Psi4 1.4a3.dev225

  ==> Input File <==

--------------------------------------------------------------------------
#psi4
#
memory 32 gb

molecule  {
0 1
  O       -0.9795470    -0.0831330    -0.7231310
  O       -0.4899730     2.0087470     0.0897980
  O       -2.0025500    -0.0680990     1.3309880
  C        1.8485240    -0.5426110    -0.0314710
  C        1.2868380     0.6338010    -0.8471420
  C        1.7532090    -0.2607150     1.4674660
  C        3.2880220    -0.8256370    -0.4545800
  C       -0.1082690     0.9825120    -0.4201650
  C       -2.0345350    -0.3435730     0.1532740
  C       -3.1365800    -1.0497620    -0.5798680
  H        1.2371820    -1.4239180    -0.2609290
  H        1.9026850     1.5280430    -0.7082120
  H        1.2777691     0.4019882    -1.8162855
  H        2.3119230     0.6465730     1.7229020
  H        2.1770720    -1.0909040     2.0408530
  H        0.7169210    -0.1225920     1.7908070
  H        3.9287710     0.0354160    -0.2359390
  H        3.6876870    -1.6881060     0.0874480
  H        3.3559530    -1.0370340    -1.5265420
  H       -3.5589910    -0.3771620    -1.3307760
  H       -3.9066010    -1.3512680     0.1291360
  H       -2.7361560    -1.9219890    -1.1015230
units angstrom
no_reorient  #important for SAPT in psi4, default
symmetry c1  #important for SAPT in psi4, default
}

set PROPERTIES_ORIGIN ["COM"]
properties('MP2/aug-cc-pvtz', properties = ['dipole'])
--------------------------------------------------------------------------

    Molecular point group: c1
  Charge       = 0
  Multiplicity = 1
  Basis Set: AUG-CC-PVTZ
    Blend: AUG-CC-PVTZ
  Basis Set: (AUG-CC-PVTZ AUX)
    Blend: AUG-CC-PVTZ-JKFIT

    Orbital Energies [Eh]
    ---------------------

    Doubly Occupied:

       1A    -20.626796     2A    -20.564825     3A    -20.564138
       4A    -11.404158     5A    -11.397840     6A    -11.254951
       7A    -11.245154     8A    -11.238685     9A    -11.224682
      10A    -11.214890    11A     -1.485533    12A     -1.404939
      13A     -1.363405    14A     -1.116421    15A     -1.043028
      16A     -0.996071    17A     -0.938722    18A     -0.870008
      19A     -0.794918    20A     -0.741233    21A     -0.703885
      22A     -0.701743    23A     -0.682865    24A     -0.655995
      25A     -0.630720    26A     -0.620579    27A     -0.594623
      28A     -0.590054    29A     -0.572497    30A     -0.555789
      31A     -0.552846    32A     -0.540411    33A     -0.527351
      34A     -0.495964    35A     -0.487047    36A     -0.480380
      37A     -0.475511    38A     -0.470934    39A     -0.439320

  @DF-RHF Final Energy:  -496.85827617991794

   => Energetics <=

    Nuclear Repulsion Energy =            556.1959156984717083
    One-Electron Energy =               -1781.5705644332747397
    Two-Electron Energy =                 728.5163725548850380
    Total Energy =                       -496.8582761799179934
  Basis Set: (AUG-CC-PVTZ AUX)
    Blend: AUG-CC-PVTZ-RI
    Molecular point group: c1

    Geometry (in Angstrom), charge = 0, multiplicity = 1:

       Center              X                  Y                   Z               Mass
    ------------   -----------------  -----------------  -----------------  -----------------
         O           -0.908104038492    -0.127469434460    -0.732782525587    15.994914619570
         O           -0.418530038492     1.964410565540     0.080146474413    15.994914619570
         O           -1.931107038492    -0.112435434460     1.321336474413    15.994914619570
         C            1.919966961508    -0.586947434460    -0.041122525587    12.000000000000
         C            1.358280961508     0.589464565540    -0.856793525587    12.000000000000
         C            1.824651961508    -0.305051434460     1.457814474413    12.000000000000
         C            3.359464961508    -0.869973434460    -0.464231525587    12.000000000000
         C           -0.036826038492     0.938175565540    -0.429816525587    12.000000000000
         C           -1.963092038492    -0.387909434460     0.143622474413    12.000000000000
         C           -3.065137038492    -1.094098434460    -0.589519525587    12.000000000000
         H            1.308624961508    -1.468254434460    -0.270580525587     1.007825032230
         H            1.974127961508     1.483706565540    -0.717863525587     1.007825032230
         H            1.349212061508     0.357651765540    -1.825937025587     1.007825032230
         H            2.383365961508     0.602236565540     1.713250474413     1.007825032230
         H            2.248514961508    -1.135240434460     2.031201474413     1.007825032230
         H            0.788363961508    -0.166928434460     1.781155474413     1.007825032230
         H            4.000213961508    -0.008920434460    -0.245590525587     1.007825032230
         H            3.759129961508    -1.732442434460     0.077796474413     1.007825032230
         H            3.427395961508    -1.081370434460    -1.536193525587     1.007825032230
         H           -3.487548038492    -0.421498434460    -1.340427525587     1.007825032230
         H           -3.835158038492    -1.395604434460     0.119484474413     1.007825032230
         H           -2.664713038492    -1.966325434460    -1.111174525587     1.007825032230

  Basis Set: AUG-CC-PVTZ
    Blend: AUG-CC-PVTZ
  Basis Set: (AUG-CC-PVTZ AUX)
    Blend: AUG-CC-PVTZ-JKFIT
	 Reference Energy          =    -496.8582761799179366 [Eh]
	 Singles Energy            =      -0.0000000000000000 [Eh]
	 Same-Spin Energy          =      -0.4945365343817409 [Eh]
	 Opposite-Spin Energy      =      -1.5972613213272182 [Eh]
	 Correlation Energy        =      -2.0917978557089589 [Eh]
	 Total Energy              =    -498.9500740356268693 [Eh]

	 ================> DF-SCS-MP2 Energies <==================
	-----------------------------------------------------------
	 SCS Same-Spin Scale       =       0.3333333333333333 [-]
	 SCS Opposite-Spin Scale   =       1.2000000000000000 [-]
	 SCS Same-Spin Energy      =      -0.1648455114605803 [Eh]
	 SCS Opposite-Spin Energy  =      -1.9167135855926618 [Eh]
	 SCS Correlation Energy    =      -2.0815590970532423 [Eh]
	 SCS Total Energy          =    -498.9398352769711664 [Eh]
	-----------------------------------------------------------

  Dipole Moment: [D]
     X:     0.7842      Y:    -2.4927      Z:    -2.5696     Total:     3.6649

*** Psi4 exiting successfully. Buy a developer a beer!
