                               Psi4 1.4a3.dev225

  ==> Input File <==

--------------------------------------------------------------------------
#psi4
#
memory 32 gb

molecule  {
0 1
  O       -0.9795470    -0.0831330    -0.7231310
  O       -0.4899730     2.0087470     0.0897980
  O       -2.0025500    -0.0680990     1.3309880
  C        1.8485240    -0.5426110    -0.0314710
  C        1.2868380     0.6338010    -0.8471420
  C        1.7207885    -0.3027883     1.4723678
  C        3.2880220    -0.8256370    -0.4545800
  C       -0.1082690     0.9825120    -0.4201650
  C       -2.0345350    -0.3435730     0.1532740
  C       -3.1365800    -1.0497620    -0.5798680
  H        1.2371820    -1.4239180    -0.2609290
  H        1.9026850     1.5280430    -0.7082120
  H        1.2768590     0.3787260    -1.9135380
  H        2.3119230     0.6465730     1.7229020
  H        2.1770720    -1.0909040     2.0408530
  H        0.7169210    -0.1225920     1.7908070
  H        3.9287710     0.0354160    -0.2359390
  H        3.6876870    -1.6881060     0.0874480
  H        3.3559530    -1.0370340    -1.5265420
  H       -3.5589910    -0.3771620    -1.3307760
  H       -3.9066010    -1.3512680     0.1291360
  H       -2.7361560    -1.9219890    -1.1015230
units angstrom
no_reorient  #important for SAPT in psi4, default
symmetry c1  #important for SAPT in psi4, default
}

set PROPERTIES_ORIGIN ["COM"]
properties('MP2/aug-cc-pvtz', properties = ['dipole'])
--------------------------------------------------------------------------

    Molecular point group: c1
  Charge       = 0
  Multiplicity = 1
  Basis Set: AUG-CC-PVTZ
    Blend: AUG-CC-PVTZ
  Basis Set: (AUG-CC-PVTZ AUX)
    Blend: AUG-CC-PVTZ-JKFIT

    Orbital Energies [Eh]
    ---------------------

    Doubly Occupied:

       1A    -20.626857     2A    -20.564973     3A    -20.564936
       4A    -11.404255     5A    -11.398754     6A    -11.255001
       7A    -11.251099     8A    -11.245934     9A    -11.225183
      10A    -11.216346    11A     -1.485727    12A     -1.405388
      13A     -1.363705    14A     -1.113426    15A     -1.042990
      16A     -0.991449    17A     -0.939824    18A     -0.868416
      19A     -0.794235    20A     -0.739584    21A     -0.702241
      22A     -0.698383    23A     -0.683200    24A     -0.648446
      25A     -0.629624    26A     -0.623512    27A     -0.595586
      28A     -0.590171    29A     -0.571618    30A     -0.554962
      31A     -0.551343    32A     -0.534260    33A     -0.528420
      34A     -0.501402    35A     -0.488127    36A     -0.477775
      37A     -0.475307    38A     -0.466109    39A     -0.440058

  @DF-RHF Final Energy:  -496.86112459255634

   => Energetics <=

    Nuclear Repulsion Energy =            555.6873425936637432
    One-Electron Energy =               -1780.5796775937378698
    Two-Electron Energy =                 728.0312104075177331
    Total Energy =                       -496.8611245925563935
  Basis Set: (AUG-CC-PVTZ AUX)
    Blend: AUG-CC-PVTZ-RI
    Molecular point group: c1

    Geometry (in Angstrom), charge = 0, multiplicity = 1:

       Center              X                  Y                   Z               Mass
    ------------   -----------------  -----------------  -----------------  -----------------
         O           -0.905397438748    -0.123802521641    -0.732510508148    15.994914619570
         O           -0.415823438748     1.968077478359     0.080418491852    15.994914619570
         O           -1.928400438748    -0.108768521641     1.321608491852    15.994914619570
         C            1.922673561252    -0.583280521641    -0.040850508148    12.000000000000
         C            1.360987561252     0.593131478359    -0.856521508148    12.000000000000
         C            1.794938061252    -0.343457821641     1.462988291852    12.000000000000
         C            3.362171561252    -0.866306521641    -0.463959508148    12.000000000000
         C           -0.034119438748     0.941842478359    -0.429544508148    12.000000000000
         C           -1.960385438748    -0.384242521641     0.143894491852    12.000000000000
         C           -3.062430438748    -1.090431521641    -0.589247508148    12.000000000000
         H            1.311331561252    -1.464587521641    -0.270308508148     1.007825032230
         H            1.976834561252     1.487373478359    -0.717591508148     1.007825032230
         H            1.351008561252     0.338056478359    -1.922917508148     1.007825032230
         H            2.386072561252     0.605903478359     1.713522491852     1.007825032230
         H            2.251221561252    -1.131573521641     2.031473491852     1.007825032230
         H            0.791070561252    -0.163261521641     1.781427491852     1.007825032230
         H            4.002920561252    -0.005253521641    -0.245318508148     1.007825032230
         H            3.761836561252    -1.728775521641     0.078068491852     1.007825032230
         H            3.430102561252    -1.077703521641    -1.535921508148     1.007825032230
         H           -3.484841438748    -0.417831521641    -1.340155508148     1.007825032230
         H           -3.832451438748    -1.391937521641     0.119756491852     1.007825032230
         H           -2.662006438748    -1.962658521641    -1.110902508148     1.007825032230

  Basis Set: AUG-CC-PVTZ
    Blend: AUG-CC-PVTZ
  Basis Set: (AUG-CC-PVTZ AUX)
    Blend: AUG-CC-PVTZ-JKFIT
	 Reference Energy          =    -496.8611245925563367 [Eh]
	 Singles Energy            =      -0.0000000000000000 [Eh]
	 Same-Spin Energy          =      -0.4946202092025107 [Eh]
	 Opposite-Spin Energy      =      -1.5979030770670115 [Eh]
	 Correlation Energy        =      -2.0925232862695222 [Eh]
	 Total Energy              =    -498.9536478788258478 [Eh]

	 ================> DF-SCS-MP2 Energies <==================
	-----------------------------------------------------------
	 SCS Same-Spin Scale       =       0.3333333333333333 [-]
	 SCS Opposite-Spin Scale   =       1.2000000000000000 [-]
	 SCS Same-Spin Energy      =      -0.1648734030675035 [Eh]
	 SCS Opposite-Spin Energy  =      -1.9174836924804137 [Eh]
	 SCS Correlation Energy    =      -2.0823570955479171 [Eh]
	 SCS Total Energy          =    -498.9434816881042707 [Eh]
	-----------------------------------------------------------

  Dipole Moment: [D]
     X:     0.7747      Y:    -2.5192      Z:    -2.5558     Total:     3.6713

*** Psi4 exiting successfully. Buy a developer a beer!
