                               Psi4 1.4a3.dev225

  ==> Input File <==

--------------------------------------------------------------------------
#psi4
#
memory 32 gb

molecule  {
0 1
  O       -0.8618952    -0.1536850    -0.7774000
  O       -0.4899730     2.0087470     0.0897980
  O       -2.0025500    -0.0680990     1.3309880
  C        1.8485240    -0.5426110    -0.0314710
  C        1.2868380     0.6338010    -0.8471420
  C        1.7532090    -0.2607150     1.4674660
  C        3.2880220    -0.8256370    -0.4545800
  C       -0.1082690     0.9825120    -0.4201650
  C       -2.0345350    -0.3435730     0.1532740
  C       -3.1365800    -1.0497620    -0.5798680
  H        1.2371820    -1.4239180    -0.2609290
  H        1.9026850     1.5280430    -0.7082120
  H        1.2768590     0.3787260    -1.9135380
  H        2.3119230     0.6465730     1.7229020
  H        2.1770720    -1.0909040     2.0408530
  H        0.7169210    -0.1225920     1.7908070
  H        3.9287710     0.0354160    -0.2359390
  H        3.6876870    -1.6881060     0.0874480
  H        3.3559530    -1.0370340    -1.5265420
  H       -3.5589910    -0.3771620    -1.3307760
  H       -3.9066010    -1.3512680     0.1291360
  H       -2.7361560    -1.9219890    -1.1015230
units angstrom
no_reorient  #important for SAPT in psi4, default
symmetry c1  #important for SAPT in psi4, default
}

set PROPERTIES_ORIGIN ["COM"]
properties('MP2/aug-cc-pvtz', properties = ['dipole'])
--------------------------------------------------------------------------

    Molecular point group: c1
  Charge       = 0
  Multiplicity = 1
  Basis Set: AUG-CC-PVTZ
    Blend: AUG-CC-PVTZ
  Basis Set: (AUG-CC-PVTZ AUX)
    Blend: AUG-CC-PVTZ-JKFIT

    Orbital Energies [Eh]
    ---------------------

    Doubly Occupied:

       1A    -20.625672     2A    -20.585615     3A    -20.563155
       4A    -11.419006     5A    -11.392451     6A    -11.263500
       7A    -11.240285     8A    -11.239633     9A    -11.220250
      10A    -11.212645    11A     -1.465565    12A     -1.411474
      13A     -1.360724    14A     -1.106453    15A     -1.045145
      16A     -0.984246    17A     -0.934932    18A     -0.841377
      19A     -0.788299    20A     -0.746723    21A     -0.701714
      22A     -0.688747    23A     -0.676504    24A     -0.642629
      25A     -0.630739    26A     -0.624005    27A     -0.602744
      28A     -0.591630    29A     -0.566505    30A     -0.549081
      31A     -0.546639    32A     -0.537639    33A     -0.533016
      34A     -0.494003    35A     -0.489004    36A     -0.478350
      37A     -0.472299    38A     -0.468457    39A     -0.434516

  @DF-RHF Final Energy:  -496.84498728736003

   => Energetics <=

    Nuclear Repulsion Energy =            554.1128510004152758
    One-Electron Energy =               -1777.5649395982468377
    Two-Electron Energy =                 726.6071013104715348
    Total Energy =                       -496.8449872873600270
  Basis Set: (AUG-CC-PVTZ AUX)
    Blend: AUG-CC-PVTZ-RI
    Molecular point group: c1

    Geometry (in Angstrom), charge = 0, multiplicity = 1:

       Center              X                  Y                   Z               Mass
    ------------   -----------------  -----------------  -----------------  -----------------
         O           -0.803507006491    -0.190026374194    -0.780346565734    15.994914619570
         O           -0.431584806491     1.972405625806     0.086851434266    15.994914619570
         O           -1.944161806491    -0.104440374194     1.328041434266    15.994914619570
         C            1.906912193509    -0.578952374194    -0.034417565734    12.000000000000
         C            1.345226193509     0.597459625806    -0.850088565734    12.000000000000
         C            1.811597193509    -0.297056374194     1.464519434266    12.000000000000
         C            3.346410193509    -0.861978374194    -0.457526565734    12.000000000000
         C           -0.049880806491     0.946170625806    -0.423111565734    12.000000000000
         C           -1.976146806491    -0.379914374194     0.150327434266    12.000000000000
         C           -3.078191806491    -1.086103374194    -0.582814565734    12.000000000000
         H            1.295570193509    -1.460259374194    -0.263875565734     1.007825032230
         H            1.961073193509     1.491701625806    -0.711158565734     1.007825032230
         H            1.335247193509     0.342384625806    -1.916484565734     1.007825032230
         H            2.370311193509     0.610231625806     1.719955434266     1.007825032230
         H            2.235460193509    -1.127245374194     2.037906434266     1.007825032230
         H            0.775309193509    -0.158933374194     1.787860434266     1.007825032230
         H            3.987159193509    -0.000925374194    -0.238885565734     1.007825032230
         H            3.746075193509    -1.724447374194     0.084501434266     1.007825032230
         H            3.414341193509    -1.073375374194    -1.529488565734     1.007825032230
         H           -3.500602806491    -0.413503374194    -1.333722565734     1.007825032230
         H           -3.848212806491    -1.387609374194     0.126189434266     1.007825032230
         H           -2.677767806491    -1.958330374194    -1.104469565734     1.007825032230

  Basis Set: AUG-CC-PVTZ
    Blend: AUG-CC-PVTZ
  Basis Set: (AUG-CC-PVTZ AUX)
    Blend: AUG-CC-PVTZ-JKFIT
	 Reference Energy          =    -496.8449872873600270 [Eh]
	 Singles Energy            =      -0.0000000000000000 [Eh]
	 Same-Spin Energy          =      -0.4970764604818260 [Eh]
	 Opposite-Spin Energy      =      -1.6039615251129986 [Eh]
	 Correlation Energy        =      -2.1010379855948247 [Eh]
	 Total Energy              =    -498.9460252729548415 [Eh]

	 ================> DF-SCS-MP2 Energies <==================
	-----------------------------------------------------------
	 SCS Same-Spin Scale       =       0.3333333333333333 [-]
	 SCS Opposite-Spin Scale   =       1.2000000000000000 [-]
	 SCS Same-Spin Energy      =      -0.1656921534939420 [Eh]
	 SCS Opposite-Spin Energy  =      -1.9247538301355982 [Eh]
	 SCS Correlation Energy    =      -2.0904459836295404 [Eh]
	 SCS Total Energy          =    -498.9354332709895630 [Eh]
	-----------------------------------------------------------

  Dipole Moment: [D]
     X:    -0.0526      Y:    -2.6365      Z:    -2.1968     Total:     3.4322

*** Psi4 exiting successfully. Buy a developer a beer!
