                               Psi4 1.4a3.dev225

  ==> Input File <==

--------------------------------------------------------------------------
#psi4
#
memory 32 gb

molecule  {
0 1
  O       -0.9795470    -0.0831330    -0.7231310
  O       -0.4899730     2.0087470     0.0897980
  O       -2.0025500    -0.0680990     1.3309880
  C        1.8485240    -0.5426110    -0.0314710
  C        1.3632114     0.6954708    -0.8037278
  C        1.7532090    -0.2607150     1.4674660
  C        3.2880220    -0.8256370    -0.4545800
  C       -0.1082690     0.9825120    -0.4201650
  C       -2.0345350    -0.3435730     0.1532740
  C       -3.1365800    -1.0497620    -0.5798680
  H        1.2371820    -1.4239180    -0.2609290
  H        1.9026850     1.5280430    -0.7082120
  H        1.2768590     0.3787260    -1.9135380
  H        2.3119230     0.6465730     1.7229020
  H        2.1770720    -1.0909040     2.0408530
  H        0.7169210    -0.1225920     1.7908070
  H        3.9287710     0.0354160    -0.2359390
  H        3.6876870    -1.6881060     0.0874480
  H        3.3559530    -1.0370340    -1.5265420
  H       -3.5589910    -0.3771620    -1.3307760
  H       -3.9066010    -1.3512680     0.1291360
  H       -2.7361560    -1.9219890    -1.1015230
units angstrom
no_reorient  #important for SAPT in psi4, default
symmetry c1  #important for SAPT in psi4, default
}

set PROPERTIES_ORIGIN ["COM"]
properties('MP2/aug-cc-pvtz', properties = ['dipole'])
--------------------------------------------------------------------------

    Molecular point group: c1
  Charge       = 0
  Multiplicity = 1
  Basis Set: AUG-CC-PVTZ
    Blend: AUG-CC-PVTZ
  Basis Set: (AUG-CC-PVTZ AUX)
    Blend: AUG-CC-PVTZ-JKFIT

    Orbital Energies [Eh]
    ---------------------

    Doubly Occupied:

       1A    -20.628898     2A    -20.565397     3A    -20.561502
       4A    -11.405215     5A    -11.398421     6A    -11.255572
       7A    -11.251952     8A    -11.245483     9A    -11.223557
      10A    -11.214685    11A     -1.485194    12A     -1.404229
      13A     -1.363122    14A     -1.112613    15A     -1.042405
      16A     -0.985340    17A     -0.938363    18A     -0.870940
      19A     -0.795891    20A     -0.739447    21A     -0.703932
      22A     -0.696608    23A     -0.681920    24A     -0.645770
      25A     -0.625912    26A     -0.621043    27A     -0.597259
      28A     -0.592020    29A     -0.576371    30A     -0.564856
      31A     -0.548926    32A     -0.537369    33A     -0.526621
      34A     -0.494187    35A     -0.492464    36A     -0.476824
      37A     -0.473990    38A     -0.466348    39A     -0.432994

  @DF-RHF Final Energy:  -496.85066974889537

   => Energetics <=

    Nuclear Repulsion Energy =            554.8976704756713616
    One-Electron Energy =               -1779.0094020932074272
    Two-Electron Energy =                 727.2610618686405815
    Total Energy =                       -496.8506697488953705
  Basis Set: (AUG-CC-PVTZ AUX)
    Blend: AUG-CC-PVTZ-RI
    Molecular point group: c1

    Geometry (in Angstrom), charge = 0, multiplicity = 1:

       Center              X                  Y                   Z               Mass
    ------------   -----------------  -----------------  -----------------  -----------------
         O           -0.914458648387    -0.132443061025    -0.735718123006    15.994914619570
         O           -0.424884648387     1.959436938975     0.077210876994    15.994914619570
         O           -1.937461648387    -0.117409061025     1.318400876994    15.994914619570
         C            1.913612351613    -0.591921061025    -0.044058123006    12.000000000000
         C            1.428299751613     0.646160738975    -0.816314923006    12.000000000000
         C            1.818297351613    -0.310025061025     1.454878876994    12.000000000000
         C            3.353110351613    -0.874947061025    -0.467167123006    12.000000000000
         C           -0.043180648387     0.933201938975    -0.432752123006    12.000000000000
         C           -1.969446648387    -0.392883061025     0.140686876994    12.000000000000
         C           -3.071491648387    -1.099072061025    -0.592455123006    12.000000000000
         H            1.302270351613    -1.473228061025    -0.273516123006     1.007825032230
         H            1.967773351613     1.478732938975    -0.720799123006     1.007825032230
         H            1.341947351613     0.329415938975    -1.926125123006     1.007825032230
         H            2.377011351613     0.597262938975     1.710314876994     1.007825032230
         H            2.242160351613    -1.140214061025     2.028265876994     1.007825032230
         H            0.782009351613    -0.171902061025     1.778219876994     1.007825032230
         H            3.993859351613    -0.013894061025    -0.248526123006     1.007825032230
         H            3.752775351613    -1.737416061025     0.074860876994     1.007825032230
         H            3.421041351613    -1.086344061025    -1.539129123006     1.007825032230
         H           -3.493902648387    -0.426472061025    -1.343363123006     1.007825032230
         H           -3.841512648387    -1.400578061025     0.116548876994     1.007825032230
         H           -2.671067648387    -1.971299061025    -1.114110123006     1.007825032230

  Basis Set: AUG-CC-PVTZ
    Blend: AUG-CC-PVTZ
  Basis Set: (AUG-CC-PVTZ AUX)
    Blend: AUG-CC-PVTZ-JKFIT
	 Reference Energy          =    -496.8506697488953705 [Eh]
	 Singles Energy            =      -0.0000000000000000 [Eh]
	 Same-Spin Energy          =      -0.4943764197449301 [Eh]
	 Opposite-Spin Energy      =      -1.5978859284240365 [Eh]
	 Correlation Energy        =      -2.0922623481689664 [Eh]
	 Total Energy              =    -498.9429320970643289 [Eh]

	 ================> DF-SCS-MP2 Energies <==================
	-----------------------------------------------------------
	 SCS Same-Spin Scale       =       0.3333333333333333 [-]
	 SCS Opposite-Spin Scale   =       1.2000000000000000 [-]
	 SCS Same-Spin Energy      =      -0.1647921399149767 [Eh]
	 SCS Opposite-Spin Energy  =      -1.9174631141088438 [Eh]
	 SCS Correlation Energy    =      -2.0822552540238206 [Eh]
	 SCS Total Energy          =    -498.9329250029192053 [Eh]
	-----------------------------------------------------------

  Dipole Moment: [D]
     X:     0.7486      Y:    -2.4843      Z:    -2.5019     Total:     3.6044

*** Psi4 exiting successfully. Buy a developer a beer!
