                               Psi4 1.4a3.dev225

  ==> Input File <==

--------------------------------------------------------------------------
#psi4
#
memory 32 gb

molecule  {
0 1
  O       -0.9795470    -0.0831330    -0.7231310
  O       -0.4899730     2.0087470     0.0897980
  O       -2.0025500    -0.0680990     1.3309880
  C        1.8485240    -0.5426110    -0.0314710
  C        1.1775215     0.5306515    -0.9047514
  C        1.7532090    -0.2607150     1.4674660
  C        3.2880220    -0.8256370    -0.4545800
  C       -0.1082690     0.9825120    -0.4201650
  C       -2.0345350    -0.3435730     0.1532740
  C       -3.1365800    -1.0497620    -0.5798680
  H        1.2371820    -1.4239180    -0.2609290
  H        1.9026850     1.5280430    -0.7082120
  H        1.2768590     0.3787260    -1.9135380
  H        2.3119230     0.6465730     1.7229020
  H        2.1770720    -1.0909040     2.0408530
  H        0.7169210    -0.1225920     1.7908070
  H        3.9287710     0.0354160    -0.2359390
  H        3.6876870    -1.6881060     0.0874480
  H        3.3559530    -1.0370340    -1.5265420
  H       -3.5589910    -0.3771620    -1.3307760
  H       -3.9066010    -1.3512680     0.1291360
  H       -2.7361560    -1.9219890    -1.1015230
units angstrom
no_reorient  #important for SAPT in psi4, default
symmetry c1  #important for SAPT in psi4, default
}

set PROPERTIES_ORIGIN ["COM"]
properties('MP2/aug-cc-pvtz', properties = ['dipole'])
--------------------------------------------------------------------------

    Molecular point group: c1
  Charge       = 0
  Multiplicity = 1
  Basis Set: AUG-CC-PVTZ
    Blend: AUG-CC-PVTZ
  Basis Set: (AUG-CC-PVTZ AUX)
    Blend: AUG-CC-PVTZ-JKFIT

    Orbital Energies [Eh]
    ---------------------

    Doubly Occupied:

       1A    -20.623829     2A    -20.569875     3A    -20.564332
       4A    -11.402648     5A    -11.400733     6A    -11.254947
       7A    -11.254169     8A    -11.249051     9A    -11.226697
      10A    -11.217700    11A     -1.487062    12A     -1.406799
      13A     -1.364786    14A     -1.117732    15A     -1.045014
      16A     -1.000279    17A     -0.939961    18A     -0.867633
      19A     -0.796508    20A     -0.743114    21A     -0.707698
      22A     -0.701356    23A     -0.684708    24A     -0.649860
      25A     -0.635192    26A     -0.622403    27A     -0.596853
      28A     -0.588370    29A     -0.570395    30A     -0.556137
      31A     -0.542958    32A     -0.531824    33A     -0.522069
      34A     -0.501851    35A     -0.489081    36A     -0.481846
      37A     -0.477141    38A     -0.451653    39A     -0.444800

  @DF-RHF Final Energy:  -496.83574409476728

   => Energetics <=

    Nuclear Repulsion Energy =            556.7244372272497230
    One-Electron Energy =               -1782.5422254108389097
    Two-Electron Energy =                 728.9820440888217945
    Total Energy =                       -496.8357440947672785
  Basis Set: (AUG-CC-PVTZ AUX)
    Blend: AUG-CC-PVTZ-RI
    Molecular point group: c1

    Geometry (in Angstrom), charge = 0, multiplicity = 1:

       Center              X                  Y                   Z               Mass
    ------------   -----------------  -----------------  -----------------  -----------------
         O           -0.898992936507    -0.118715616473    -0.727304084920    15.994914619570
         O           -0.409418936507     1.973164383527     0.085624915080    15.994914619570
         O           -1.921995936507    -0.103681616473     1.326814915080    15.994914619570
         C            1.929078063493    -0.578193616473    -0.035644084920    12.000000000000
         C            1.258075563493     0.495068883527    -0.908924484920    12.000000000000
         C            1.833763063493    -0.296297616473     1.463292915080    12.000000000000
         C            3.368576063493    -0.861219616473    -0.458753084920    12.000000000000
         C           -0.027714936507     0.946929383527    -0.424338084920    12.000000000000
         C           -1.953980936507    -0.379155616473     0.149100915080    12.000000000000
         C           -3.056025936507    -1.085344616473    -0.584041084920    12.000000000000
         H            1.317736063493    -1.459500616473    -0.265102084920     1.007825032230
         H            1.983239063493     1.492460383527    -0.712385084920     1.007825032230
         H            1.357413063493     0.343143383527    -1.917711084920     1.007825032230
         H            2.392477063493     0.610990383527     1.718728915080     1.007825032230
         H            2.257626063493    -1.126486616473     2.036679915080     1.007825032230
         H            0.797475063493    -0.158174616473     1.786633915080     1.007825032230
         H            4.009325063493    -0.000166616473    -0.240112084920     1.007825032230
         H            3.768241063493    -1.723688616473     0.083274915080     1.007825032230
         H            3.436507063493    -1.072616616473    -1.530715084920     1.007825032230
         H           -3.478436936507    -0.412744616473    -1.334949084920     1.007825032230
         H           -3.826046936507    -1.386850616473     0.124962915080     1.007825032230
         H           -2.655601936507    -1.957571616473    -1.105696084920     1.007825032230

  Basis Set: AUG-CC-PVTZ
    Blend: AUG-CC-PVTZ
  Basis Set: (AUG-CC-PVTZ AUX)
    Blend: AUG-CC-PVTZ-JKFIT
	 Reference Energy          =    -496.8357440947672785 [Eh]
	 Singles Energy            =      -0.0000000000000000 [Eh]
	 Same-Spin Energy          =      -0.4960856547586102 [Eh]
	 Opposite-Spin Energy      =      -1.6006360706000333 [Eh]
	 Correlation Energy        =      -2.0967217253586434 [Eh]
	 Total Energy              =    -498.9324658201259126 [Eh]

	 ================> DF-SCS-MP2 Energies <==================
	-----------------------------------------------------------
	 SCS Same-Spin Scale       =       0.3333333333333333 [-]
	 SCS Opposite-Spin Scale   =       1.2000000000000000 [-]
	 SCS Same-Spin Energy      =      -0.1653618849195367 [Eh]
	 SCS Opposite-Spin Energy  =      -1.9207632847200400 [Eh]
	 SCS Correlation Energy    =      -2.0861251696395766 [Eh]
	 SCS Total Energy          =    -498.9218692644068369 [Eh]
	-----------------------------------------------------------

  Dipole Moment: [D]
     X:     0.7931      Y:    -2.5670      Z:    -2.5485     Total:     3.7031

*** Psi4 exiting successfully. Buy a developer a beer!
