                               Psi4 1.4a3.dev225

  ==> Input File <==

--------------------------------------------------------------------------
#psi4
#
memory 32 gb

molecule  {
0 1
  O       -0.9795470    -0.0831330    -0.7231310
  O       -0.4899730     2.0087470     0.0897980
  O       -2.0025500    -0.0680990     1.3309880
  C        1.8485240    -0.5426110    -0.0314710
  C        1.2868380     0.6338010    -0.8471420
  C        1.7532090    -0.2607150     1.4674660
  C        3.2880220    -0.8256370    -0.4545800
  C       -0.1082690     0.9825120    -0.4201650
  C       -2.0345350    -0.3435730     0.1532740
  C       -3.1365800    -1.0497620    -0.5798680
  H        1.2483292    -1.4078483    -0.2567451
  H        1.9026850     1.5280430    -0.7082120
  H        1.2768590     0.3787260    -1.9135380
  H        2.3119230     0.6465730     1.7229020
  H        2.1770720    -1.0909040     2.0408530
  H        0.7169210    -0.1225920     1.7908070
  H        3.9287710     0.0354160    -0.2359390
  H        3.6876870    -1.6881060     0.0874480
  H        3.3559530    -1.0370340    -1.5265420
  H       -3.5589910    -0.3771620    -1.3307760
  H       -3.9066010    -1.3512680     0.1291360
  H       -2.7361560    -1.9219890    -1.1015230
units angstrom
no_reorient  #important for SAPT in psi4, default
symmetry c1  #important for SAPT in psi4, default
}

set PROPERTIES_ORIGIN ["COM"]
properties('MP2/aug-cc-pvtz', properties = ['dipole'])
--------------------------------------------------------------------------

    Molecular point group: c1
  Charge       = 0
  Multiplicity = 1
  Basis Set: AUG-CC-PVTZ
    Blend: AUG-CC-PVTZ
  Basis Set: (AUG-CC-PVTZ AUX)
    Blend: AUG-CC-PVTZ-JKFIT

    Orbital Energies [Eh]
    ---------------------

    Doubly Occupied:

       1A    -20.626761     2A    -20.564831     3A    -20.564567
       4A    -11.404125     5A    -11.398491     6A    -11.254940
       7A    -11.250422     8A    -11.243266     9A    -11.224454
      10A    -11.215375    11A     -1.485565    12A     -1.405150
      13A     -1.363519    14A     -1.114221    15A     -1.042973
      16A     -0.991184    17A     -0.938519    18A     -0.868208
      19A     -0.797058    20A     -0.739552    21A     -0.702276
      22A     -0.698510    23A     -0.682887    24A     -0.649343
      25A     -0.629216    26A     -0.620745    27A     -0.594324
      28A     -0.590100    29A     -0.570325    30A     -0.555469
      31A     -0.551358    32A     -0.539712    33A     -0.527387
      34A     -0.495688    35A     -0.487751    36A     -0.480502
      37A     -0.473777    38A     -0.472100    39A     -0.439541

  @DF-RHF Final Energy:  -496.86403961380046

   => Energetics <=

    Nuclear Repulsion Energy =            555.7376492356519293
    One-Electron Energy =               -1780.6949864945993340
    Two-Electron Energy =                 728.0932976451470040
    Total Energy =                       -496.8640396138005144
  Basis Set: (AUG-CC-PVTZ AUX)
    Blend: AUG-CC-PVTZ-RI
    Molecular point group: c1

    Geometry (in Angstrom), charge = 0, multiplicity = 1:

       Center              X                  Y                   Z               Mass
    ------------   -----------------  -----------------  -----------------  -----------------
         O           -0.908175646645    -0.127419123176    -0.732131514015    15.994914619570
         O           -0.418601646645     1.964460876824     0.080797485985    15.994914619570
         O           -1.931178646645    -0.112385123176     1.321987485985    15.994914619570
         C            1.919895353355    -0.586897123176    -0.040471514015    12.000000000000
         C            1.358209353355     0.589514876824    -0.856142514015    12.000000000000
         C            1.824580353355    -0.305001123176     1.458465485985    12.000000000000
         C            3.359393353355    -0.869923123176    -0.463580514015    12.000000000000
         C           -0.036897646645     0.938225876824    -0.429165514015    12.000000000000
         C           -1.963163646645    -0.387859123176     0.144273485985    12.000000000000
         C           -3.065208646645    -1.094048123176    -0.588868514015    12.000000000000
         H            1.319700553355    -1.452134423176    -0.265745614015     1.007825032230
         H            1.974056353355     1.483756876824    -0.717212514015     1.007825032230
         H            1.348230353355     0.334439876824    -1.922538514015     1.007825032230
         H            2.383294353355     0.602286876824     1.713901485985     1.007825032230
         H            2.248443353355    -1.135190123176     2.031852485985     1.007825032230
         H            0.788292353355    -0.166878123176     1.781806485985     1.007825032230
         H            4.000142353355    -0.008870123176    -0.244939514015     1.007825032230
         H            3.759058353355    -1.732392123176     0.078447485985     1.007825032230
         H            3.427324353355    -1.081320123176    -1.535542514015     1.007825032230
         H           -3.487619646645    -0.421448123176    -1.339776514015     1.007825032230
         H           -3.835229646645    -1.395554123176     0.120135485985     1.007825032230
         H           -2.664784646645    -1.966275123176    -1.110523514015     1.007825032230

  Basis Set: AUG-CC-PVTZ
    Blend: AUG-CC-PVTZ
  Basis Set: (AUG-CC-PVTZ AUX)
    Blend: AUG-CC-PVTZ-JKFIT
	 Reference Energy          =    -496.8640396138004576 [Eh]
	 Singles Energy            =      -0.0000000000000000 [Eh]
	 Same-Spin Energy          =      -0.4945925976003000 [Eh]
	 Opposite-Spin Energy      =      -1.5976758821546817 [Eh]
	 Correlation Energy        =      -2.0922684797549818 [Eh]
	 Total Energy              =    -498.9563080935554353 [Eh]

	 ================> DF-SCS-MP2 Energies <==================
	-----------------------------------------------------------
	 SCS Same-Spin Scale       =       0.3333333333333333 [-]
	 SCS Opposite-Spin Scale   =       1.2000000000000000 [-]
	 SCS Same-Spin Energy      =      -0.1648641992001000 [Eh]
	 SCS Opposite-Spin Energy  =      -1.9172110585856179 [Eh]
	 SCS Correlation Energy    =      -2.0820752577857178 [Eh]
	 SCS Total Energy          =    -498.9461148715861896 [Eh]
	-----------------------------------------------------------

  Dipole Moment: [D]
     X:     0.7799      Y:    -2.5061      Z:    -2.5432     Total:     3.6546

*** Psi4 exiting successfully. Buy a developer a beer!
