                               Psi4 1.4a3.dev225

  ==> Input File <==

--------------------------------------------------------------------------
#psi4
#
memory 32 gb

molecule  {
0 1
  O       -0.9795470    -0.0831330    -0.7231310
  O       -0.4899730     2.0087470     0.0897980
  O       -2.0025500    -0.0680990     1.3309880
  C        1.8485240    -0.5426110    -0.0314710
  C        1.2868380     0.6338010    -0.8471420
  C        1.7532090    -0.2607150     1.4674660
  C        3.2880220    -0.8256370    -0.4545800
  C       -0.0152667     0.9592658    -0.4486287
  C       -2.0345350    -0.3435730     0.1532740
  C       -3.1365800    -1.0497620    -0.5798680
  H        1.2371820    -1.4239180    -0.2609290
  H        1.9026850     1.5280430    -0.7082120
  H        1.2768590     0.3787260    -1.9135380
  H        2.3119230     0.6465730     1.7229020
  H        2.1770720    -1.0909040     2.0408530
  H        0.7169210    -0.1225920     1.7908070
  H        3.9287710     0.0354160    -0.2359390
  H        3.6876870    -1.6881060     0.0874480
  H        3.3559530    -1.0370340    -1.5265420
  H       -3.5589910    -0.3771620    -1.3307760
  H       -3.9066010    -1.3512680     0.1291360
  H       -2.7361560    -1.9219890    -1.1015230
units angstrom
no_reorient  #important for SAPT in psi4, default
symmetry c1  #important for SAPT in psi4, default
}

set PROPERTIES_ORIGIN ["COM"]
properties('MP2/aug-cc-pvtz', properties = ['dipole'])
--------------------------------------------------------------------------

    Molecular point group: c1
  Charge       = 0
  Multiplicity = 1
  Basis Set: AUG-CC-PVTZ
    Blend: AUG-CC-PVTZ
  Basis Set: (AUG-CC-PVTZ AUX)
    Blend: AUG-CC-PVTZ-JKFIT

    Orbital Energies [Eh]
    ---------------------

    Doubly Occupied:

       1A    -20.619513     2A    -20.561337     3A    -20.558485
       4A    -11.408030     5A    -11.399722     6A    -11.254305
       7A    -11.253677     8A    -11.252074     9A    -11.229601
      10A    -11.219157    11A     -1.467649    12A     -1.385291
      13A     -1.335347    14A     -1.131946    15A     -1.041299
      16A     -1.012189    17A     -0.943280    18A     -0.861474
      19A     -0.804968    20A     -0.734394    21A     -0.696837
      22A     -0.695323    23A     -0.672274    24A     -0.655793
      25A     -0.628057    26A     -0.622173    27A     -0.590841
      28A     -0.586132    29A     -0.568501    30A     -0.557078
      31A     -0.553368    32A     -0.542290    33A     -0.516874
      34A     -0.495303    35A     -0.489063    36A     -0.482895
      37A     -0.468662    38A     -0.460823    39A     -0.443279

  @DF-RHF Final Energy:  -496.84014530644623

   => Energetics <=

    Nuclear Repulsion Energy =            555.1861769257219521
    One-Electron Energy =               -1779.6540345497787712
    Two-Electron Energy =                 727.6277123176105306
    Total Energy =                       -496.8401453064461748
  Basis Set: (AUG-CC-PVTZ AUX)
    Blend: AUG-CC-PVTZ-RI
    Molecular point group: c1

    Geometry (in Angstrom), charge = 0, multiplicity = 1:

       Center              X                  Y                   Z               Mass
    ------------   -----------------  -----------------  -----------------  -----------------
         O           -0.915843633657    -0.125370590255    -0.729731567507    15.994914619570
         O           -0.426269633657     1.966509409745     0.083197432493    15.994914619570
         O           -1.938846633657    -0.110336590255     1.324387432493    15.994914619570
         C            1.912227366343    -0.584848590255    -0.038071567507    12.000000000000
         C            1.350541366343     0.591563409745    -0.853742567507    12.000000000000
         C            1.816912366343    -0.302952590255     1.460865432493    12.000000000000
         C            3.351725366343    -0.867874590255    -0.461180567507    12.000000000000
         C            0.048436666343     0.917028209745    -0.455229267507    12.000000000000
         C           -1.970831633657    -0.385810590255     0.146673432493    12.000000000000
         C           -3.072876633657    -1.091999590255    -0.586468567507    12.000000000000
         H            1.300885366343    -1.466155590255    -0.267529567507     1.007825032230
         H            1.966388366343     1.485805409745    -0.714812567507     1.007825032230
         H            1.340562366343     0.336488409745    -1.920138567507     1.007825032230
         H            2.375626366343     0.604335409745     1.716301432493     1.007825032230
         H            2.240775366343    -1.133141590255     2.034252432493     1.007825032230
         H            0.780624366343    -0.164829590255     1.784206432493     1.007825032230
         H            3.992474366343    -0.006821590255    -0.242539567507     1.007825032230
         H            3.751390366343    -1.730343590255     0.080847432493     1.007825032230
         H            3.419656366343    -1.079271590255    -1.533142567507     1.007825032230
         H           -3.495287633657    -0.419399590255    -1.337376567507     1.007825032230
         H           -3.842897633657    -1.393505590255     0.122535432493     1.007825032230
         H           -2.672452633657    -1.964226590255    -1.108123567507     1.007825032230

  Basis Set: AUG-CC-PVTZ
    Blend: AUG-CC-PVTZ
  Basis Set: (AUG-CC-PVTZ AUX)
    Blend: AUG-CC-PVTZ-JKFIT
	 Reference Energy          =    -496.8401453064462316 [Eh]
	 Singles Energy            =      -0.0000000000000000 [Eh]
	 Same-Spin Energy          =      -0.4977532866797447 [Eh]
	 Opposite-Spin Energy      =      -1.6035704379447426 [Eh]
	 Correlation Energy        =      -2.1013237246244874 [Eh]
	 Total Energy              =    -498.9414690310707101 [Eh]

	 ================> DF-SCS-MP2 Energies <==================
	-----------------------------------------------------------
	 SCS Same-Spin Scale       =       0.3333333333333333 [-]
	 SCS Opposite-Spin Scale   =       1.2000000000000000 [-]
	 SCS Same-Spin Energy      =      -0.1659177622265816 [Eh]
	 SCS Opposite-Spin Energy  =      -1.9242845255336911 [Eh]
	 SCS Correlation Energy    =      -2.0902022877602726 [Eh]
	 SCS Total Energy          =    -498.9303475942065234 [Eh]
	-----------------------------------------------------------

  Dipole Moment: [D]
     X:     1.4336      Y:    -2.6160      Z:    -2.6533     Total:     3.9923

*** Psi4 exiting successfully. Buy a developer a beer!
