                               Psi4 1.4a3.dev225

  ==> Input File <==

--------------------------------------------------------------------------
#psi4
#
memory 32 gb

molecule  {
0 1
  O       -0.9795470    -0.0831330    -0.7231310
  O       -0.4899730     2.0087470     0.0897980
  O       -2.0025500    -0.0680990     1.3309880
  C        1.8485240    -0.5426110    -0.0314710
  C        1.2137863     0.7868027    -0.9532265
  C        1.7532090    -0.2607150     1.4674660
  C        3.2880220    -0.8256370    -0.4545800
  C       -0.1082690     0.9825120    -0.4201650
  C       -2.0345350    -0.3435730     0.1532740
  C       -3.1365800    -1.0497620    -0.5798680
  H        1.2371820    -1.4239180    -0.2609290
  H        1.9026850     1.5280430    -0.7082120
  H        1.2768590     0.3787260    -1.9135380
  H        2.3119230     0.6465730     1.7229020
  H        2.1770720    -1.0909040     2.0408530
  H        0.7169210    -0.1225920     1.7908070
  H        3.9287710     0.0354160    -0.2359390
  H        3.6876870    -1.6881060     0.0874480
  H        3.3559530    -1.0370340    -1.5265420
  H       -3.5589910    -0.3771620    -1.3307760
  H       -3.9066010    -1.3512680     0.1291360
  H       -2.7361560    -1.9219890    -1.1015230
units angstrom
no_reorient  #important for SAPT in psi4, default
symmetry c1  #important for SAPT in psi4, default
}

set PROPERTIES_ORIGIN ["COM"]
properties('MP2/aug-cc-pvtz', properties = ['dipole'])
--------------------------------------------------------------------------

    Molecular point group: c1
  Charge       = 0
  Multiplicity = 1
  Basis Set: AUG-CC-PVTZ
    Blend: AUG-CC-PVTZ
  Basis Set: (AUG-CC-PVTZ AUX)
    Blend: AUG-CC-PVTZ-JKFIT

    Orbital Energies [Eh]
    ---------------------

    Doubly Occupied:

       1A    -20.627502     2A    -20.563996     3A    -20.555786
       4A    -11.403554     5A    -11.393994     6A    -11.259968
       7A    -11.254686     8A    -11.244190     9A    -11.227354
      10A    -11.217528    11A     -1.484668    12A     -1.402923
      13A     -1.361540    14A     -1.098404    15A     -1.043261
      16A     -1.003115    17A     -0.939188    18A     -0.866501
      19A     -0.789233    20A     -0.740180    21A     -0.707064
      22A     -0.700809    23A     -0.681140    24A     -0.648166
      25A     -0.630060    26A     -0.617551    27A     -0.596912
      28A     -0.589712    29A     -0.579662    30A     -0.566643
      31A     -0.556165    32A     -0.542451    33A     -0.525935
      34A     -0.492680    35A     -0.486866    36A     -0.479152
      37A     -0.475048    38A     -0.453965    39A     -0.419871

  @DF-RHF Final Energy:  -496.83889740967965

   => Energetics <=

    Nuclear Repulsion Energy =            554.1024419190449635
    One-Electron Energy =               -1777.4278326513303909
    Two-Electron Energy =                 726.4864933226058383
    Total Energy =                       -496.8388974096797028
  Basis Set: (AUG-CC-PVTZ AUX)
    Blend: AUG-CC-PVTZ-RI
    Molecular point group: c1

    Geometry (in Angstrom), charge = 0, multiplicity = 1:

       Center              X                  Y                   Z               Mass
    ------------   -----------------  -----------------  -----------------  -----------------
         O           -0.902013353601    -0.140049898289    -0.723266698234    15.994914619570
         O           -0.412439353601     1.951830101711     0.089662301766    15.994914619570
         O           -1.925016353601    -0.125015898289     1.330852301766    15.994914619570
         C            1.926057646399    -0.599527898289    -0.031606698234    12.000000000000
         C            1.291319946399     0.729885801711    -0.953362198234    12.000000000000
         C            1.830742646399    -0.317631898289     1.467330301766    12.000000000000
         C            3.365555646399    -0.882553898289    -0.454715698234    12.000000000000
         C           -0.030735353601     0.925595101711    -0.420300698234    12.000000000000
         C           -1.957001353601    -0.400489898289     0.153138301766    12.000000000000
         C           -3.059046353601    -1.106678898289    -0.580003698234    12.000000000000
         H            1.314715646399    -1.480834898289    -0.261064698234     1.007825032230
         H            1.980218646399     1.471126101711    -0.708347698234     1.007825032230
         H            1.354392646399     0.321809101711    -1.913673698234     1.007825032230
         H            2.389456646399     0.589656101711     1.722766301766     1.007825032230
         H            2.254605646399    -1.147820898289     2.040717301766     1.007825032230
         H            0.794454646399    -0.179508898289     1.790671301766     1.007825032230
         H            4.006304646399    -0.021500898289    -0.236074698234     1.007825032230
         H            3.765220646399    -1.745022898289     0.087312301766     1.007825032230
         H            3.433486646399    -1.093950898289    -1.526677698234     1.007825032230
         H           -3.481457353601    -0.434078898289    -1.330911698234     1.007825032230
         H           -3.829067353601    -1.408184898289     0.129000301766     1.007825032230
         H           -2.658622353601    -1.978905898289    -1.101658698234     1.007825032230

  Basis Set: AUG-CC-PVTZ
    Blend: AUG-CC-PVTZ
  Basis Set: (AUG-CC-PVTZ AUX)
    Blend: AUG-CC-PVTZ-JKFIT
	 Reference Energy          =    -496.8388974096796460 [Eh]
	 Singles Energy            =      -0.0000000000000000 [Eh]
	 Same-Spin Energy          =      -0.4951197632439593 [Eh]
	 Opposite-Spin Energy      =      -1.5991642458321125 [Eh]
	 Correlation Energy        =      -2.0942840090760719 [Eh]
	 Total Energy              =    -498.9331814187557370 [Eh]

	 ================> DF-SCS-MP2 Energies <==================
	-----------------------------------------------------------
	 SCS Same-Spin Scale       =       0.3333333333333333 [-]
	 SCS Opposite-Spin Scale   =       1.2000000000000000 [-]
	 SCS Same-Spin Energy      =      -0.1650399210813198 [Eh]
	 SCS Opposite-Spin Energy  =      -1.9189970949985349 [Eh]
	 SCS Correlation Energy    =      -2.0840370160798547 [Eh]
	 SCS Total Energy          =    -498.9229344257594789 [Eh]
	-----------------------------------------------------------

  Dipole Moment: [D]
     X:     1.0404      Y:    -2.6835      Z:    -2.5286     Total:     3.8312

*** Psi4 exiting successfully. Buy a developer a beer!
