                               Psi4 1.4a3.dev225

  ==> Input File <==

--------------------------------------------------------------------------
#psi4
#
memory 32 gb

molecule  {
0 1
  O       -0.9795470    -0.0831330    -0.7231310
  O       -0.4899730     2.0087470     0.0897980
  O       -2.0025500    -0.0680990     1.3309880
  C        1.8485240    -0.5426110    -0.0314710
  C        1.2868380     0.6338010    -0.8471420
  C        1.7532090    -0.2607150     1.4674660
  C        3.2880220    -0.8256370    -0.4545800
  C       -0.1082690     0.9825120    -0.4201650
  C       -2.0345350    -0.3435730     0.1532740
  C       -3.1365800    -1.0497620    -0.5798680
  H        1.2371820    -1.4239180    -0.2609290
  H        1.9026850     1.5280430    -0.7082120
  H        1.2764040     0.3670949    -1.9621642
  H        2.3119230     0.6465730     1.7229020
  H        2.1770720    -1.0909040     2.0408530
  H        0.7169210    -0.1225920     1.7908070
  H        3.9287710     0.0354160    -0.2359390
  H        3.6876870    -1.6881060     0.0874480
  H        3.3559530    -1.0370340    -1.5265420
  H       -3.5589910    -0.3771620    -1.3307760
  H       -3.9066010    -1.3512680     0.1291360
  H       -2.7361560    -1.9219890    -1.1015230
units angstrom
no_reorient  #important for SAPT in psi4, default
symmetry c1  #important for SAPT in psi4, default
}

set PROPERTIES_ORIGIN ["COM"]
properties('MP2/aug-cc-pvtz', properties = ['dipole'])
--------------------------------------------------------------------------

    Molecular point group: c1
  Charge       = 0
  Multiplicity = 1
  Basis Set: AUG-CC-PVTZ
    Blend: AUG-CC-PVTZ
  Basis Set: (AUG-CC-PVTZ AUX)
    Blend: AUG-CC-PVTZ-JKFIT

    Orbital Energies [Eh]
    ---------------------

    Doubly Occupied:

       1A    -20.626654     2A    -20.564927     3A    -20.564780
       4A    -11.404055     5A    -11.398959     6A    -11.256346
       7A    -11.254880     8A    -11.246135     9A    -11.224619
      10A    -11.215980    11A     -1.485543    12A     -1.405300
      13A     -1.363568    14A     -1.112738    15A     -1.042852
      16A     -0.989353    17A     -0.938691    18A     -0.867504
      19A     -0.794662    20A     -0.738870    21A     -0.702133
      22A     -0.696686    23A     -0.682843    24A     -0.645373
      25A     -0.628012    26A     -0.620957    27A     -0.594208
      28A     -0.590083    29A     -0.569250    30A     -0.555626
      31A     -0.550377    32A     -0.539285    33A     -0.527415
      34A     -0.495798    35A     -0.487334    36A     -0.479380
      37A     -0.472449    38A     -0.471517    39A     -0.439762

  @DF-RHF Final Energy:  -496.86176416013626

   => Energetics <=

    Nuclear Repulsion Energy =            555.3911237690939515
    One-Electron Energy =               -1780.0159642397043172
    Two-Electron Energy =                 727.7630763104739344
    Total Energy =                       -496.8617641601363175
  Basis Set: (AUG-CC-PVTZ AUX)
    Blend: AUG-CC-PVTZ-RI
    Molecular point group: c1

    Geometry (in Angstrom), charge = 0, multiplicity = 1:

       Center              X                  Y                   Z               Mass
    ------------   -----------------  -----------------  -----------------  -----------------
         O           -0.908094489665    -0.127225357057    -0.731762109229    15.994914619570
         O           -0.418520489665     1.964654642943     0.081166890771    15.994914619570
         O           -1.931097489665    -0.112191357057     1.322356890771    15.994914619570
         C            1.919976510335    -0.586703357057    -0.040102109229    12.000000000000
         C            1.358290510335     0.589708642943    -0.855773109229    12.000000000000
         C            1.824661510335    -0.304807357057     1.458834890771    12.000000000000
         C            3.359474510335    -0.869729357057    -0.463211109229    12.000000000000
         C           -0.036816489665     0.938419642943    -0.428796109229    12.000000000000
         C           -1.963082489665    -0.387665357057     0.144642890771    12.000000000000
         C           -3.065127489665    -1.093854357057    -0.588499109229    12.000000000000
         H            1.308634510335    -1.468010357057    -0.269560109229     1.007825032230
         H            1.974137510335     1.483950642943    -0.716843109229     1.007825032230
         H            1.347856510335     0.323002542943    -1.970795309229     1.007825032230
         H            2.383375510335     0.602480642943     1.714270890771     1.007825032230
         H            2.248524510335    -1.134996357057     2.032221890771     1.007825032230
         H            0.788373510335    -0.166684357057     1.782175890771     1.007825032230
         H            4.000223510335    -0.008676357057    -0.244570109229     1.007825032230
         H            3.759139510335    -1.732198357057     0.078816890771     1.007825032230
         H            3.427405510335    -1.081126357057    -1.535173109229     1.007825032230
         H           -3.487538489665    -0.421254357057    -1.339407109229     1.007825032230
         H           -3.835148489665    -1.395360357057     0.120504890771     1.007825032230
         H           -2.664703489665    -1.966081357057    -1.110154109229     1.007825032230

  Basis Set: AUG-CC-PVTZ
    Blend: AUG-CC-PVTZ
  Basis Set: (AUG-CC-PVTZ AUX)
    Blend: AUG-CC-PVTZ-JKFIT
	 Reference Energy          =    -496.8617641601362607 [Eh]
	 Singles Energy            =      -0.0000000000000000 [Eh]
	 Same-Spin Energy          =      -0.4946660828048122 [Eh]
	 Opposite-Spin Energy      =      -1.5982012002345907 [Eh]
	 Correlation Energy        =      -2.0928672830394026 [Eh]
	 Total Energy              =    -498.9546314431756855 [Eh]

	 ================> DF-SCS-MP2 Energies <==================
	-----------------------------------------------------------
	 SCS Same-Spin Scale       =       0.3333333333333333 [-]
	 SCS Opposite-Spin Scale   =       1.2000000000000000 [-]
	 SCS Same-Spin Energy      =      -0.1648886942682707 [Eh]
	 SCS Opposite-Spin Energy  =      -1.9178414402815087 [Eh]
	 SCS Correlation Energy    =      -2.0827301345497795 [Eh]
	 SCS Total Energy          =    -498.9444942946860237 [Eh]
	-----------------------------------------------------------

  Dipole Moment: [D]
     X:     0.7867      Y:    -2.4985      Z:    -2.5212     Total:     3.6356

*** Psi4 exiting successfully. Buy a developer a beer!
