                               Psi4 1.4a3.dev225

  ==> Input File <==

--------------------------------------------------------------------------
#psi4
#
memory 32 gb

molecule  {
0 1
  O       -0.9795470    -0.0831330    -0.7231310
  O       -0.4899730     2.0087470     0.0897980
  O       -2.0025500    -0.0680990     1.3309880
  C        1.8509054    -0.4208707    -0.1349873
  C        1.2868380     0.6338010    -0.8471420
  C        1.7532090    -0.2607150     1.4674660
  C        3.2880220    -0.8256370    -0.4545800
  C       -0.1082690     0.9825120    -0.4201650
  C       -2.0345350    -0.3435730     0.1532740
  C       -3.1365800    -1.0497620    -0.5798680
  H        1.2371820    -1.4239180    -0.2609290
  H        1.9026850     1.5280430    -0.7082120
  H        1.2768590     0.3787260    -1.9135380
  H        2.3119230     0.6465730     1.7229020
  H        2.1770720    -1.0909040     2.0408530
  H        0.7169210    -0.1225920     1.7908070
  H        3.9287710     0.0354160    -0.2359390
  H        3.6876870    -1.6881060     0.0874480
  H        3.3559530    -1.0370340    -1.5265420
  H       -3.5589910    -0.3771620    -1.3307760
  H       -3.9066010    -1.3512680     0.1291360
  H       -2.7361560    -1.9219890    -1.1015230
units angstrom
no_reorient  #important for SAPT in psi4, default
symmetry c1  #important for SAPT in psi4, default
}

set PROPERTIES_ORIGIN ["COM"]
properties('MP2/aug-cc-pvtz', properties = ['dipole'])
--------------------------------------------------------------------------

    Molecular point group: c1
  Charge       = 0
  Multiplicity = 1
  Basis Set: AUG-CC-PVTZ
    Blend: AUG-CC-PVTZ
  Basis Set: (AUG-CC-PVTZ AUX)
    Blend: AUG-CC-PVTZ-JKFIT

    Orbital Energies [Eh]
    ---------------------

    Doubly Occupied:

       1A    -20.628255     2A    -20.568662     3A    -20.565393
       4A    -11.404833     5A    -11.403039     6A    -11.255283
       7A    -11.248974     8A    -11.247797     9A    -11.226241
      10A    -11.217898    11A     -1.487294    12A     -1.407313
      13A     -1.365286    14A     -1.132320    15A     -1.042725
      16A     -0.991909    17A     -0.931324    18A     -0.877596
      19A     -0.791607    20A     -0.740587    21A     -0.706572
      22A     -0.701954    23A     -0.683703    24A     -0.654427
      25A     -0.633893    26A     -0.621988    27A     -0.594015
      28A     -0.590365    29A     -0.570160    30A     -0.557439
      31A     -0.554128    32A     -0.539372    33A     -0.530664
      34A     -0.517856    35A     -0.487214    36A     -0.479618
      37A     -0.467517    38A     -0.443202    39A     -0.432108

  @DF-RHF Final Energy:  -496.83532644658328

   => Energetics <=

    Nuclear Repulsion Energy =            556.6441818399031263
    One-Electron Energy =               -1782.3579592684482122
    Two-Electron Energy =                 728.8784509819619188
    Total Energy =                       -496.8353264465832808
  Basis Set: (AUG-CC-PVTZ AUX)
    Blend: AUG-CC-PVTZ-RI
    Molecular point group: c1

    Geometry (in Angstrom), charge = 0, multiplicity = 1:

       Center              X                  Y                   Z               Mass
    ------------   -----------------  -----------------  -----------------  -----------------
         O           -0.908296014052    -0.137446203606    -0.723480598081    15.994914619570
         O           -0.418722014052     1.954433796394     0.089448401919    15.994914619570
         O           -1.931299014052    -0.122412203606     1.330638401919    15.994914619570
         C            1.922156385948    -0.475183903606    -0.135336898081    12.000000000000
         C            1.358088985948     0.579487796394    -0.847491598081    12.000000000000
         C            1.824459985948    -0.315028203606     1.467116401919    12.000000000000
         C            3.359272985948    -0.879950203606    -0.454929598081    12.000000000000
         C           -0.037018014052     0.928198796394    -0.420514598081    12.000000000000
         C           -1.963284014052    -0.397886203606     0.152924401919    12.000000000000
         C           -3.065329014052    -1.104075203606    -0.580217598081    12.000000000000
         H            1.308432985948    -1.478231203606    -0.261278598081     1.007825032230
         H            1.973935985948     1.473729796394    -0.708561598081     1.007825032230
         H            1.348109985948     0.324412796394    -1.913887598081     1.007825032230
         H            2.383173985948     0.592259796394     1.722552401919     1.007825032230
         H            2.248322985948    -1.145217203606     2.040503401919     1.007825032230
         H            0.788171985948    -0.176905203606     1.790457401919     1.007825032230
         H            4.000021985948    -0.018897203606    -0.236288598081     1.007825032230
         H            3.758937985948    -1.742419203606     0.087098401919     1.007825032230
         H            3.427203985948    -1.091347203606    -1.526891598081     1.007825032230
         H           -3.487740014052    -0.431475203606    -1.331125598081     1.007825032230
         H           -3.835350014052    -1.405581203606     0.128786401919     1.007825032230
         H           -2.664905014052    -1.976302203606    -1.101872598081     1.007825032230

  Basis Set: AUG-CC-PVTZ
    Blend: AUG-CC-PVTZ
  Basis Set: (AUG-CC-PVTZ AUX)
    Blend: AUG-CC-PVTZ-JKFIT
	 Reference Energy          =    -496.8353264465832808 [Eh]
	 Singles Energy            =      -0.0000000000000000 [Eh]
	 Same-Spin Energy          =      -0.4959911518575174 [Eh]
	 Opposite-Spin Energy      =      -1.6003768679710508 [Eh]
	 Correlation Energy        =      -2.0963680198285681 [Eh]
	 Total Energy              =    -498.9316944664118409 [Eh]

	 ================> DF-SCS-MP2 Energies <==================
	-----------------------------------------------------------
	 SCS Same-Spin Scale       =       0.3333333333333333 [-]
	 SCS Opposite-Spin Scale   =       1.2000000000000000 [-]
	 SCS Same-Spin Energy      =      -0.1653303839525058 [Eh]
	 SCS Opposite-Spin Energy  =      -1.9204522415652610 [Eh]
	 SCS Correlation Energy    =      -2.0857826255177669 [Eh]
	 SCS Total Energy          =    -498.9211090721010464 [Eh]
	-----------------------------------------------------------

  Dipole Moment: [D]
     X:     0.6841      Y:    -2.4077      Z:    -2.5885     Total:     3.6007

*** Psi4 exiting successfully. Buy a developer a beer!
