                               Psi4 1.4a3.dev225

  ==> Input File <==

--------------------------------------------------------------------------
#psi4
#
memory 32 gb

molecule  {
0 1
  O       -0.9795470    -0.0831330    -0.7231310
  O       -0.4899730     2.0087470     0.0897980
  O       -2.0025500    -0.0680990     1.3309880
  C        1.8485240    -0.5426110    -0.0314710
  C        1.2868380     0.6338010    -0.8471420
  C        1.7532090    -0.2607150     1.4674660
  C        3.2880220    -0.8256370    -0.4545800
  C       -0.1082690     0.9825120    -0.4201650
  C       -2.0345350    -0.3435730     0.1532740
  C       -3.1365800    -1.0497620    -0.5798680
  H        1.2371820    -1.4239180    -0.2609290
  H        1.9026850     1.5280430    -0.7082120
  H        1.2768590     0.3787260    -1.9135380
  H        2.3119230     0.6465730     1.7229020
  H        2.1770720    -1.0909040     2.0408530
  H        0.7169210    -0.1225920     1.7908070
  H        3.9287710     0.0354160    -0.2359390
  H        3.6511628    -1.6092876     0.0379137
  H        3.3559530    -1.0370340    -1.5265420
  H       -3.5589910    -0.3771620    -1.3307760
  H       -3.9066010    -1.3512680     0.1291360
  H       -2.7361560    -1.9219890    -1.1015230
units angstrom
no_reorient  #important for SAPT in psi4, default
symmetry c1  #important for SAPT in psi4, default
}

set PROPERTIES_ORIGIN ["COM"]
properties('MP2/aug-cc-pvtz', properties = ['dipole'])
--------------------------------------------------------------------------

    Molecular point group: c1
  Charge       = 0
  Multiplicity = 1
  Basis Set: AUG-CC-PVTZ
    Blend: AUG-CC-PVTZ
  Basis Set: (AUG-CC-PVTZ AUX)
    Blend: AUG-CC-PVTZ-JKFIT

    Orbital Energies [Eh]
    ---------------------

    Doubly Occupied:

       1A    -20.626347     2A    -20.564570     3A    -20.564148
       4A    -11.403859     5A    -11.397955     6A    -11.254739
       7A    -11.249811     8A    -11.244918     9A    -11.215580
      10A    -11.212121    11A     -1.485187    12A     -1.404822
      13A     -1.363166    14A     -1.114141    15A     -1.043081
      16A     -0.993856    17A     -0.943882    18A     -0.869084
      19A     -0.797155    20A     -0.739118    21A     -0.702258
      22A     -0.698658    23A     -0.682527    24A     -0.649426
      25A     -0.629905    26A     -0.621147    27A     -0.596669
      28A     -0.590258    29A     -0.571245    30A     -0.558290
      31A     -0.551564    32A     -0.547259    33A     -0.527118
      34A     -0.495292    35A     -0.487340    36A     -0.479612
      37A     -0.473405    38A     -0.471679    39A     -0.439551

  @DF-RHF Final Energy:  -496.85796073720184

   => Energetics <=

    Nuclear Repulsion Energy =            556.1234005354574492
    One-Electron Energy =               -1781.4412432169497151
    Two-Electron Energy =                 728.4598819442903732
    Total Energy =                       -496.8579607372018927
  Basis Set: (AUG-CC-PVTZ AUX)
    Blend: AUG-CC-PVTZ-RI
    Molecular point group: c1

    Geometry (in Angstrom), charge = 0, multiplicity = 1:

       Center              X                  Y                   Z               Mass
    ------------   -----------------  -----------------  -----------------  -----------------
         O           -0.907842186884    -0.127858048118    -0.731755757101    15.994914619570
         O           -0.418268186884     1.964021951882     0.081173242899    15.994914619570
         O           -1.930845186884    -0.112824048118     1.322363242899    15.994914619570
         C            1.920228813116    -0.587336048118    -0.040095757101    12.000000000000
         C            1.358542813116     0.589075951882    -0.855766757101    12.000000000000
         C            1.824913813116    -0.305440048118     1.458841242899    12.000000000000
         C            3.359726813116    -0.870362048118    -0.463204757101    12.000000000000
         C           -0.036564186884     0.937786951882    -0.428789757101    12.000000000000
         C           -1.962830186884    -0.388298048118     0.144649242899    12.000000000000
         C           -3.064875186884    -1.094487048118    -0.588492757101    12.000000000000
         H            1.308886813116    -1.468643048118    -0.269553757101     1.007825032230
         H            1.974389813116     1.483317951882    -0.716836757101     1.007825032230
         H            1.348563813116     0.334000951882    -1.922162757101     1.007825032230
         H            2.383627813116     0.601847951882     1.714277242899     1.007825032230
         H            2.248776813116    -1.135629048118     2.032228242899     1.007825032230
         H            0.788625813116    -0.167317048118     1.782182242899     1.007825032230
         H            4.000475813116    -0.009309048118    -0.244563757101     1.007825032230
         H            3.722867613116    -1.654012648118     0.029288942899     1.007825032230
         H            3.427657813116    -1.081759048118    -1.535166757101     1.007825032230
         H           -3.487286186884    -0.421887048118    -1.339400757101     1.007825032230
         H           -3.834896186884    -1.395993048118     0.120511242899     1.007825032230
         H           -2.664451186884    -1.966714048118    -1.110147757101     1.007825032230

  Basis Set: AUG-CC-PVTZ
    Blend: AUG-CC-PVTZ
  Basis Set: (AUG-CC-PVTZ AUX)
    Blend: AUG-CC-PVTZ-JKFIT
	 Reference Energy          =    -496.8579607372018359 [Eh]
	 Singles Energy            =      -0.0000000000000000 [Eh]
	 Same-Spin Energy          =      -0.4946346384141796 [Eh]
	 Opposite-Spin Energy      =      -1.5973095833837248 [Eh]
	 Correlation Energy        =      -2.0919442217979043 [Eh]
	 Total Energy              =    -498.9499049589997526 [Eh]

	 ================> DF-SCS-MP2 Energies <==================
	-----------------------------------------------------------
	 SCS Same-Spin Scale       =       0.3333333333333333 [-]
	 SCS Opposite-Spin Scale   =       1.2000000000000000 [-]
	 SCS Same-Spin Energy      =      -0.1648782128047265 [Eh]
	 SCS Opposite-Spin Energy  =      -1.9167715000604697 [Eh]
	 SCS Correlation Energy    =      -2.0816497128651963 [Eh]
	 SCS Total Energy          =    -498.9396104500670504 [Eh]
	-----------------------------------------------------------

  Dipole Moment: [D]
     X:     0.8284      Y:    -2.5397      Z:    -2.5224     Total:     3.6741

*** Psi4 exiting successfully. Buy a developer a beer!
