                               Psi4 1.4a3.dev225

  ==> Input File <==

--------------------------------------------------------------------------
#psi4
#
memory 32 gb

molecule  {
0 1
  O       -0.9795470    -0.0831330    -0.7231310
  O       -0.4899730     2.0087470     0.0897980
  O       -2.0025500    -0.0680990     1.3309880
  C        1.8485240    -0.5426110    -0.0314710
  C        1.2868380     0.6338010    -0.8471420
  C        1.7532090    -0.2607150     1.4674660
  C        3.2880220    -0.8256370    -0.4545800
  C       -0.1082690     0.9825120    -0.4201650
  C       -2.0345350    -0.3435730     0.1532740
  C       -3.1365800    -1.0497620    -0.5798680
  H        1.2371820    -1.4239180    -0.2609290
  H        1.9026850     1.5280430    -0.7082120
  H        1.2750389     0.3322017    -2.1080429
  H        2.3119230     0.6465730     1.7229020
  H        2.1770720    -1.0909040     2.0408530
  H        0.7169210    -0.1225920     1.7908070
  H        3.9287710     0.0354160    -0.2359390
  H        3.6876870    -1.6881060     0.0874480
  H        3.3559530    -1.0370340    -1.5265420
  H       -3.5589910    -0.3771620    -1.3307760
  H       -3.9066010    -1.3512680     0.1291360
  H       -2.7361560    -1.9219890    -1.1015230
units angstrom
no_reorient  #important for SAPT in psi4, default
symmetry c1  #important for SAPT in psi4, default
}

set PROPERTIES_ORIGIN ["COM"]
properties('MP2/aug-cc-pvtz', properties = ['dipole'])
--------------------------------------------------------------------------

    Molecular point group: c1
  Charge       = 0
  Multiplicity = 1
  Basis Set: AUG-CC-PVTZ
    Blend: AUG-CC-PVTZ
  Basis Set: (AUG-CC-PVTZ AUX)
    Blend: AUG-CC-PVTZ-JKFIT

    Orbital Energies [Eh]
    ---------------------

    Doubly Occupied:

       1A    -20.626690     2A    -20.566229     3A    -20.564865
       4A    -11.404078     5A    -11.400579     6A    -11.272225
       7A    -11.254867     8A    -11.247585     9A    -11.224644
      10A    -11.217503    11A     -1.485775    12A     -1.405963
      13A     -1.363960    14A     -1.111442    15A     -1.042852
      16A     -0.985829    17A     -0.939017    18A     -0.866299
      19A     -0.795189    20A     -0.738041    21A     -0.702468
      22A     -0.693940    23A     -0.683156    24A     -0.639881
      25A     -0.622930    26A     -0.621183    27A     -0.594022
      28A     -0.590283    29A     -0.567069    30A     -0.556439
      31A     -0.547337    32A     -0.536162    33A     -0.527389
      34A     -0.495729    35A     -0.487917    36A     -0.479120
      37A     -0.472436    38A     -0.465609    39A     -0.440385

  @DF-RHF Final Energy:  -496.84364331998086

   => Energetics <=

    Nuclear Repulsion Energy =            554.6936634694287704
    One-Electron Energy =               -1778.6004358376537766
    Two-Electron Energy =                 727.0631290482442637
    Total Energy =                       -496.8436433199808562
  Basis Set: (AUG-CC-PVTZ AUX)
    Blend: AUG-CC-PVTZ-RI
    Molecular point group: c1

    Geometry (in Angstrom), charge = 0, multiplicity = 1:

       Center              X                  Y                   Z               Mass
    ------------   -----------------  -----------------  -----------------  -----------------
         O           -0.908084940839    -0.126981280355    -0.730741692870    15.994914619570
         O           -0.418510940839     1.964898719645     0.082187307130    15.994914619570
         O           -1.931087940839    -0.111947280355     1.323377307130    15.994914619570
         C            1.919986059161    -0.586459280355    -0.039081692870    12.000000000000
         C            1.358300059161     0.589952719645    -0.854752692870    12.000000000000
         C            1.824671059161    -0.304563280355     1.459855307130    12.000000000000
         C            3.359484059161    -0.869485280355    -0.462190692870    12.000000000000
         C           -0.036806940839     0.938663719645    -0.427775692870    12.000000000000
         C           -1.963072940839    -0.387421280355     0.145663307130    12.000000000000
         C           -3.065117940839    -1.093610280355    -0.587478692870    12.000000000000
         H            1.308644059161    -1.467766280355    -0.268539692870     1.007825032230
         H            1.974147059161     1.484194719645    -0.715822692870     1.007825032230
         H            1.346500959161     0.288353419645    -2.115653592870     1.007825032230
         H            2.383385059161     0.602724719645     1.715291307130     1.007825032230
         H            2.248534059161    -1.134752280355     2.033242307130     1.007825032230
         H            0.788383059161    -0.166440280355     1.783196307130     1.007825032230
         H            4.000233059161    -0.008432280355    -0.243549692870     1.007825032230
         H            3.759149059161    -1.731954280355     0.079837307130     1.007825032230
         H            3.427415059161    -1.080882280355    -1.534152692870     1.007825032230
         H           -3.487528940839    -0.421010280355    -1.338386692870     1.007825032230
         H           -3.835138940839    -1.395116280355     0.121525307130     1.007825032230
         H           -2.664693940839    -1.965837280355    -1.109133692870     1.007825032230

  Basis Set: AUG-CC-PVTZ
    Blend: AUG-CC-PVTZ
  Basis Set: (AUG-CC-PVTZ AUX)
    Blend: AUG-CC-PVTZ-JKFIT
	 Reference Energy          =    -496.8436433199808562 [Eh]
	 Singles Energy            =      -0.0000000000000000 [Eh]
	 Same-Spin Energy          =      -0.4948547784830648 [Eh]
	 Opposite-Spin Energy      =      -1.5996507104606930 [Eh]
	 Correlation Energy        =      -2.0945054889437578 [Eh]
	 Total Energy              =    -498.9381488089246091 [Eh]

	 ================> DF-SCS-MP2 Energies <==================
	-----------------------------------------------------------
	 SCS Same-Spin Scale       =       0.3333333333333333 [-]
	 SCS Opposite-Spin Scale   =       1.2000000000000000 [-]
	 SCS Same-Spin Energy      =      -0.1649515928276883 [Eh]
	 SCS Opposite-Spin Energy  =      -1.9195808525528315 [Eh]
	 SCS Correlation Energy    =      -2.0845324453805198 [Eh]
	 SCS Total Energy          =    -498.9281757653614022 [Eh]
	-----------------------------------------------------------

  Dipole Moment: [D]
     X:     0.7844      Y:    -2.5028      Z:    -2.4409     Total:     3.5830

*** Psi4 exiting successfully. Buy a developer a beer!
