                               Psi4 1.4a3.dev225

  ==> Input File <==

--------------------------------------------------------------------------
#psi4
#
memory 32 gb

molecule  {
0 1
  O       -0.9795470    -0.0831330    -0.7231310
  O       -0.4899730     2.0087470     0.0897980
  O       -2.0025500    -0.0680990     1.3309880
  C        1.8079380    -0.5656518    -0.1843235
  C        1.2868380     0.6338010    -0.8471420
  C        1.7532090    -0.2607150     1.4674660
  C        3.2880220    -0.8256370    -0.4545800
  C       -0.1082690     0.9825120    -0.4201650
  C       -2.0345350    -0.3435730     0.1532740
  C       -3.1365800    -1.0497620    -0.5798680
  H        1.2371820    -1.4239180    -0.2609290
  H        1.9026850     1.5280430    -0.7082120
  H        1.2768590     0.3787260    -1.9135380
  H        2.3119230     0.6465730     1.7229020
  H        2.1770720    -1.0909040     2.0408530
  H        0.7169210    -0.1225920     1.7908070
  H        3.9287710     0.0354160    -0.2359390
  H        3.6876870    -1.6881060     0.0874480
  H        3.3559530    -1.0370340    -1.5265420
  H       -3.5589910    -0.3771620    -1.3307760
  H       -3.9066010    -1.3512680     0.1291360
  H       -2.7361560    -1.9219890    -1.1015230
units angstrom
no_reorient  #important for SAPT in psi4, default
symmetry c1  #important for SAPT in psi4, default
}

set PROPERTIES_ORIGIN ["COM"]
properties('MP2/aug-cc-pvtz', properties = ['dipole'])
--------------------------------------------------------------------------

    Molecular point group: c1
  Charge       = 0
  Multiplicity = 1
  Basis Set: AUG-CC-PVTZ
    Blend: AUG-CC-PVTZ
  Basis Set: (AUG-CC-PVTZ AUX)
    Blend: AUG-CC-PVTZ-JKFIT

    Orbital Energies [Eh]
    ---------------------

    Doubly Occupied:

       1A    -20.627896     2A    -20.566446     3A    -20.565259
       4A    -11.404623     5A    -11.400898     6A    -11.255414
       7A    -11.250944     8A    -11.244275     9A    -11.225787
      10A    -11.216824    11A     -1.486730    12A     -1.406205
      13A     -1.364612    14A     -1.117641    15A     -1.042386
      16A     -0.988882    17A     -0.923852    18A     -0.872417
      19A     -0.808242    20A     -0.741107    21A     -0.707154
      22A     -0.700901    23A     -0.683708    24A     -0.647636
      25A     -0.631305    26A     -0.617861    27A     -0.592418
      28A     -0.591024    29A     -0.566459    30A     -0.559582
      31A     -0.553138    32A     -0.538171    33A     -0.527465
      34A     -0.508778    35A     -0.499311    36A     -0.480722
      37A     -0.477824    38A     -0.447657    39A     -0.422480

  @DF-RHF Final Energy:  -496.84205989848141

   => Energetics <=

    Nuclear Repulsion Energy =            555.5437007659330675
    One-Electron Energy =               -1780.2434562576713688
    Two-Electron Energy =                 727.8576955932569490
    Total Energy =                       -496.8420598984814660
  Basis Set: (AUG-CC-PVTZ AUX)
    Blend: AUG-CC-PVTZ-RI
    Molecular point group: c1

    Geometry (in Angstrom), charge = 0, multiplicity = 1:

       Center              X                  Y                   Z               Mass
    ------------   -----------------  -----------------  -----------------  -----------------
         O           -0.904717351838    -0.125387697579    -0.719371492231    15.994914619570
         O           -0.415143351838     1.966492302421     0.093557507769    15.994914619570
         O           -1.927720351838    -0.110353697579     1.334747507769    15.994914619570
         C            1.882767648162    -0.607906497579    -0.180563992231    12.000000000000
         C            1.361667648162     0.591546302421    -0.843382492231    12.000000000000
         C            1.828038648162    -0.302969697579     1.471225507769    12.000000000000
         C            3.362851648162    -0.867891697579    -0.450820492231    12.000000000000
         C           -0.033439351838     0.940257302421    -0.416405492231    12.000000000000
         C           -1.959705351838    -0.385827697579     0.157033507769    12.000000000000
         C           -3.061750351838    -1.092016697579    -0.576108492231    12.000000000000
         H            1.312011648162    -1.466172697579    -0.257169492231     1.007825032230
         H            1.977514648162     1.485788302421    -0.704452492231     1.007825032230
         H            1.351688648162     0.336471302421    -1.909778492231     1.007825032230
         H            2.386752648162     0.604318302421     1.726661507769     1.007825032230
         H            2.251901648162    -1.133158697579     2.044612507769     1.007825032230
         H            0.791750648162    -0.164846697579     1.794566507769     1.007825032230
         H            4.003600648162    -0.006838697579    -0.232179492231     1.007825032230
         H            3.762516648162    -1.730360697579     0.091207507769     1.007825032230
         H            3.430782648162    -1.079288697579    -1.522782492231     1.007825032230
         H           -3.484161351838    -0.419416697579    -1.327016492231     1.007825032230
         H           -3.831771351838    -1.393522697579     0.132895507769     1.007825032230
         H           -2.661326351838    -1.964243697579    -1.097763492231     1.007825032230

  Basis Set: AUG-CC-PVTZ
    Blend: AUG-CC-PVTZ
  Basis Set: (AUG-CC-PVTZ AUX)
    Blend: AUG-CC-PVTZ-JKFIT
	 Reference Energy          =    -496.8420598984814092 [Eh]
	 Singles Energy            =      -0.0000000000000000 [Eh]
	 Same-Spin Energy          =      -0.4950524315221401 [Eh]
	 Opposite-Spin Energy      =      -1.5992300865169300 [Eh]
	 Correlation Energy        =      -2.0942825180390701 [Eh]
	 Total Energy              =    -498.9363424165204606 [Eh]

	 ================> DF-SCS-MP2 Energies <==================
	-----------------------------------------------------------
	 SCS Same-Spin Scale       =       0.3333333333333333 [-]
	 SCS Opposite-Spin Scale   =       1.2000000000000000 [-]
	 SCS Same-Spin Energy      =      -0.1650174771740467 [Eh]
	 SCS Opposite-Spin Energy  =      -1.9190761038203159 [Eh]
	 SCS Correlation Energy    =      -2.0840935809943626 [Eh]
	 SCS Total Energy          =    -498.9261534794757722 [Eh]
	-----------------------------------------------------------

  Dipole Moment: [D]
     X:     0.7334      Y:    -2.4753      Z:    -2.6282     Total:     3.6841

*** Psi4 exiting successfully. Buy a developer a beer!
