                               Psi4 1.4a3.dev225

  ==> Input File <==

--------------------------------------------------------------------------
#psi4
#
memory 32 gb

molecule  {
0 1
  O       -0.9795470    -0.0831330    -0.7231310
  O       -0.4899730     2.0087470     0.0897980
  O       -2.0025500    -0.0680990     1.3309880
  C        1.8485240    -0.5426110    -0.0314710
  C        1.2868380     0.6338010    -0.8471420
  C        1.7532090    -0.2607150     1.4674660
  C        3.2880220    -0.8256370    -0.4545800
  C       -0.1082690     0.9825120    -0.4201650
  C       -2.0345350    -0.3435730     0.1532740
  C       -3.1365800    -1.0497620    -0.5798680
  H        1.2371820    -1.4239180    -0.2609290
  H        1.9026850     1.5280430    -0.7082120
  H        1.2768590     0.3787260    -1.9135380
  H        2.3119230     0.6465730     1.7229020
  H        2.1770720    -1.0909040     2.0408530
  H        0.7169210    -0.1225920     1.7908070
  H        3.9287710     0.0354160    -0.2359390
  H        3.6876870    -1.6881060     0.0874480
  H        3.3559530    -1.0370340    -1.5265420
  H       -3.5778741    -0.3298983    -1.2739433
  H       -3.9066010    -1.3512680     0.1291360
  H       -2.7361560    -1.9219890    -1.1015230
units angstrom
no_reorient  #important for SAPT in psi4, default
symmetry c1  #important for SAPT in psi4, default
}

set PROPERTIES_ORIGIN ["COM"]
properties('MP2/aug-cc-pvtz', properties = ['dipole'])
--------------------------------------------------------------------------

    Molecular point group: c1
  Charge       = 0
  Multiplicity = 1
  Basis Set: AUG-CC-PVTZ
    Blend: AUG-CC-PVTZ
  Basis Set: (AUG-CC-PVTZ AUX)
    Blend: AUG-CC-PVTZ-JKFIT

    Orbital Energies [Eh]
    ---------------------

    Doubly Occupied:

       1A    -20.626724     2A    -20.564619     3A    -20.564296
       4A    -11.403552     5A    -11.398532     6A    -11.254989
       7A    -11.250630     8A    -11.245748     9A    -11.224632
      10A    -11.215562    11A     -1.485468    12A     -1.404983
      13A     -1.363367    14A     -1.113645    15A     -1.043246
      16A     -0.991239    17A     -0.938661    18A     -0.868080
      19A     -0.794616    20A     -0.739046    21A     -0.701012
      22A     -0.698176    23A     -0.682813    24A     -0.648394
      25A     -0.631453    26A     -0.620169    27A     -0.595572
      28A     -0.588205    29A     -0.571314    30A     -0.554841
      31A     -0.551543    32A     -0.539805    33A     -0.528099
      34A     -0.495845    35A     -0.487178    36A     -0.479457
      37A     -0.473338    38A     -0.471117    39A     -0.439265

  @DF-RHF Final Energy:  -496.86352360109640

   => Energetics <=

    Nuclear Repulsion Energy =            555.6879605961804600
    One-Electron Energy =               -1780.6045090853153852
    Two-Electron Energy =                 728.0530248880386353
    Total Energy =                       -496.8635236010964036
  Basis Set: (AUG-CC-PVTZ AUX)
    Blend: AUG-CC-PVTZ-RI
    Molecular point group: c1

    Geometry (in Angstrom), charge = 0, multiplicity = 1:

       Center              X                  Y                   Z               Mass
    ------------   -----------------  -----------------  -----------------  -----------------
         O           -0.907965585756    -0.127637324105    -0.732499790513    15.994914619570
         O           -0.418391585756     1.964242675895     0.080429209487    15.994914619570
         O           -1.930968585756    -0.112603324105     1.321619209487    15.994914619570
         C            1.920105414244    -0.587115324105    -0.040839790513    12.000000000000
         C            1.358419414244     0.589296675895    -0.856510790513    12.000000000000
         C            1.824790414244    -0.305219324105     1.458097209487    12.000000000000
         C            3.359603414244    -0.870141324105    -0.463948790513    12.000000000000
         C           -0.036687585756     0.938007675895    -0.429533790513    12.000000000000
         C           -1.962953585756    -0.388077324105     0.143905209487    12.000000000000
         C           -3.064998585756    -1.094266324105    -0.589236790513    12.000000000000
         H            1.308763414244    -1.468422324105    -0.270297790513     1.007825032230
         H            1.974266414244     1.483538675895    -0.717580790513     1.007825032230
         H            1.348440414244     0.334221675895    -1.922906790513     1.007825032230
         H            2.383504414244     0.602068675895     1.713533209487     1.007825032230
         H            2.248653414244    -1.135408324105     2.031484209487     1.007825032230
         H            0.788502414244    -0.167096324105     1.781438209487     1.007825032230
         H            4.000352414244    -0.009088324105    -0.245307790513     1.007825032230
         H            3.759268414244    -1.732610324105     0.078079209487     1.007825032230
         H            3.427534414244    -1.081538324105    -1.535910790513     1.007825032230
         H           -3.506292685756    -0.374402624105    -1.283312090513     1.007825032230
         H           -3.835019585756    -1.395772324105     0.119767209487     1.007825032230
         H           -2.664574585756    -1.966493324105    -1.110891790513     1.007825032230

  Basis Set: AUG-CC-PVTZ
    Blend: AUG-CC-PVTZ
  Basis Set: (AUG-CC-PVTZ AUX)
    Blend: AUG-CC-PVTZ-JKFIT
	 Reference Energy          =    -496.8635236010964036 [Eh]
	 Singles Energy            =      -0.0000000000000000 [Eh]
	 Same-Spin Energy          =      -0.4946163628447097 [Eh]
	 Opposite-Spin Energy      =      -1.5978479113670496 [Eh]
	 Correlation Energy        =      -2.0924642742117592 [Eh]
	 Total Energy              =    -498.9559878753081534 [Eh]

	 ================> DF-SCS-MP2 Energies <==================
	-----------------------------------------------------------
	 SCS Same-Spin Scale       =       0.3333333333333333 [-]
	 SCS Opposite-Spin Scale   =       1.2000000000000000 [-]
	 SCS Same-Spin Energy      =      -0.1648721209482366 [Eh]
	 SCS Opposite-Spin Energy  =      -1.9174174936404595 [Eh]
	 SCS Correlation Energy    =      -2.0822896145886962 [Eh]
	 SCS Total Energy          =    -498.9458132156851207 [Eh]
	-----------------------------------------------------------

  Dipole Moment: [D]
     X:     0.7789      Y:    -2.4818      Z:    -2.5138     Total:     3.6173

*** Psi4 exiting successfully. Buy a developer a beer!
