                               Psi4 1.4a3.dev225

  ==> Input File <==

--------------------------------------------------------------------------
#psi4
#
memory 32 gb

molecule  {
0 1
  O       -0.9795470    -0.0831330    -0.7231310
  O       -0.4899730     2.0087470     0.0897980
  O       -2.0025500    -0.0680990     1.3309880
  C        1.8485240    -0.5426110    -0.0314710
  C        1.2868380     0.6338010    -0.8471420
  C        1.7532090    -0.2607150     1.4674660
  C        3.2880220    -0.8256370    -0.4545800
  C       -0.1082690     0.9825120    -0.4201650
  C       -2.0345350    -0.3435730     0.1532740
  C       -3.1365800    -1.0497620    -0.5798680
  H        1.2371820    -1.4239180    -0.2609290
  H        1.9026850     1.5280430    -0.7082120
  H        1.2768590     0.3787260    -1.9135380
  H        2.3119230     0.6465730     1.7229020
  H        2.1770720    -1.0909040     2.0408530
  H        0.7169210    -0.1225920     1.7908070
  H        3.9287710     0.0354160    -0.2359390
  H        3.7242112    -1.7669244     0.1369823
  H        3.3559530    -1.0370340    -1.5265420
  H       -3.5589910    -0.3771620    -1.3307760
  H       -3.9066010    -1.3512680     0.1291360
  H       -2.7361560    -1.9219890    -1.1015230
units angstrom
no_reorient  #important for SAPT in psi4, default
symmetry c1  #important for SAPT in psi4, default
}

set PROPERTIES_ORIGIN ["COM"]
properties('MP2/aug-cc-pvtz', properties = ['dipole'])
--------------------------------------------------------------------------

    Molecular point group: c1
  Charge       = 0
  Multiplicity = 1
  Basis Set: AUG-CC-PVTZ
    Blend: AUG-CC-PVTZ
  Basis Set: (AUG-CC-PVTZ AUX)
    Blend: AUG-CC-PVTZ-JKFIT

    Orbital Energies [Eh]
    ---------------------

    Doubly Occupied:

       1A    -20.627119     2A    -20.565200     3A    -20.565062
       4A    -11.404365     5A    -11.399248     6A    -11.255107
       7A    -11.251691     8A    -11.246816     9A    -11.236585
      10A    -11.215620    11A     -1.485946    12A     -1.405570
      13A     -1.363909    14A     -1.113747    15A     -1.042931
      16A     -0.989860    17A     -0.935012    18A     -0.867609
      19A     -0.792955    20A     -0.739833    21A     -0.702210
      22A     -0.698372    23A     -0.683224    24A     -0.648511
      25A     -0.629070    26A     -0.620709    27A     -0.593418
      28A     -0.589728    29A     -0.570152    30A     -0.555376
      31A     -0.552119    32A     -0.527754    33A     -0.527493
      34A     -0.496616    35A     -0.486983    36A     -0.479604
      37A     -0.474313    38A     -0.470314    39A     -0.439485

  @DF-RHF Final Energy:  -496.85746087945614

   => Energetics <=

    Nuclear Repulsion Energy =            555.2214060919412759
    One-Electron Energy =               -1779.6584629097083052
    Two-Electron Energy =                 727.5795959383107174
    Total Energy =                       -496.8574608794561982
  Basis Set: (AUG-CC-PVTZ AUX)
    Blend: AUG-CC-PVTZ-RI
    Molecular point group: c1

    Geometry (in Angstrom), charge = 0, multiplicity = 1:

       Center              X                  Y                   Z               Mass
    ------------   -----------------  -----------------  -----------------  -----------------
         O           -0.908353157864    -0.126755384265    -0.732448738462    15.994914619570
         O           -0.418779157864     1.965124615735     0.080480261538    15.994914619570
         O           -1.931356157864    -0.111721384265     1.321670261538    15.994914619570
         C            1.919717842136    -0.586233384265    -0.040788738462    12.000000000000
         C            1.358031842136     0.590178615735    -0.856459738462    12.000000000000
         C            1.824402842136    -0.304337384265     1.458148261538    12.000000000000
         C            3.359215842136    -0.869259384265    -0.463897738462    12.000000000000
         C           -0.037075157864     0.938889615735    -0.429482738462    12.000000000000
         C           -1.963341157864    -0.387195384265     0.143956261538    12.000000000000
         C           -3.065386157864    -1.093384384265    -0.589185738462    12.000000000000
         H            1.308375842136    -1.467540384265    -0.270246738462     1.007825032230
         H            1.973878842136     1.484420615735    -0.717529738462     1.007825032230
         H            1.348052842136     0.335103615735    -1.922855738462     1.007825032230
         H            2.383116842136     0.602950615735     1.713584261538     1.007825032230
         H            2.248265842136    -1.134526384265     2.031535261538     1.007825032230
         H            0.788114842136    -0.166214384265     1.781489261538     1.007825032230
         H            3.999964842136    -0.008206384265    -0.245256738462     1.007825032230
         H            3.795405042136    -1.810546784265     0.127664561538     1.007825032230
         H            3.427146842136    -1.080656384265    -1.535859738462     1.007825032230
         H           -3.487797157864    -0.420784384265    -1.340093738462     1.007825032230
         H           -3.835407157864    -1.394890384265     0.119818261538     1.007825032230
         H           -2.664962157864    -1.965611384265    -1.110840738462     1.007825032230

  Basis Set: AUG-CC-PVTZ
    Blend: AUG-CC-PVTZ
  Basis Set: (AUG-CC-PVTZ AUX)
    Blend: AUG-CC-PVTZ-JKFIT
	 Reference Energy          =    -496.8574608794561414 [Eh]
	 Singles Energy            =      -0.0000000000000000 [Eh]
	 Same-Spin Energy          =      -0.4946122427950925 [Eh]
	 Opposite-Spin Energy      =      -1.5985550169083567 [Eh]
	 Correlation Energy        =      -2.0931672597034492 [Eh]
	 Total Energy              =    -498.9506281391595621 [Eh]

	 ================> DF-SCS-MP2 Energies <==================
	-----------------------------------------------------------
	 SCS Same-Spin Scale       =       0.3333333333333333 [-]
	 SCS Opposite-Spin Scale   =       1.2000000000000000 [-]
	 SCS Same-Spin Energy      =      -0.1648707475983642 [Eh]
	 SCS Opposite-Spin Energy  =      -1.9182660202900279 [Eh]
	 SCS Correlation Energy    =      -2.0831367678883921 [Eh]
	 SCS Total Energy          =    -498.9405976473445321 [Eh]
	-----------------------------------------------------------

  Dipole Moment: [D]
     X:     0.7336      Y:    -2.4407      Z:    -2.5651     Total:     3.6159

*** Psi4 exiting successfully. Buy a developer a beer!
