                               Psi4 1.4a3.dev225

  ==> Input File <==

--------------------------------------------------------------------------
#psi4
#
memory 32 gb

molecule  {
0 1
  O       -0.9795470    -0.0831330    -0.7231310
  O       -0.4899730     2.0087470     0.0897980
  O       -2.0025500    -0.0680990     1.3309880
  C        1.8485240    -0.5426110    -0.0314710
  C        1.2868380     0.6338010    -0.8471420
  C        1.7532090    -0.2607150     1.4674660
  C        3.3823008    -0.8441736    -0.4822912
  C       -0.1082690     0.9825120    -0.4201650
  C       -2.0345350    -0.3435730     0.1532740
  C       -3.1365800    -1.0497620    -0.5798680
  H        1.2371820    -1.4239180    -0.2609290
  H        1.9026850     1.5280430    -0.7082120
  H        1.2768590     0.3787260    -1.9135380
  H        2.3119230     0.6465730     1.7229020
  H        2.1770720    -1.0909040     2.0408530
  H        0.7169210    -0.1225920     1.7908070
  H        3.9287710     0.0354160    -0.2359390
  H        3.6876870    -1.6881060     0.0874480
  H        3.3559530    -1.0370340    -1.5265420
  H       -3.5589910    -0.3771620    -1.3307760
  H       -3.9066010    -1.3512680     0.1291360
  H       -2.7361560    -1.9219890    -1.1015230
units angstrom
no_reorient  #important for SAPT in psi4, default
symmetry c1  #important for SAPT in psi4, default
}

set PROPERTIES_ORIGIN ["COM"]
properties('MP2/aug-cc-pvtz', properties = ['dipole'])
--------------------------------------------------------------------------

    Molecular point group: c1
  Charge       = 0
  Multiplicity = 1
  Basis Set: AUG-CC-PVTZ
    Blend: AUG-CC-PVTZ
  Basis Set: (AUG-CC-PVTZ AUX)
    Blend: AUG-CC-PVTZ-JKFIT

    Orbital Energies [Eh]
    ---------------------

    Doubly Occupied:

       1A    -20.626492     2A    -20.564636     3A    -20.564400
       4A    -11.403933     5A    -11.398344     6A    -11.254796
       7A    -11.250476     8A    -11.249367     9A    -11.221694
      10A    -11.215417    11A     -1.485325    12A     -1.404972
      13A     -1.363307    14A     -1.105384    15A     -1.041630
      16A     -0.988125    17A     -0.940377    18A     -0.868637
      19A     -0.794125    20A     -0.739085    21A     -0.701572
      22A     -0.697774    23A     -0.682064    24A     -0.646467
      25A     -0.628585    26A     -0.619258    27A     -0.596392
      28A     -0.590329    29A     -0.571290    30A     -0.560024
      31A     -0.553945    32A     -0.548451    33A     -0.527607
      34A     -0.490502    35A     -0.487108    36A     -0.480002
      37A     -0.473253    38A     -0.466111    39A     -0.433660

  @DF-RHF Final Energy:  -496.85673907222485

   => Energetics <=

    Nuclear Repulsion Energy =            553.9278016498274155
    One-Electron Energy =               -1777.0992470427038370
    Two-Electron Energy =                 726.3147063206515668
    Total Energy =                       -496.8567390722248547
  Basis Set: (AUG-CC-PVTZ AUX)
    Blend: AUG-CC-PVTZ-RI
    Molecular point group: c1

    Geometry (in Angstrom), charge = 0, multiplicity = 1:

       Center              X                  Y                   Z               Mass
    ------------   -----------------  -----------------  -----------------  -----------------
         O           -0.915949950593    -0.125762842697    -0.729794241611    15.994914619570
         O           -0.426375950593     1.966117157303     0.083134758389    15.994914619570
         O           -1.938952950593    -0.110728842697     1.324324758389    15.994914619570
         C            1.912121049407    -0.585240842697    -0.038134241611    12.000000000000
         C            1.350435049407     0.591171157303    -0.853805241611    12.000000000000
         C            1.816806049407    -0.303344842697     1.460802758389    12.000000000000
         C            3.445897849407    -0.886803442697    -0.488954441611    12.000000000000
         C           -0.044671950593     0.939882157303    -0.426828241611    12.000000000000
         C           -1.970937950593    -0.386202842697     0.146610758389    12.000000000000
         C           -3.072982950593    -1.092391842697    -0.586531241611    12.000000000000
         H            1.300779049407    -1.466547842697    -0.267592241611     1.007825032230
         H            1.966282049407     1.485413157303    -0.714875241611     1.007825032230
         H            1.340456049407     0.336096157303    -1.920201241611     1.007825032230
         H            2.375520049407     0.603943157303     1.716238758389     1.007825032230
         H            2.240669049407    -1.133533842697     2.034189758389     1.007825032230
         H            0.780518049407    -0.165221842697     1.784143758389     1.007825032230
         H            3.992368049407    -0.007213842697    -0.242602241611     1.007825032230
         H            3.751284049407    -1.730735842697     0.080784758389     1.007825032230
         H            3.419550049407    -1.079663842697    -1.533205241611     1.007825032230
         H           -3.495393950593    -0.419791842697    -1.337439241611     1.007825032230
         H           -3.843003950593    -1.393897842697     0.122472758389     1.007825032230
         H           -2.672558950593    -1.964618842697    -1.108186241611     1.007825032230

  Basis Set: AUG-CC-PVTZ
    Blend: AUG-CC-PVTZ
  Basis Set: (AUG-CC-PVTZ AUX)
    Blend: AUG-CC-PVTZ-JKFIT
	 Reference Energy          =    -496.8567390722248547 [Eh]
	 Singles Energy            =      -0.0000000000000000 [Eh]
	 Same-Spin Energy          =      -0.4942896985394128 [Eh]
	 Opposite-Spin Energy      =      -1.5978666684425069 [Eh]
	 Correlation Energy        =      -2.0921563669819196 [Eh]
	 Total Energy              =    -498.9488954392067512 [Eh]

	 ================> DF-SCS-MP2 Energies <==================
	-----------------------------------------------------------
	 SCS Same-Spin Scale       =       0.3333333333333333 [-]
	 SCS Opposite-Spin Scale   =       1.2000000000000000 [-]
	 SCS Same-Spin Energy      =      -0.1647632328464709 [Eh]
	 SCS Opposite-Spin Energy  =      -1.9174400021310083 [Eh]
	 SCS Correlation Energy    =      -2.0822032349774791 [Eh]
	 SCS Total Energy          =    -498.9389423072023533 [Eh]
	-----------------------------------------------------------

  Dipole Moment: [D]
     X:     0.7698      Y:    -2.4902      Z:    -2.5340     Total:     3.6352

*** Psi4 exiting successfully. Buy a developer a beer!
