                               Psi4 1.4a3.dev225

  ==> Input File <==

--------------------------------------------------------------------------
#psi4
#
memory 32 gb

molecule  {
0 1
  O       -0.9795470    -0.0831330    -0.7231310
  O       -0.4899730     2.0087470     0.0897980
  O       -2.0025500    -0.0680990     1.3309880
  C        1.8485240    -0.5426110    -0.0314710
  C        1.2868380     0.6338010    -0.8471420
  C        1.7532090    -0.2607150     1.4674660
  C        3.1937432    -0.8071004    -0.4268688
  C       -0.1082690     0.9825120    -0.4201650
  C       -2.0345350    -0.3435730     0.1532740
  C       -3.1365800    -1.0497620    -0.5798680
  H        1.2371820    -1.4239180    -0.2609290
  H        1.9026850     1.5280430    -0.7082120
  H        1.2768590     0.3787260    -1.9135380
  H        2.3119230     0.6465730     1.7229020
  H        2.1770720    -1.0909040     2.0408530
  H        0.7169210    -0.1225920     1.7908070
  H        3.9287710     0.0354160    -0.2359390
  H        3.6876870    -1.6881060     0.0874480
  H        3.3559530    -1.0370340    -1.5265420
  H       -3.5589910    -0.3771620    -1.3307760
  H       -3.9066010    -1.3512680     0.1291360
  H       -2.7361560    -1.9219890    -1.1015230
units angstrom
no_reorient  #important for SAPT in psi4, default
symmetry c1  #important for SAPT in psi4, default
}

set PROPERTIES_ORIGIN ["COM"]
properties('MP2/aug-cc-pvtz', properties = ['dipole'])
--------------------------------------------------------------------------

    Molecular point group: c1
  Charge       = 0
  Multiplicity = 1
  Basis Set: AUG-CC-PVTZ
    Blend: AUG-CC-PVTZ
  Basis Set: (AUG-CC-PVTZ AUX)
    Blend: AUG-CC-PVTZ-JKFIT

    Orbital Energies [Eh]
    ---------------------

    Doubly Occupied:

       1A    -20.627018     2A    -20.565045     3A    -20.564989
       4A    -11.404336     5A    -11.398860     6A    -11.255087
       7A    -11.251309     8A    -11.241270     9A    -11.230407
      10A    -11.216241    11A     -1.485852    12A     -1.405464
      13A     -1.363813    14A     -1.126139    15A     -1.044519
      16A     -0.995156    17A     -0.938209    18A     -0.867668
      19A     -0.794357    20A     -0.739966    21A     -0.703067
      22A     -0.699200    23A     -0.684009    24A     -0.652491
      25A     -0.630647    26A     -0.624230    27A     -0.594144
      28A     -0.590220    29A     -0.574048    30A     -0.555943
      31A     -0.549514    32A     -0.530046    33A     -0.527335
      34A     -0.507592    35A     -0.485556    36A     -0.477086
      37A     -0.467884    38A     -0.467567    39A     -0.440727

  @DF-RHF Final Energy:  -496.85230168615794

   => Energetics <=

    Nuclear Repulsion Energy =            557.4769989717482304
    One-Electron Energy =               -1784.1045764292352942
    Two-Electron Energy =                 729.7752757713290066
    Total Energy =                       -496.8523016861579435
  Basis Set: (AUG-CC-PVTZ AUX)
    Blend: AUG-CC-PVTZ-RI
    Molecular point group: c1

    Geometry (in Angstrom), charge = 0, multiplicity = 1:

       Center              X                  Y                   Z               Mass
    ------------   -----------------  -----------------  -----------------  -----------------
         O           -0.900245394155    -0.128850589686    -0.734410253953    15.994914619570
         O           -0.410671394155     1.963029410314     0.078518746047    15.994914619570
         O           -1.923248394155    -0.113816589686     1.319708746047    15.994914619570
         C            1.927825605845    -0.588328589686    -0.042750253953    12.000000000000
         C            1.366139605845     0.588083410314    -0.858421253953    12.000000000000
         C            1.832510605845    -0.306432589686     1.456186746047    12.000000000000
         C            3.273044805845    -0.852817989686    -0.438148053953    12.000000000000
         C           -0.028967394155     0.936794410314    -0.431444253953    12.000000000000
         C           -1.955233394155    -0.389290589686     0.141994746047    12.000000000000
         C           -3.057278394155    -1.095479589686    -0.591147253953    12.000000000000
         H            1.316483605845    -1.469635589686    -0.272208253953     1.007825032230
         H            1.981986605845     1.482325410314    -0.719491253953     1.007825032230
         H            1.356160605845     0.333008410314    -1.924817253953     1.007825032230
         H            2.391224605845     0.600855410314     1.711622746047     1.007825032230
         H            2.256373605845    -1.136621589686     2.029573746047     1.007825032230
         H            0.796222605845    -0.168309589686     1.779527746047     1.007825032230
         H            4.008072605845    -0.010301589686    -0.247218253953     1.007825032230
         H            3.766988605845    -1.733823589686     0.076168746047     1.007825032230
         H            3.435254605845    -1.082751589686    -1.537821253953     1.007825032230
         H           -3.479689394155    -0.422879589686    -1.342055253953     1.007825032230
         H           -3.827299394155    -1.396985589686     0.117856746047     1.007825032230
         H           -2.656854394155    -1.967706589686    -1.112802253953     1.007825032230

  Basis Set: AUG-CC-PVTZ
    Blend: AUG-CC-PVTZ
  Basis Set: (AUG-CC-PVTZ AUX)
    Blend: AUG-CC-PVTZ-JKFIT
	 Reference Energy          =    -496.8523016861579435 [Eh]
	 Singles Energy            =      -0.0000000000000000 [Eh]
	 Same-Spin Energy          =      -0.4956977276367528 [Eh]
	 Opposite-Spin Energy      =      -1.5990964381420358 [Eh]
	 Correlation Energy        =      -2.0947941657787887 [Eh]
	 Total Energy              =    -498.9470958519367514 [Eh]

	 ================> DF-SCS-MP2 Energies <==================
	-----------------------------------------------------------
	 SCS Same-Spin Scale       =       0.3333333333333333 [-]
	 SCS Opposite-Spin Scale   =       1.2000000000000000 [-]
	 SCS Same-Spin Energy      =      -0.1652325758789176 [Eh]
	 SCS Opposite-Spin Energy  =      -1.9189157257704430 [Eh]
	 SCS Correlation Energy    =      -2.0841483016493605 [Eh]
	 SCS Total Energy          =    -498.9364499878072934 [Eh]
	-----------------------------------------------------------

  Dipole Moment: [D]
     X:     0.7636      Y:    -2.4946      Z:    -2.5342     Total:     3.6371

*** Psi4 exiting successfully. Buy a developer a beer!
