                               Psi4 1.4a3.dev225

  ==> Input File <==

--------------------------------------------------------------------------
#psi4
#
memory 32 gb

molecule  {
0 1
  O       -0.9795470    -0.0831330    -0.7231310
  O       -0.4899730     2.0087470     0.0897980
  O       -2.0025500    -0.0680990     1.3309880
  C        1.8485240    -0.5426110    -0.0314710
  C        1.2868380     0.6338010    -0.8471420
  C        1.7532090    -0.2607150     1.4674660
  C        3.2880220    -0.8256370    -0.4545800
  C       -0.1082690     0.9825120    -0.4201650
  C       -2.0345350    -0.3435730     0.1532740
  C       -3.1365800    -1.0497620    -0.5798680
  H        1.2371820    -1.4239180    -0.2609290
  H        1.9026850     1.5280430    -0.7082120
  H        1.2768590     0.3787260    -1.9135380
  H        2.3119230     0.6465730     1.7229020
  H        2.1770720    -1.0909040     2.0408530
  H        0.7169210    -0.1225920     1.7908070
  H        3.9287710     0.0354160    -0.2359390
  H        3.6876870    -1.6881060     0.0874480
  H        3.3559530    -1.0370340    -1.5265420
  H       -3.5589910    -0.3771620    -1.3307760
  H       -3.9066010    -1.3512680     0.1291360
  H       -2.7361560    -1.9219890    -1.1015230
units angstrom
no_reorient  #important for SAPT in psi4, default
symmetry c1  #important for SAPT in psi4, default
}

set PROPERTIES_ORIGIN ["COM"]
properties('MP2/aug-cc-pvtz', properties = ['dipole'])
--------------------------------------------------------------------------

    Molecular point group: c1
  Charge       = 0
  Multiplicity = 1
  Basis Set: AUG-CC-PVTZ
    Blend: AUG-CC-PVTZ
  Basis Set: (AUG-CC-PVTZ AUX)
    Blend: AUG-CC-PVTZ-JKFIT

    Orbital Energies [Eh]
    ---------------------

    Doubly Occupied:

       1A    -20.626684     2A    -20.564782     3A    -20.564607
       4A    -11.404077     5A    -11.398528     6A    -11.254898
       7A    -11.250633     8A    -11.245743     9A    -11.224633
      10A    -11.215568    11A     -1.485517    12A     -1.405147
      13A     -1.363489    14A     -1.113641    15A     -1.042890
      16A     -0.991185    17A     -0.938665    18A     -0.868177
      19A     -0.794648    20A     -0.739426    21A     -0.702097
      22A     -0.698398    23A     -0.682817    24A     -0.648602
      25A     -0.629227    26A     -0.620806    27A     -0.594327
      28A     -0.590056    29A     -0.570272    30A     -0.555533
      31A     -0.551443    32A     -0.539809    33A     -0.527389
      34A     -0.495846    35A     -0.487206    36A     -0.479634
      37A     -0.473797    38A     -0.471297    39A     -0.439582

  @DF-RHF Final Energy:  -496.86396954043460

   => Energetics <=

    Nuclear Repulsion Energy =            555.6455929399220395
    One-Electron Energy =               -1780.5169721093413955
    Two-Electron Energy =                 728.0074096289848740
    Total Energy =                       -496.8639695404345957
  Basis Set: (AUG-CC-PVTZ AUX)
    Blend: AUG-CC-PVTZ-RI
    Molecular point group: c1

    Geometry (in Angstrom), charge = 0, multiplicity = 1:

       Center              X                  Y                   Z               Mass
    ------------   -----------------  -----------------  -----------------  -----------------
         O           -0.908097672374    -0.127306716191    -0.732102247782    15.994914619570
         O           -0.418523672374     1.964573283809     0.080826752218    15.994914619570
         O           -1.931100672374    -0.112272716191     1.322016752218    15.994914619570
         C            1.919973327626    -0.586784716191    -0.040442247782    12.000000000000
         C            1.358287327626     0.589627283809    -0.856113247782    12.000000000000
         C            1.824658327626    -0.304888716191     1.458494752218    12.000000000000
         C            3.359471327626    -0.869810716191    -0.463551247782    12.000000000000
         C           -0.036819672374     0.938338283809    -0.429136247782    12.000000000000
         C           -1.963085672374    -0.387746716191     0.144302752218    12.000000000000
         C           -3.065130672374    -1.093935716191    -0.588839247782    12.000000000000
         H            1.308631327626    -1.468091716191    -0.269900247782     1.007825032230
         H            1.974134327626     1.483869283809    -0.717183247782     1.007825032230
         H            1.348308327626     0.334552283809    -1.922509247782     1.007825032230
         H            2.383372327626     0.602399283809     1.713930752218     1.007825032230
         H            2.248521327626    -1.135077716191     2.031881752218     1.007825032230
         H            0.788370327626    -0.166765716191     1.781835752218     1.007825032230
         H            4.000220327626    -0.008757716191    -0.244910247782     1.007825032230
         H            3.759136327626    -1.732279716191     0.078476752218     1.007825032230
         H            3.427402327626    -1.081207716191    -1.535513247782     1.007825032230
         H           -3.487541672374    -0.421335716191    -1.339747247782     1.007825032230
         H           -3.835151672374    -1.395441716191     0.120164752218     1.007825032230
         H           -2.664706672374    -1.966162716191    -1.110494247782     1.007825032230

  Basis Set: AUG-CC-PVTZ
    Blend: AUG-CC-PVTZ
  Basis Set: (AUG-CC-PVTZ AUX)
    Blend: AUG-CC-PVTZ-JKFIT
	 Reference Energy          =    -496.8639695404345957 [Eh]
	 Singles Energy            =      -0.0000000000000000 [Eh]
	 Same-Spin Energy          =      -0.4946120123907782 [Eh]
	 Opposite-Spin Energy      =      -1.5978152565165125 [Eh]
	 Correlation Energy        =      -2.0924272689072909 [Eh]
	 Total Energy              =    -498.9563968093418680 [Eh]

	 ================> DF-SCS-MP2 Energies <==================
	-----------------------------------------------------------
	 SCS Same-Spin Scale       =       0.3333333333333333 [-]
	 SCS Opposite-Spin Scale   =       1.2000000000000000 [-]
	 SCS Same-Spin Energy      =      -0.1648706707969261 [Eh]
	 SCS Opposite-Spin Energy  =      -1.9173783078198148 [Eh]
	 SCS Correlation Energy    =      -2.0822489786167409 [Eh]
	 SCS Total Energy          =    -498.9462185190513424 [Eh]
	-----------------------------------------------------------

  Dipole Moment: [D]
     X:     0.7864      Y:    -2.4968      Z:    -2.5409     Total:     3.6481

*** Psi4 exiting successfully. Buy a developer a beer!
