                               Psi4 1.4a3.dev225

  ==> Input File <==

--------------------------------------------------------------------------
#psi4
#
memory 32 gb

molecule  {
0 1
  O       -0.9795470    -0.0831330    -0.7231310
  O       -0.4899730     2.0087470     0.0897980
  O       -2.0025500    -0.0680990     1.3309880
  C        1.8485240    -0.5426110    -0.0314710
  C        1.2868380     0.6338010    -0.8471420
  C        1.7532090    -0.2607150     1.4674660
  C        3.2880220    -0.8256370    -0.4545800
  C       -0.1082690     0.9825120    -0.4201650
  C       -2.0345350    -0.3435730     0.1532740
  C       -3.1365800    -1.0497620    -0.5798680
  H        1.2371820    -1.4239180    -0.2609290
  H        1.9026850     1.5280430    -0.7082120
  H        1.2768590     0.3787260    -1.9135380
  H        2.3119230     0.6465730     1.7229020
  H        2.1770720    -1.0909040     2.0408530
  H        0.7169210    -0.1225920     1.7908070
  H        3.9287710     0.0354160    -0.2359390
  H        3.7059491    -1.7275152     0.1122151
  H        3.3559530    -1.0370340    -1.5265420
  H       -3.5589910    -0.3771620    -1.3307760
  H       -3.9066010    -1.3512680     0.1291360
  H       -2.7361560    -1.9219890    -1.1015230
units angstrom
no_reorient  #important for SAPT in psi4, default
symmetry c1  #important for SAPT in psi4, default
}

set PROPERTIES_ORIGIN ["COM"]
properties('MP2/aug-cc-pvtz', properties = ['dipole'])
--------------------------------------------------------------------------

    Molecular point group: c1
  Charge       = 0
  Multiplicity = 1
  Basis Set: AUG-CC-PVTZ
    Blend: AUG-CC-PVTZ
  Basis Set: (AUG-CC-PVTZ AUX)
    Blend: AUG-CC-PVTZ-JKFIT

    Orbital Energies [Eh]
    ---------------------

    Doubly Occupied:

       1A    -20.626889     2A    -20.564913     3A    -20.564886
       4A    -11.404213     5A    -11.398870     6A    -11.254996
       7A    -11.251133     8A    -11.246248     9A    -11.230698
      10A    -11.215585    11A     -1.485719    12A     -1.405346
      13A     -1.363687    14A     -1.113628    15A     -1.042886
      16A     -0.990392    17A     -0.936644    18A     -0.867849
      19A     -0.793699    20A     -0.739617    21A     -0.702127
      22A     -0.698353    23A     -0.683006    24A     -0.648480
      25A     -0.629094    26A     -0.620727    27A     -0.593728
      28A     -0.589898    29A     -0.570141    30A     -0.555288
      31A     -0.551719    32A     -0.533864    33A     -0.527557
      34A     -0.496205    35A     -0.487107    36A     -0.479631
      37A     -0.474040    38A     -0.470923    39A     -0.439562

  @DF-RHF Final Energy:  -496.86186833914735

   => Energetics <=

    Nuclear Repulsion Energy =            555.4275910259144666
    One-Electron Energy =               -1780.0802249629530252
    Two-Electron Energy =                 727.7907655978910952
    Total Energy =                       -496.8618683391473496
  Basis Set: (AUG-CC-PVTZ AUX)
    Blend: AUG-CC-PVTZ-RI
    Molecular point group: c1

    Geometry (in Angstrom), charge = 0, multiplicity = 1:

       Center              X                  Y                   Z               Mass
    ------------   -----------------  -----------------  -----------------  -----------------
         O           -0.908225415119    -0.127031050228    -0.732275492772    15.994914619570
         O           -0.418651415119     1.964848949772     0.080653507228    15.994914619570
         O           -1.931228415119    -0.111997050228     1.321843507228    15.994914619570
         C            1.919845584881    -0.586509050228    -0.040615492772    12.000000000000
         C            1.358159584881     0.589902949772    -0.856286492772    12.000000000000
         C            1.824530584881    -0.304613050228     1.458321507228    12.000000000000
         C            3.359343584881    -0.869535050228    -0.463724492772    12.000000000000
         C           -0.036947415119     0.938613949772    -0.429309492772    12.000000000000
         C           -1.963213415119    -0.387471050228     0.144129507228    12.000000000000
         C           -3.065258415119    -1.093660050228    -0.589012492772    12.000000000000
         H            1.308503584881    -1.467816050228    -0.270073492772     1.007825032230
         H            1.974006584881     1.484144949772    -0.717356492772     1.007825032230
         H            1.348180584881     0.334827949772    -1.922682492772     1.007825032230
         H            2.383244584881     0.602674949772     1.713757507228     1.007825032230
         H            2.248393584881    -1.134802050228     2.031708507228     1.007825032230
         H            0.788242584881    -0.166490050228     1.781662507228     1.007825032230
         H            4.000092584881    -0.008482050228    -0.245083492772     1.007825032230
         H            3.777270684881    -1.771413250228     0.103070607228     1.007825032230
         H            3.427274584881    -1.080932050228    -1.535686492772     1.007825032230
         H           -3.487669415119    -0.421060050228    -1.339920492772     1.007825032230
         H           -3.835279415119    -1.395166050228     0.119991507228     1.007825032230
         H           -2.664834415119    -1.965887050228    -1.110667492772     1.007825032230

  Basis Set: AUG-CC-PVTZ
    Blend: AUG-CC-PVTZ
  Basis Set: (AUG-CC-PVTZ AUX)
    Blend: AUG-CC-PVTZ-JKFIT
	 Reference Energy          =    -496.8618683391473496 [Eh]
	 Singles Energy            =      -0.0000000000000000 [Eh]
	 Same-Spin Energy          =      -0.4946114644895346 [Eh]
	 Opposite-Spin Energy      =      -1.5981632687126177 [Eh]
	 Correlation Energy        =      -2.0927747332021522 [Eh]
	 Total Energy              =    -498.9546430723494836 [Eh]

	 ================> DF-SCS-MP2 Energies <==================
	-----------------------------------------------------------
	 SCS Same-Spin Scale       =       0.3333333333333333 [-]
	 SCS Opposite-Spin Scale   =       1.2000000000000000 [-]
	 SCS Same-Spin Energy      =      -0.1648704881631782 [Eh]
	 SCS Opposite-Spin Energy  =      -1.9177959224551411 [Eh]
	 SCS Correlation Energy    =      -2.0826664106183195 [Eh]
	 SCS Total Energy          =    -498.9445347497656940 [Eh]
	-----------------------------------------------------------

  Dipole Moment: [D]
     X:     0.7613      Y:    -2.4703      Z:    -2.5523     Total:     3.6327

*** Psi4 exiting successfully. Buy a developer a beer!
