                               Psi4 1.4a3.dev225

  ==> Input File <==

--------------------------------------------------------------------------
#psi4
#
memory 32 gb

molecule  {
0 1
  O       -0.9795470    -0.0831330    -0.7231310
  O       -0.4899730     2.0087470     0.0897980
  O       -2.0025500    -0.0680990     1.3309880
  C        1.8619141    -0.6674522     0.0674096
  C        1.2868380     0.6338010    -0.8471420
  C        1.7532090    -0.2607150     1.4674660
  C        3.2880220    -0.8256370    -0.4545800
  C       -0.1082690     0.9825120    -0.4201650
  C       -2.0345350    -0.3435730     0.1532740
  C       -3.1365800    -1.0497620    -0.5798680
  H        1.2371820    -1.4239180    -0.2609290
  H        1.9026850     1.5280430    -0.7082120
  H        1.2768590     0.3787260    -1.9135380
  H        2.3119230     0.6465730     1.7229020
  H        2.1770720    -1.0909040     2.0408530
  H        0.7169210    -0.1225920     1.7908070
  H        3.9287710     0.0354160    -0.2359390
  H        3.6876870    -1.6881060     0.0874480
  H        3.3559530    -1.0370340    -1.5265420
  H       -3.5589910    -0.3771620    -1.3307760
  H       -3.9066010    -1.3512680     0.1291360
  H       -2.7361560    -1.9219890    -1.1015230
units angstrom
no_reorient  #important for SAPT in psi4, default
symmetry c1  #important for SAPT in psi4, default
}

set PROPERTIES_ORIGIN ["COM"]
properties('MP2/aug-cc-pvtz', properties = ['dipole'])
--------------------------------------------------------------------------

    Molecular point group: c1
  Charge       = 0
  Multiplicity = 1
  Basis Set: AUG-CC-PVTZ
    Blend: AUG-CC-PVTZ
  Basis Set: (AUG-CC-PVTZ AUX)
    Blend: AUG-CC-PVTZ-JKFIT

    Orbital Energies [Eh]
    ---------------------

    Doubly Occupied:

       1A    -20.624355     2A    -20.563703     3A    -20.559671
       4A    -11.402866     5A    -11.393692     6A    -11.254135
       7A    -11.250846     8A    -11.248487     9A    -11.227052
      10A    -11.216087    11A     -1.483034    12A     -1.402422
      13A     -1.360939    14A     -1.107091    15A     -1.043034
      16A     -0.989354    17A     -0.947003    18A     -0.861080
      19A     -0.802846    20A     -0.737202    21A     -0.699207
      22A     -0.692477    23A     -0.681093    24A     -0.646109
      25A     -0.624803    26A     -0.622789    27A     -0.595716
      28A     -0.589332    29A     -0.571596    30A     -0.560021
      31A     -0.552922    32A     -0.539643    33A     -0.524865
      34A     -0.513024    35A     -0.498129    36A     -0.478363
      37A     -0.473842    38A     -0.453806    39A     -0.418724

  @DF-RHF Final Energy:  -496.84311104638635

   => Energetics <=

    Nuclear Repulsion Energy =            554.4993151260425748
    One-Electron Energy =               -1778.2621322362149385
    Two-Electron Energy =                 726.9197060637860659
    Total Energy =                       -496.8431110463862979
  Basis Set: (AUG-CC-PVTZ AUX)
    Blend: AUG-CC-PVTZ-RI
    Molecular point group: c1

    Geometry (in Angstrom), charge = 0, multiplicity = 1:

       Center              X                  Y                   Z               Mass
    ------------   -----------------  -----------------  -----------------  -----------------
         O           -0.909212904967    -0.116908961494    -0.740337800012    15.994914619570
         O           -0.419638904967     1.974971038506     0.072591199988    15.994914619570
         O           -1.932215904967    -0.101874961494     1.313781199988    15.994914619570
         C            1.932248195033    -0.701228161494     0.050202799988    12.000000000000
         C            1.357172095033     0.600025038506    -0.864348800012    12.000000000000
         C            1.823543095033    -0.294490961494     1.450259199988    12.000000000000
         C            3.358356095033    -0.859412961494    -0.471786800012    12.000000000000
         C           -0.037934904967     0.948736038506    -0.437371800012    12.000000000000
         C           -1.964200904967    -0.377348961494     0.136067199988    12.000000000000
         C           -3.066245904967    -1.083537961494    -0.597074800012    12.000000000000
         H            1.307516095033    -1.457693961494    -0.278135800012     1.007825032230
         H            1.973019095033     1.494267038506    -0.725418800012     1.007825032230
         H            1.347193095033     0.344950038506    -1.930744800012     1.007825032230
         H            2.382257095033     0.612797038506     1.705695199988     1.007825032230
         H            2.247406095033    -1.124679961494     2.023646199988     1.007825032230
         H            0.787255095033    -0.156367961494     1.773600199988     1.007825032230
         H            3.999105095033     0.001640038506    -0.253145800012     1.007825032230
         H            3.758021095033    -1.721881961494     0.070241199988     1.007825032230
         H            3.426287095033    -1.070809961494    -1.543748800012     1.007825032230
         H           -3.488656904967    -0.410937961494    -1.347982800012     1.007825032230
         H           -3.836266904967    -1.385043961494     0.111929199988     1.007825032230
         H           -2.665821904967    -1.955764961494    -1.118729800012     1.007825032230

  Basis Set: AUG-CC-PVTZ
    Blend: AUG-CC-PVTZ
  Basis Set: (AUG-CC-PVTZ AUX)
    Blend: AUG-CC-PVTZ-JKFIT
	 Reference Energy          =    -496.8431110463863547 [Eh]
	 Singles Energy            =      -0.0000000000000000 [Eh]
	 Same-Spin Energy          =      -0.4951722872273044 [Eh]
	 Opposite-Spin Energy      =      -1.5988348056620121 [Eh]
	 Correlation Energy        =      -2.0940070928893166 [Eh]
	 Total Energy              =    -498.9371181392756966 [Eh]

	 ================> DF-SCS-MP2 Energies <==================
	-----------------------------------------------------------
	 SCS Same-Spin Scale       =       0.3333333333333333 [-]
	 SCS Opposite-Spin Scale   =       1.2000000000000000 [-]
	 SCS Same-Spin Energy      =      -0.1650574290757681 [Eh]
	 SCS Opposite-Spin Energy  =      -1.9186017667944144 [Eh]
	 SCS Correlation Energy    =      -2.0836591958701827 [Eh]
	 SCS Total Energy          =    -498.9267702422565094 [Eh]
	-----------------------------------------------------------

  Dipole Moment: [D]
     X:     0.9566      Y:    -2.6187      Z:    -2.4556     Total:     3.7152

*** Psi4 exiting successfully. Buy a developer a beer!
