                               Psi4 1.4a3.dev225

  ==> Input File <==

--------------------------------------------------------------------------
#psi4
#
memory 32 gb

molecule  {
0 1
  O       -1.0876529    -0.0009055    -0.6655427
  O       -0.4899730     2.0087470     0.0897980
  O       -2.0025500    -0.0680990     1.3309880
  C        1.8485240    -0.5426110    -0.0314710
  C        1.2868380     0.6338010    -0.8471420
  C        1.7532090    -0.2607150     1.4674660
  C        3.2880220    -0.8256370    -0.4545800
  C       -0.1082690     0.9825120    -0.4201650
  C       -2.0345350    -0.3435730     0.1532740
  C       -3.1365800    -1.0497620    -0.5798680
  H        1.2371820    -1.4239180    -0.2609290
  H        1.9026850     1.5280430    -0.7082120
  H        1.2768590     0.3787260    -1.9135380
  H        2.3119230     0.6465730     1.7229020
  H        2.1770720    -1.0909040     2.0408530
  H        0.7169210    -0.1225920     1.7908070
  H        3.9287710     0.0354160    -0.2359390
  H        3.6876870    -1.6881060     0.0874480
  H        3.3559530    -1.0370340    -1.5265420
  H       -3.5589910    -0.3771620    -1.3307760
  H       -3.9066010    -1.3512680     0.1291360
  H       -2.7361560    -1.9219890    -1.1015230
units angstrom
no_reorient  #important for SAPT in psi4, default
symmetry c1  #important for SAPT in psi4, default
}

set PROPERTIES_ORIGIN ["COM"]
properties('MP2/aug-cc-pvtz', properties = ['dipole'])
--------------------------------------------------------------------------

    Molecular point group: c1
  Charge       = 0
  Multiplicity = 1
  Basis Set: AUG-CC-PVTZ
    Blend: AUG-CC-PVTZ
  Basis Set: (AUG-CC-PVTZ AUX)
    Blend: AUG-CC-PVTZ-JKFIT

    Orbital Energies [Eh]
    ---------------------

    Doubly Occupied:

       1A    -20.625374     2A    -20.566396     3A    -20.542306
       4A    -11.405415     5A    -11.388752     6A    -11.261023
       7A    -11.251305     8A    -11.247506     9A    -11.228752
      10A    -11.218269    11A     -1.512525    12A     -1.403891
      13A     -1.358254    14A     -1.120195    15A     -1.043159
      16A     -0.996764    17A     -0.942175    18A     -0.895518
      19A     -0.800786    20A     -0.734600    21A     -0.712031
      22A     -0.700627    23A     -0.687029    24A     -0.655133
      25A     -0.632395    26A     -0.620539    27A     -0.586046
      28A     -0.584527    29A     -0.573241    30A     -0.562621
      31A     -0.553568    32A     -0.542091    33A     -0.523031
      34A     -0.498496    35A     -0.485353    36A     -0.482911
      37A     -0.469650    38A     -0.467493    39A     -0.439593

  @DF-RHF Final Energy:  -496.86176793198160

   => Energetics <=

    Nuclear Repulsion Energy =            557.3306420614193257
    One-Electron Energy =               -1783.7461342019034873
    Two-Electron Energy =                 729.5537242085026719
    Total Energy =                       -496.8617679319816034
  Basis Set: (AUG-CC-PVTZ AUX)
    Blend: AUG-CC-PVTZ-RI
    Molecular point group: c1

    Geometry (in Angstrom), charge = 0, multiplicity = 1:

       Center              X                  Y                   Z               Mass
    ------------   -----------------  -----------------  -----------------  -----------------
         O           -1.004202177931    -0.054207715760    -0.680907122471    15.994914619570
         O           -0.406522277931     1.955444784240     0.074433577529    15.994914619570
         O           -1.919099277931    -0.121401215760     1.315623577529    15.994914619570
         C            1.931974722069    -0.595913215760    -0.046835422471    12.000000000000
         C            1.370288722069     0.580498784240    -0.862506422471    12.000000000000
         C            1.836659722069    -0.314017215760     1.452101577529    12.000000000000
         C            3.371472722069    -0.878939215760    -0.469944422471    12.000000000000
         C           -0.024818277931     0.929209784240    -0.435529422471    12.000000000000
         C           -1.951084277931    -0.396875215760     0.137909577529    12.000000000000
         C           -3.053129277931    -1.103064215760    -0.595232422471    12.000000000000
         H            1.320632722069    -1.477220215760    -0.276293422471     1.007825032230
         H            1.986135722069     1.474740784240    -0.723576422471     1.007825032230
         H            1.360309722069     0.325423784240    -1.928902422471     1.007825032230
         H            2.395373722069     0.593270784240     1.707537577529     1.007825032230
         H            2.260522722069    -1.144206215760     2.025488577529     1.007825032230
         H            0.800371722069    -0.175894215760     1.775442577529     1.007825032230
         H            4.012221722069    -0.017886215760    -0.251303422471     1.007825032230
         H            3.771137722069    -1.741408215760     0.072083577529     1.007825032230
         H            3.439403722069    -1.090336215760    -1.541906422471     1.007825032230
         H           -3.475540277931    -0.430464215760    -1.346140422471     1.007825032230
         H           -3.823150277931    -1.404570215760     0.113771577529     1.007825032230
         H           -2.652705277931    -1.975291215760    -1.116887422471     1.007825032230

  Basis Set: AUG-CC-PVTZ
    Blend: AUG-CC-PVTZ
  Basis Set: (AUG-CC-PVTZ AUX)
    Blend: AUG-CC-PVTZ-JKFIT
	 Reference Energy          =    -496.8617679319816034 [Eh]
	 Singles Energy            =      -0.0000000000000000 [Eh]
	 Same-Spin Energy          =      -0.4931354340674559 [Eh]
	 Opposite-Spin Energy      =      -1.5936885564146190 [Eh]
	 Correlation Energy        =      -2.0868239904820749 [Eh]
	 Total Energy              =    -498.9485919224636632 [Eh]

	 ================> DF-SCS-MP2 Energies <==================
	-----------------------------------------------------------
	 SCS Same-Spin Scale       =       0.3333333333333333 [-]
	 SCS Opposite-Spin Scale   =       1.2000000000000000 [-]
	 SCS Same-Spin Energy      =      -0.1643784780224853 [Eh]
	 SCS Opposite-Spin Energy  =      -1.9124262676975428 [Eh]
	 SCS Correlation Energy    =      -2.0768047457200280 [Eh]
	 SCS Total Energy          =    -498.9385726777016430 [Eh]
	-----------------------------------------------------------

  Dipole Moment: [D]
     X:     1.5798      Y:    -2.3748      Z:    -2.9146     Total:     4.0780

*** Psi4 exiting successfully. Buy a developer a beer!
