                               Psi4 1.4a3.dev225

  ==> Input File <==

--------------------------------------------------------------------------
#psi4
#
memory 32 gb

molecule  {
0 1
  O       -0.9795470    -0.0831330    -0.7231310
  O       -0.4899730     2.0087470     0.0897980
  O       -2.0025500    -0.0680990     1.3309880
  C        1.8485240    -0.5426110    -0.0314710
  C        1.2868380     0.6338010    -0.8471420
  C        1.7500904    -0.2514918     1.5165089
  C        3.2880220    -0.8256370    -0.4545800
  C       -0.1082690     0.9825120    -0.4201650
  C       -2.0345350    -0.3435730     0.1532740
  C       -3.1365800    -1.0497620    -0.5798680
  H        1.2371820    -1.4239180    -0.2609290
  H        1.9026850     1.5280430    -0.7082120
  H        1.2768590     0.3787260    -1.9135380
  H        2.3119230     0.6465730     1.7229020
  H        2.1770720    -1.0909040     2.0408530
  H        0.7169210    -0.1225920     1.7908070
  H        3.9287710     0.0354160    -0.2359390
  H        3.6876870    -1.6881060     0.0874480
  H        3.3559530    -1.0370340    -1.5265420
  H       -3.5589910    -0.3771620    -1.3307760
  H       -3.9066010    -1.3512680     0.1291360
  H       -2.7361560    -1.9219890    -1.1015230
units angstrom
no_reorient  #important for SAPT in psi4, default
symmetry c1  #important for SAPT in psi4, default
}

set PROPERTIES_ORIGIN ["COM"]
properties('MP2/aug-cc-pvtz', properties = ['dipole'])
--------------------------------------------------------------------------

    Molecular point group: c1
  Charge       = 0
  Multiplicity = 1
  Basis Set: AUG-CC-PVTZ
    Blend: AUG-CC-PVTZ
  Basis Set: (AUG-CC-PVTZ AUX)
    Blend: AUG-CC-PVTZ-JKFIT

    Orbital Energies [Eh]
    ---------------------

    Doubly Occupied:

       1A    -20.626697     2A    -20.564885     3A    -20.564631
       4A    -11.404154     5A    -11.398463     6A    -11.254930
       7A    -11.250526     8A    -11.247533     9A    -11.224592
      10A    -11.213848    11A     -1.485549    12A     -1.405215
      13A     -1.363539    14A     -1.109027    15A     -1.042433
      16A     -0.989862    17A     -0.939060    18A     -0.868274
      19A     -0.794666    20A     -0.739404    21A     -0.701961
      22A     -0.698279    23A     -0.682578    24A     -0.646659
      25A     -0.628981    26A     -0.619893    27A     -0.594173
      28A     -0.590141    29A     -0.571052    30A     -0.556933
      31A     -0.551900    32A     -0.543787    33A     -0.528208
      34A     -0.500181    35A     -0.488685    36A     -0.477141
      37A     -0.472957    38A     -0.464883    39A     -0.439585

  @DF-RHF Final Energy:  -496.86241700467042

   => Energetics <=

    Nuclear Repulsion Energy =            554.8818846865663090
    One-Electron Energy =               -1778.9980729807530224
    Two-Electron Energy =                 727.2537712895162940
    Total Energy =                       -496.8624170046704194
  Basis Set: (AUG-CC-PVTZ AUX)
    Blend: AUG-CC-PVTZ-RI
    Molecular point group: c1

    Geometry (in Angstrom), charge = 0, multiplicity = 1:

       Center              X                  Y                   Z               Mass
    ------------   -----------------  -----------------  -----------------  -----------------
         O           -0.907837930896    -0.128074896657    -0.736186925307    15.994914619570
         O           -0.418263930896     1.963805103343     0.076742074693    15.994914619570
         O           -1.930840930896    -0.113040896657     1.317932074693    15.994914619570
         C            1.920233069104    -0.587552896657    -0.044526925307    12.000000000000
         C            1.358547069104     0.588859103343    -0.860197925307    12.000000000000
         C            1.821799469104    -0.296433696657     1.503452974693    12.000000000000
         C            3.359731069104    -0.870578896657    -0.467635925307    12.000000000000
         C           -0.036559930896     0.937570103343    -0.433220925307    12.000000000000
         C           -1.962825930896    -0.388514896657     0.140218074693    12.000000000000
         C           -3.064870930896    -1.094703896657    -0.592923925307    12.000000000000
         H            1.308891069104    -1.468859896657    -0.273984925307     1.007825032230
         H            1.974394069104     1.483101103343    -0.721267925307     1.007825032230
         H            1.348568069104     0.333784103343    -1.926593925307     1.007825032230
         H            2.383632069104     0.601631103343     1.709846074693     1.007825032230
         H            2.248781069104    -1.135845896657     2.027797074693     1.007825032230
         H            0.788630069104    -0.167533896657     1.777751074693     1.007825032230
         H            4.000480069104    -0.009525896657    -0.248994925307     1.007825032230
         H            3.759396069104    -1.733047896657     0.074392074693     1.007825032230
         H            3.427662069104    -1.081975896657    -1.539597925307     1.007825032230
         H           -3.487281930896    -0.422103896657    -1.343831925307     1.007825032230
         H           -3.834891930896    -1.396209896657     0.116080074693     1.007825032230
         H           -2.664446930896    -1.966930896657    -1.114578925307     1.007825032230

  Basis Set: AUG-CC-PVTZ
    Blend: AUG-CC-PVTZ
  Basis Set: (AUG-CC-PVTZ AUX)
    Blend: AUG-CC-PVTZ-JKFIT
	 Reference Energy          =    -496.8624170046704194 [Eh]
	 Singles Energy            =      -0.0000000000000000 [Eh]
	 Same-Spin Energy          =      -0.4943025801267248 [Eh]
	 Opposite-Spin Energy      =      -1.5976297439300762 [Eh]
	 Correlation Energy        =      -2.0919323240568009 [Eh]
	 Total Energy              =    -498.9543493287272327 [Eh]

	 ================> DF-SCS-MP2 Energies <==================
	-----------------------------------------------------------
	 SCS Same-Spin Scale       =       0.3333333333333333 [-]
	 SCS Opposite-Spin Scale   =       1.2000000000000000 [-]
	 SCS Same-Spin Energy      =      -0.1647675267089083 [Eh]
	 SCS Opposite-Spin Energy  =      -1.9171556927160913 [Eh]
	 SCS Correlation Energy    =      -2.0819232194249997 [Eh]
	 SCS Total Energy          =    -498.9443402240954129 [Eh]
	-----------------------------------------------------------

  Dipole Moment: [D]
     X:     0.7919      Y:    -2.4977      Z:    -2.5539     Total:     3.6589

*** Psi4 exiting successfully. Buy a developer a beer!
