                               Psi4 1.4a3.dev225

  ==> Input File <==

--------------------------------------------------------------------------
#psi4
#
memory 32 gb

molecule  {
0 1
  O       -0.9413288    -0.1079885    -0.7416197
  O       -0.4899730     2.0087470     0.0897980
  O       -2.0025500    -0.0680990     1.3309880
  C        1.8485240    -0.5426110    -0.0314710
  C        1.2868380     0.6338010    -0.8471420
  C        1.7532090    -0.2607150     1.4674660
  C        3.2880220    -0.8256370    -0.4545800
  C       -0.1082690     0.9825120    -0.4201650
  C       -2.0345350    -0.3435730     0.1532740
  C       -3.1365800    -1.0497620    -0.5798680
  H        1.2371820    -1.4239180    -0.2609290
  H        1.9026850     1.5280430    -0.7082120
  H        1.2768590     0.3787260    -1.9135380
  H        2.3119230     0.6465730     1.7229020
  H        2.1770720    -1.0909040     2.0408530
  H        0.7169210    -0.1225920     1.7908070
  H        3.9287710     0.0354160    -0.2359390
  H        3.6876870    -1.6881060     0.0874480
  H        3.3559530    -1.0370340    -1.5265420
  H       -3.5589910    -0.3771620    -1.3307760
  H       -3.9066010    -1.3512680     0.1291360
  H       -2.7361560    -1.9219890    -1.1015230
units angstrom
no_reorient  #important for SAPT in psi4, default
symmetry c1  #important for SAPT in psi4, default
}

set PROPERTIES_ORIGIN ["COM"]
properties('MP2/aug-cc-pvtz', properties = ['dipole'])
--------------------------------------------------------------------------

    Molecular point group: c1
  Charge       = 0
  Multiplicity = 1
  Basis Set: AUG-CC-PVTZ
    Blend: AUG-CC-PVTZ
  Basis Set: (AUG-CC-PVTZ AUX)
    Blend: AUG-CC-PVTZ-JKFIT

    Orbital Energies [Eh]
    ---------------------

    Doubly Occupied:

       1A    -20.626632     2A    -20.571937     3A    -20.564067
       4A    -11.409132     5A    -11.396400     6A    -11.257634
       7A    -11.247135     8A    -11.243793     9A    -11.223198
      10A    -11.214614    11A     -1.477899    12A     -1.406927
      13A     -1.363271    14A     -1.111304    15A     -1.043338
      16A     -0.989021    17A     -0.937441    18A     -0.858915
      19A     -0.792522    20A     -0.741805    21A     -0.701691
      22A     -0.695303    23A     -0.680637    24A     -0.646526
      25A     -0.629054    26A     -0.621720    27A     -0.597222
      28A     -0.591076    29A     -0.569155    30A     -0.552777
      31A     -0.550442    32A     -0.538950    33A     -0.529216
      34A     -0.494968    35A     -0.488402    36A     -0.478916
      37A     -0.474024    38A     -0.470855    39A     -0.438380

  @DF-RHF Final Energy:  -496.85979699419431

   => Energetics <=

    Nuclear Repulsion Energy =            555.1102928517761939
    One-Electron Energy =               -1779.4875792189527601
    Two-Electron Energy =                 727.5174893729822543
    Total Energy =                       -496.8597969941943120
  Basis Set: (AUG-CC-PVTZ AUX)
    Blend: AUG-CC-PVTZ-RI
    Molecular point group: c1

    Geometry (in Angstrom), charge = 0, multiplicity = 1:

       Center              X                  Y                   Z               Mass
    ------------   -----------------  -----------------  -----------------  -----------------
         O           -0.874122272195    -0.149402878731    -0.748538421681    15.994914619570
         O           -0.422766472195     1.967332621269     0.082879278319    15.994914619570
         O           -1.935343472195    -0.109513378731     1.324069278319    15.994914619570
         C            1.915730527805    -0.584025378731    -0.038389721681    12.000000000000
         C            1.354044527805     0.592386621269    -0.854060721681    12.000000000000
         C            1.820415527805    -0.302129378731     1.460547278319    12.000000000000
         C            3.355228527805    -0.867051378731    -0.461498721681    12.000000000000
         C           -0.041062472195     0.941097621269    -0.427083721681    12.000000000000
         C           -1.967328472195    -0.384987378731     0.146355278319    12.000000000000
         C           -3.069373472195    -1.091176378731    -0.586786721681    12.000000000000
         H            1.304388527805    -1.465332378731    -0.267847721681     1.007825032230
         H            1.969891527805     1.486628621269    -0.715130721681     1.007825032230
         H            1.344065527805     0.337311621269    -1.920456721681     1.007825032230
         H            2.379129527805     0.605158621269     1.715983278319     1.007825032230
         H            2.244278527805    -1.132318378731     2.033934278319     1.007825032230
         H            0.784127527805    -0.164006378731     1.783888278319     1.007825032230
         H            3.995977527805    -0.005998378731    -0.242857721681     1.007825032230
         H            3.754893527805    -1.729520378731     0.080529278319     1.007825032230
         H            3.423159527805    -1.078448378731    -1.533460721681     1.007825032230
         H           -3.491784472195    -0.418576378731    -1.337694721681     1.007825032230
         H           -3.839394472195    -1.392682378731     0.122217278319     1.007825032230
         H           -2.668949472195    -1.963403378731    -1.108441721681     1.007825032230

  Basis Set: AUG-CC-PVTZ
    Blend: AUG-CC-PVTZ
  Basis Set: (AUG-CC-PVTZ AUX)
    Blend: AUG-CC-PVTZ-JKFIT
	 Reference Energy          =    -496.8597969941943120 [Eh]
	 Singles Energy            =      -0.0000000000000000 [Eh]
	 Same-Spin Energy          =      -0.4953131572155144 [Eh]
	 Opposite-Spin Energy      =      -1.5996324451189035 [Eh]
	 Correlation Energy        =      -2.0949456023344180 [Eh]
	 Total Energy              =    -498.9547425965287175 [Eh]

	 ================> DF-SCS-MP2 Energies <==================
	-----------------------------------------------------------
	 SCS Same-Spin Scale       =       0.3333333333333333 [-]
	 SCS Opposite-Spin Scale   =       1.2000000000000000 [-]
	 SCS Same-Spin Energy      =      -0.1651043857385048 [Eh]
	 SCS Opposite-Spin Energy  =      -1.9195589341426840 [Eh]
	 SCS Correlation Energy    =      -2.0846633198811886 [Eh]
	 SCS Total Energy          =    -498.9444603140755135 [Eh]
	-----------------------------------------------------------

  Dipole Moment: [D]
     X:     0.5098      Y:    -2.5420      Z:    -2.4225     Total:     3.5483

*** Psi4 exiting successfully. Buy a developer a beer!
