                               Psi4 1.4a3.dev225

  ==> Input File <==

--------------------------------------------------------------------------
#psi4
#
memory 32 gb

molecule  {
0 1
  O       -0.9795470    -0.0831330    -0.7231310
  O       -0.4899730     2.0087470     0.0897980
  O       -2.0025500    -0.0680990     1.3309880
  C        1.8557038    -0.6255778     0.0350325
  C        1.2868380     0.6338010    -0.8471420
  C        1.7532090    -0.2607150     1.4674660
  C        3.2880220    -0.8256370    -0.4545800
  C       -0.1082690     0.9825120    -0.4201650
  C       -2.0345350    -0.3435730     0.1532740
  C       -3.1365800    -1.0497620    -0.5798680
  H        1.2371820    -1.4239180    -0.2609290
  H        1.9026850     1.5280430    -0.7082120
  H        1.2768590     0.3787260    -1.9135380
  H        2.3119230     0.6465730     1.7229020
  H        2.1770720    -1.0909040     2.0408530
  H        0.7169210    -0.1225920     1.7908070
  H        3.9287710     0.0354160    -0.2359390
  H        3.6876870    -1.6881060     0.0874480
  H        3.3559530    -1.0370340    -1.5265420
  H       -3.5589910    -0.3771620    -1.3307760
  H       -3.9066010    -1.3512680     0.1291360
  H       -2.7361560    -1.9219890    -1.1015230
units angstrom
no_reorient  #important for SAPT in psi4, default
symmetry c1  #important for SAPT in psi4, default
}

set PROPERTIES_ORIGIN ["COM"]
properties('MP2/aug-cc-pvtz', properties = ['dipole'])
--------------------------------------------------------------------------

    Molecular point group: c1
  Charge       = 0
  Multiplicity = 1
  Basis Set: AUG-CC-PVTZ
    Blend: AUG-CC-PVTZ
  Basis Set: (AUG-CC-PVTZ AUX)
    Blend: AUG-CC-PVTZ-JKFIT

    Orbital Energies [Eh]
    ---------------------

    Doubly Occupied:

       1A    -20.625243     2A    -20.564129     3A    -20.561457
       4A    -11.403336     5A    -11.395400     6A    -11.254441
       7A    -11.249824     8A    -11.248156     9A    -11.225794
      10A    -11.215488    11A     -1.483965    12A     -1.403419
      13A     -1.361901    14A     -1.108055    15A     -1.043052
      16A     -0.990193    17A     -0.944078    18A     -0.863277
      19A     -0.799715    20A     -0.738063    21A     -0.700096
      22A     -0.694603    23A     -0.681765    24A     -0.646426
      25A     -0.626237    26A     -0.621841    27A     -0.595242
      28A     -0.589633    29A     -0.570838    30A     -0.556866
      31A     -0.553731    32A     -0.539406    33A     -0.525691
      34A     -0.503925    35A     -0.496141    36A     -0.479442
      37A     -0.474480    38A     -0.459545    39A     -0.429280

  @DF-RHF Final Energy:  -496.85445637396316

   => Energetics <=

    Nuclear Repulsion Energy =            554.9021893076824199
    One-Electron Energy =               -1779.0649463747097343
    Two-Electron Energy =                 727.3083006930642114
    Total Energy =                       -496.8544563739631030
  Basis Set: (AUG-CC-PVTZ AUX)
    Blend: AUG-CC-PVTZ-RI
    Molecular point group: c1

    Geometry (in Angstrom), charge = 0, multiplicity = 1:

       Center              X                  Y                   Z               Mass
    ------------   -----------------  -----------------  -----------------  -----------------
         O           -0.908695662454    -0.120396590092    -0.737641181079    15.994914619570
         O           -0.419121662454     1.971483409908     0.075287818921    15.994914619570
         O           -1.931698662454    -0.105362590092     1.316477818921    15.994914619570
         C            1.926555137546    -0.662841390092     0.020522318921    12.000000000000
         C            1.357689337546     0.596537409908    -0.861652181079    12.000000000000
         C            1.824060337546    -0.297978590092     1.452955818921    12.000000000000
         C            3.358873337546    -0.862900590092    -0.469090181079    12.000000000000
         C           -0.037417662454     0.945248409908    -0.434675181079    12.000000000000
         C           -1.963683662454    -0.380836590092     0.138763818921    12.000000000000
         C           -3.065728662454    -1.087025590092    -0.594378181079    12.000000000000
         H            1.308033337546    -1.461181590092    -0.275439181079     1.007825032230
         H            1.973536337546     1.490779409908    -0.722722181079     1.007825032230
         H            1.347710337546     0.341462409908    -1.928048181079     1.007825032230
         H            2.382774337546     0.609309409908     1.708391818921     1.007825032230
         H            2.247923337546    -1.128167590092     2.026342818921     1.007825032230
         H            0.787772337546    -0.159855590092     1.776296818921     1.007825032230
         H            3.999622337546    -0.001847590092    -0.250449181079     1.007825032230
         H            3.758538337546    -1.725369590092     0.072937818921     1.007825032230
         H            3.426804337546    -1.074297590092    -1.541052181079     1.007825032230
         H           -3.488139662454    -0.414425590092    -1.345286181079     1.007825032230
         H           -3.835749662454    -1.388531590092     0.114625818921     1.007825032230
         H           -2.665304662454    -1.959252590092    -1.116033181079     1.007825032230

  Basis Set: AUG-CC-PVTZ
    Blend: AUG-CC-PVTZ
  Basis Set: (AUG-CC-PVTZ AUX)
    Blend: AUG-CC-PVTZ-JKFIT
	 Reference Energy          =    -496.8544563739631599 [Eh]
	 Singles Energy            =      -0.0000000000000000 [Eh]
	 Same-Spin Energy          =      -0.4947898216496701 [Eh]
	 Opposite-Spin Energy      =      -1.5981345408536720 [Eh]
	 Correlation Energy        =      -2.0929243625033420 [Eh]
	 Total Energy              =    -498.9473807364665277 [Eh]

	 ================> DF-SCS-MP2 Energies <==================
	-----------------------------------------------------------
	 SCS Same-Spin Scale       =       0.3333333333333333 [-]
	 SCS Opposite-Spin Scale   =       1.2000000000000000 [-]
	 SCS Same-Spin Energy      =      -0.1649299405498900 [Eh]
	 SCS Opposite-Spin Energy  =      -1.9177614490244064 [Eh]
	 SCS Correlation Energy    =      -2.0826913895742964 [Eh]
	 SCS Total Energy          =    -498.9371477635374390 [Eh]
	-----------------------------------------------------------

  Dipole Moment: [D]
     X:     0.8916      Y:    -2.5724      Z:    -2.4894     Total:     3.6891

*** Psi4 exiting successfully. Buy a developer a beer!
