                               Psi4 1.4a3.dev225

  ==> Input File <==

--------------------------------------------------------------------------
#psi4
#
memory 32 gb

molecule  {
0 1
  O       -0.9795470    -0.0831330    -0.7231310
  O       -0.4899730     2.0087470     0.0897980
  O       -2.0025500    -0.0680990     1.3309880
  C        1.8485240    -0.5426110    -0.0314710
  C        1.2868380     0.6338010    -0.8471420
  C        1.7532090    -0.2607150     1.4674660
  C        3.2880220    -0.8256370    -0.4545800
  C       -0.2942737     1.0290044    -0.3632377
  C       -2.0345350    -0.3435730     0.1532740
  C       -3.1365800    -1.0497620    -0.5798680
  H        1.2371820    -1.4239180    -0.2609290
  H        1.9026850     1.5280430    -0.7082120
  H        1.2768590     0.3787260    -1.9135380
  H        2.3119230     0.6465730     1.7229020
  H        2.1770720    -1.0909040     2.0408530
  H        0.7169210    -0.1225920     1.7908070
  H        3.9287710     0.0354160    -0.2359390
  H        3.6876870    -1.6881060     0.0874480
  H        3.3559530    -1.0370340    -1.5265420
  H       -3.5589910    -0.3771620    -1.3307760
  H       -3.9066010    -1.3512680     0.1291360
  H       -2.7361560    -1.9219890    -1.1015230
units angstrom
no_reorient  #important for SAPT in psi4, default
symmetry c1  #important for SAPT in psi4, default
}

set PROPERTIES_ORIGIN ["COM"]
properties('MP2/aug-cc-pvtz', properties = ['dipole'])
--------------------------------------------------------------------------

    Molecular point group: c1
  Charge       = 0
  Multiplicity = 1
  Basis Set: AUG-CC-PVTZ
    Blend: AUG-CC-PVTZ
  Basis Set: (AUG-CC-PVTZ AUX)
    Blend: AUG-CC-PVTZ-JKFIT

    Orbital Energies [Eh]
    ---------------------

    Doubly Occupied:

       1A    -20.642426     2A    -20.577901     3A    -20.574445
       4A    -11.413049     5A    -11.387605     6A    -11.260783
       7A    -11.232392     8A    -11.230864     9A    -11.214328
      10A    -11.208120    11A     -1.528560    12A     -1.466415
      13A     -1.394551    14A     -1.089304    15A     -1.050725
      16A     -0.951470    17A     -0.929211    18A     -0.875981
      19A     -0.775869    20A     -0.760611    21A     -0.717067
      22A     -0.715969    23A     -0.708656    24A     -0.635427
      25A     -0.633631    26A     -0.628538    27A     -0.603280
      28A     -0.593212    29A     -0.579776    30A     -0.559367
      31A     -0.553898    32A     -0.536784    33A     -0.532263
      34A     -0.506812    35A     -0.485129    36A     -0.483235
      37A     -0.466147    38A     -0.464647    39A     -0.399032

  @DF-RHF Final Energy:  -496.82500233315841

   => Energetics <=

    Nuclear Repulsion Energy =            556.8218435507445747
    One-Electron Energy =               -1782.5587341618870596
    Two-Electron Energy =                 728.9118882779839623
    Total Energy =                       -496.8250023331584089
  Basis Set: (AUG-CC-PVTZ AUX)
    Blend: AUG-CC-PVTZ-RI
    Molecular point group: c1

    Geometry (in Angstrom), charge = 0, multiplicity = 1:

       Center              X                  Y                   Z               Mass
    ------------   -----------------  -----------------  -----------------  -----------------
         O           -0.892605741480    -0.131178968064    -0.736843600004    15.994914619570
         O           -0.403031741480     1.960701031936     0.076085399996    15.994914619570
         O           -1.915608741480    -0.116144968064     1.317275399996    15.994914619570
         C            1.935465258520    -0.590656968064    -0.045183600004    12.000000000000
         C            1.373779258520     0.585755031936    -0.860854600004    12.000000000000
         C            1.840150258520    -0.308760968064     1.453753399996    12.000000000000
         C            3.374963258520    -0.873682968064    -0.468292600004    12.000000000000
         C           -0.207332441480     0.980958431936    -0.376950300004    12.000000000000
         C           -1.947593741480    -0.391618968064     0.139561399996    12.000000000000
         C           -3.049638741480    -1.097807968064    -0.593580600004    12.000000000000
         H            1.324123258520    -1.471963968064    -0.274641600004     1.007825032230
         H            1.989626258520     1.479997031936    -0.721924600004     1.007825032230
         H            1.363800258520     0.330680031936    -1.927250600004     1.007825032230
         H            2.398864258520     0.598527031936     1.709189399996     1.007825032230
         H            2.264013258520    -1.138949968064     2.027140399996     1.007825032230
         H            0.803862258520    -0.170637968064     1.777094399996     1.007825032230
         H            4.015712258520    -0.012629968064    -0.249651600004     1.007825032230
         H            3.774628258520    -1.736151968064     0.073735399996     1.007825032230
         H            3.442894258520    -1.085079968064    -1.540254600004     1.007825032230
         H           -3.472049741480    -0.425207968064    -1.344488600004     1.007825032230
         H           -3.819659741480    -1.399313968064     0.115423399996     1.007825032230
         H           -2.649214741480    -1.970034968064    -1.115235600004     1.007825032230

  Basis Set: AUG-CC-PVTZ
    Blend: AUG-CC-PVTZ
  Basis Set: (AUG-CC-PVTZ AUX)
    Blend: AUG-CC-PVTZ-JKFIT
	 Reference Energy          =    -496.8250023331584089 [Eh]
	 Singles Energy            =      -0.0000000000000000 [Eh]
	 Same-Spin Energy          =      -0.4922291665169090 [Eh]
	 Opposite-Spin Energy      =      -1.5934729442800175 [Eh]
	 Correlation Energy        =      -2.0857021107969267 [Eh]
	 Total Energy              =    -498.9107044439553533 [Eh]

	 ================> DF-SCS-MP2 Energies <==================
	-----------------------------------------------------------
	 SCS Same-Spin Scale       =       0.3333333333333333 [-]
	 SCS Opposite-Spin Scale   =       1.2000000000000000 [-]
	 SCS Same-Spin Energy      =      -0.1640763888389696 [Eh]
	 SCS Opposite-Spin Energy  =      -1.9121675331360208 [Eh]
	 SCS Correlation Energy    =      -2.0762439219749904 [Eh]
	 SCS Total Energy          =    -498.9012462551334011 [Eh]
	-----------------------------------------------------------

  Dipole Moment: [D]
     X:    -0.6440      Y:    -2.1620      Z:    -2.2481     Total:     3.1848

*** Psi4 exiting successfully. Buy a developer a beer!
