                               Psi4 1.4a3.dev225

  ==> Input File <==

--------------------------------------------------------------------------
#psi4
#
memory 32 gb

molecule  {
0 1
  O       -0.9795470    -0.0831330    -0.7231310
  O       -0.4899730     2.0087470     0.0897980
  O       -2.0025500    -0.0680990     1.3309880
  C        1.8485240    -0.5426110    -0.0314710
  C        1.2868380     0.6338010    -0.8471420
  C        1.7532090    -0.2607150     1.4674660
  C        3.2880220    -0.8256370    -0.4545800
  C       -0.1082690     0.9825120    -0.4201650
  C       -2.0345350    -0.3435730     0.1532740
  C       -3.1365800    -1.0497620    -0.5798680
  H        1.2371820    -1.4239180    -0.2609290
  H        1.9026850     1.5280430    -0.7082120
  H        1.2768590     0.3787260    -1.9135380
  H        2.3119230     0.6465730     1.7229020
  H        2.1770720    -1.0909040     2.0408530
  H        0.7169210    -0.1225920     1.7908070
  H        3.9287710     0.0354160    -0.2359390
  H        3.6876870    -1.6881060     0.0874480
  H        3.3590557    -1.0466893    -1.5755027
  H       -3.5589910    -0.3771620    -1.3307760
  H       -3.9066010    -1.3512680     0.1291360
  H       -2.7361560    -1.9219890    -1.1015230
units angstrom
no_reorient  #important for SAPT in psi4, default
symmetry c1  #important for SAPT in psi4, default
}

set PROPERTIES_ORIGIN ["COM"]
properties('MP2/aug-cc-pvtz', properties = ['dipole'])
--------------------------------------------------------------------------

    Molecular point group: c1
  Charge       = 0
  Multiplicity = 1
  Basis Set: AUG-CC-PVTZ
    Blend: AUG-CC-PVTZ
  Basis Set: (AUG-CC-PVTZ AUX)
    Blend: AUG-CC-PVTZ-JKFIT

    Orbital Energies [Eh]
    ---------------------

    Doubly Occupied:

       1A    -20.626759     2A    -20.564871     3A    -20.564691
       4A    -11.404160     5A    -11.398586     6A    -11.254945
       7A    -11.250681     8A    -11.246316     9A    -11.230798
      10A    -11.216143    11A     -1.485599    12A     -1.405236
      13A     -1.363573    14A     -1.113529    15A     -1.042870
      16A     -0.990700    17A     -0.936174    18A     -0.867995
      19A     -0.794020    20A     -0.739507    21A     -0.702188
      22A     -0.698476    23A     -0.682774    24A     -0.648300
      25A     -0.629324    26A     -0.619148    27A     -0.592729
      28A     -0.590117    29A     -0.569929    30A     -0.555727
      31A     -0.549558    32A     -0.539786    33A     -0.527353
      34A     -0.494801    35A     -0.487386    36A     -0.478729
      37A     -0.473400    38A     -0.471466    39A     -0.439762

  @DF-RHF Final Energy:  -496.86191447701492

   => Energetics <=

    Nuclear Repulsion Energy =            555.4355528294452142
    One-Electron Energy =               -1780.0987239710352696
    Two-Electron Energy =                 727.8012566645751349
    Total Energy =                       -496.8619144770149205
  Basis Set: (AUG-CC-PVTZ AUX)
    Blend: AUG-CC-PVTZ-RI
    Molecular point group: c1

    Geometry (in Angstrom), charge = 0, multiplicity = 1:

       Center              X                  Y                   Z               Mass
    ------------   -----------------  -----------------  -----------------  -----------------
         O           -0.908119375651    -0.127239177709    -0.731759769413    15.994914619570
         O           -0.418545375651     1.964640822291     0.081169230587    15.994914619570
         O           -1.931122375651    -0.112205177709     1.322359230587    15.994914619570
         C            1.919951624349    -0.586717177709    -0.040099769413    12.000000000000
         C            1.358265624349     0.589694822291    -0.855770769413    12.000000000000
         C            1.824636624349    -0.304821177709     1.458837230587    12.000000000000
         C            3.359449624349    -0.869743177709    -0.463208769413    12.000000000000
         C           -0.036841375651     0.938405822291    -0.428793769413    12.000000000000
         C           -1.963107375651    -0.387679177709     0.144645230587    12.000000000000
         C           -3.065152375651    -1.093868177709    -0.588496769413    12.000000000000
         H            1.308609624349    -1.468024177709    -0.269557769413     1.007825032230
         H            1.974112624349     1.483936822291    -0.716840769413     1.007825032230
         H            1.348286624349     0.334619822291    -1.922166769413     1.007825032230
         H            2.383350624349     0.602466822291     1.714273230587     1.007825032230
         H            2.248499624349    -1.135010177709     2.032224230587     1.007825032230
         H            0.788348624349    -0.166698177709     1.782178230587     1.007825032230
         H            4.000198624349    -0.008690177709    -0.244567769413     1.007825032230
         H            3.759114624349    -1.732212177709     0.078819230587     1.007825032230
         H            3.430483324349    -1.090795477709    -1.584131469413     1.007825032230
         H           -3.487563375651    -0.421268177709    -1.339404769413     1.007825032230
         H           -3.835173375651    -1.395374177709     0.120507230587     1.007825032230
         H           -2.664728375651    -1.966095177709    -1.110151769413     1.007825032230

  Basis Set: AUG-CC-PVTZ
    Blend: AUG-CC-PVTZ
  Basis Set: (AUG-CC-PVTZ AUX)
    Blend: AUG-CC-PVTZ-JKFIT
	 Reference Energy          =    -496.8619144770149205 [Eh]
	 Singles Energy            =      -0.0000000000000000 [Eh]
	 Same-Spin Energy          =      -0.4946014506056715 [Eh]
	 Opposite-Spin Energy      =      -1.5981441077957437 [Eh]
	 Correlation Energy        =      -2.0927455584014152 [Eh]
	 Total Energy              =    -498.9546600354163388 [Eh]

	 ================> DF-SCS-MP2 Energies <==================
	-----------------------------------------------------------
	 SCS Same-Spin Scale       =       0.3333333333333333 [-]
	 SCS Opposite-Spin Scale   =       1.2000000000000000 [-]
	 SCS Same-Spin Energy      =      -0.1648671502018905 [Eh]
	 SCS Opposite-Spin Energy  =      -1.9177729293548924 [Eh]
	 SCS Correlation Energy    =      -2.0826400795567830 [Eh]
	 SCS Total Energy          =    -498.9445545565716884 [Eh]
	-----------------------------------------------------------

  Dipole Moment: [D]
     X:     0.7735      Y:    -2.4885      Z:    -2.5052     Total:     3.6149

*** Psi4 exiting successfully. Buy a developer a beer!
