                               Psi4 1.4a3.dev225

  ==> Input File <==

--------------------------------------------------------------------------
#psi4
#
memory 32 gb

molecule  {
0 1
  O       -0.9795470    -0.0831330    -0.7231310
  O       -0.4899730     2.0087470     0.0897980
  O       -2.0025500    -0.0680990     1.3309880
  C        1.8485240    -0.5426110    -0.0314710
  C        1.2868380     0.6338010    -0.8471420
  C        1.7532090    -0.2607150     1.4674660
  C        3.2880220    -0.8256370    -0.4545800
  C       -0.1082690     0.9825120    -0.4201650
  C       -2.0345350    -0.3435730     0.1532740
  C       -3.1733091    -1.0732980    -0.6043022
  H        1.2371820    -1.4239180    -0.2609290
  H        1.9026850     1.5280430    -0.7082120
  H        1.2768590     0.3787260    -1.9135380
  H        2.3119230     0.6465730     1.7229020
  H        2.1770720    -1.0909040     2.0408530
  H        0.7169210    -0.1225920     1.7908070
  H        3.9287710     0.0354160    -0.2359390
  H        3.6876870    -1.6881060     0.0874480
  H        3.3559530    -1.0370340    -1.5265420
  H       -3.5589910    -0.3771620    -1.3307760
  H       -3.9066010    -1.3512680     0.1291360
  H       -2.7361560    -1.9219890    -1.1015230
units angstrom
no_reorient  #important for SAPT in psi4, default
symmetry c1  #important for SAPT in psi4, default
}

set PROPERTIES_ORIGIN ["COM"]
properties('MP2/aug-cc-pvtz', properties = ['dipole'])
--------------------------------------------------------------------------

    Molecular point group: c1
  Charge       = 0
  Multiplicity = 1
  Basis Set: AUG-CC-PVTZ
    Blend: AUG-CC-PVTZ
  Basis Set: (AUG-CC-PVTZ AUX)
    Blend: AUG-CC-PVTZ-JKFIT

    Orbital Energies [Eh]
    ---------------------

    Doubly Occupied:

       1A    -20.627109     2A    -20.565305     3A    -20.564718
       4A    -11.405401     5A    -11.398658     6A    -11.254519
       7A    -11.250739     8A    -11.245823     9A    -11.224696
      10A    -11.215642    11A     -1.485061    12A     -1.404830
      13A     -1.363391    14A     -1.113551    15A     -1.036474
      16A     -0.991044    17A     -0.938735    18A     -0.869170
      19A     -0.794675    20A     -0.738751    21A     -0.699511
      22A     -0.696763    23A     -0.681554    24A     -0.648538
      25A     -0.630006    26A     -0.617650    27A     -0.597813
      28A     -0.592434    29A     -0.572888    30A     -0.557436
      31A     -0.551689    32A     -0.539827    33A     -0.529251
      34A     -0.495833    35A     -0.487646    36A     -0.479388
      37A     -0.472998    38A     -0.470885    39A     -0.437282

  @DF-RHF Final Energy:  -496.86204099693003

   => Energetics <=

    Nuclear Repulsion Energy =            554.7016227160634116
    One-Electron Energy =               -1778.6319651473272643
    Two-Electron Energy =                 727.0683014343337618
    Total Energy =                       -496.8620409969300908
  Basis Set: (AUG-CC-PVTZ AUX)
    Blend: AUG-CC-PVTZ-RI
    Molecular point group: c1

    Geometry (in Angstrom), charge = 0, multiplicity = 1:

       Center              X                  Y                   Z               Mass
    ------------   -----------------  -----------------  -----------------  -----------------
         O           -0.905038584733    -0.125346453437    -0.730067175884    15.994914619570
         O           -0.415464584733     1.966533546563     0.082861824116    15.994914619570
         O           -1.928041584733    -0.110312453437     1.324051824116    15.994914619570
         C            1.923032415267    -0.584824453437    -0.038407175884    12.000000000000
         C            1.361346415267     0.591587546563    -0.854078175884    12.000000000000
         C            1.827717415267    -0.302928453437     1.460529824116    12.000000000000
         C            3.362530415267    -0.867850453437    -0.461516175884    12.000000000000
         C           -0.033760584733     0.940298546563    -0.427101175884    12.000000000000
         C           -1.960026584733    -0.385786453437     0.146337824116    12.000000000000
         C           -3.098800684733    -1.115511453437    -0.611238375884    12.000000000000
         H            1.311690415267    -1.466131453437    -0.267865175884     1.007825032230
         H            1.977193415267     1.485829546563    -0.715148175884     1.007825032230
         H            1.351367415267     0.336512546563    -1.920474175884     1.007825032230
         H            2.386431415267     0.604359546563     1.715965824116     1.007825032230
         H            2.251580415267    -1.133117453437     2.033916824116     1.007825032230
         H            0.791429415267    -0.164805453437     1.783870824116     1.007825032230
         H            4.003279415267    -0.006797453437    -0.242875175884     1.007825032230
         H            3.762195415267    -1.730319453437     0.080511824116     1.007825032230
         H            3.430461415267    -1.079247453437    -1.533478175884     1.007825032230
         H           -3.484482584733    -0.419375453437    -1.337712175884     1.007825032230
         H           -3.832092584733    -1.393481453437     0.122199824116     1.007825032230
         H           -2.661647584733    -1.964202453437    -1.108459175884     1.007825032230

  Basis Set: AUG-CC-PVTZ
    Blend: AUG-CC-PVTZ
  Basis Set: (AUG-CC-PVTZ AUX)
    Blend: AUG-CC-PVTZ-JKFIT
	 Reference Energy          =    -496.8620409969300340 [Eh]
	 Singles Energy            =      -0.0000000000000000 [Eh]
	 Same-Spin Energy          =      -0.4943796123140597 [Eh]
	 Opposite-Spin Energy      =      -1.5977723327291042 [Eh]
	 Correlation Energy        =      -2.0921519450431640 [Eh]
	 Total Energy              =    -498.9541929419731900 [Eh]

	 ================> DF-SCS-MP2 Energies <==================
	-----------------------------------------------------------
	 SCS Same-Spin Scale       =       0.3333333333333333 [-]
	 SCS Opposite-Spin Scale   =       1.2000000000000000 [-]
	 SCS Same-Spin Energy      =      -0.1647932041046866 [Eh]
	 SCS Opposite-Spin Energy  =      -1.9173267992749250 [Eh]
	 SCS Correlation Energy    =      -2.0821200033796115 [Eh]
	 SCS Total Energy          =    -498.9441610003096343 [Eh]
	-----------------------------------------------------------

  Dipole Moment: [D]
     X:     0.8415      Y:    -2.4634      Z:    -2.5029     Total:     3.6113

*** Psi4 exiting successfully. Buy a developer a beer!
