                               Psi4 1.4a3.dev225

  ==> Input File <==

--------------------------------------------------------------------------
#psi4
#
memory 32 gb

molecule  {
0 1
  O       -0.9795470    -0.0831330    -0.7231310
  O       -0.4899730     2.0087470     0.0897980
  O       -2.0025500    -0.0680990     1.3309880
  C        1.8485240    -0.5426110    -0.0314710
  C        1.2868380     0.6338010    -0.8471420
  C        1.7532090    -0.2607150     1.4674660
  C        3.2880220    -0.8256370    -0.4545800
  C       -0.1082690     0.9825120    -0.4201650
  C       -2.0345350    -0.3435730     0.1532740
  C       -3.1365800    -1.0497620    -0.5798680
  H        1.2371820    -1.4239180    -0.2609290
  H        1.9026850     1.5280430    -0.7082120
  H        1.2773140     0.3903571    -1.8649118
  H        2.3119230     0.6465730     1.7229020
  H        2.1770720    -1.0909040     2.0408530
  H        0.7169210    -0.1225920     1.7908070
  H        3.9287710     0.0354160    -0.2359390
  H        3.6876870    -1.6881060     0.0874480
  H        3.3559530    -1.0370340    -1.5265420
  H       -3.5589910    -0.3771620    -1.3307760
  H       -3.9066010    -1.3512680     0.1291360
  H       -2.7361560    -1.9219890    -1.1015230
units angstrom
no_reorient  #important for SAPT in psi4, default
symmetry c1  #important for SAPT in psi4, default
}

set PROPERTIES_ORIGIN ["COM"]
properties('MP2/aug-cc-pvtz', properties = ['dipole'])
--------------------------------------------------------------------------

    Molecular point group: c1
  Charge       = 0
  Multiplicity = 1
  Basis Set: AUG-CC-PVTZ
    Blend: AUG-CC-PVTZ
  Basis Set: (AUG-CC-PVTZ AUX)
    Blend: AUG-CC-PVTZ-JKFIT

    Orbital Energies [Eh]
    ---------------------

    Doubly Occupied:

       1A    -20.626732     2A    -20.564798     3A    -20.564344
       4A    -11.404112     5A    -11.398154     6A    -11.254922
       7A    -11.245534     8A    -11.244611     9A    -11.224655
      10A    -11.215205    11A     -1.485514    12A     -1.405027
      13A     -1.363435    14A     -1.114850    15A     -1.042948
      16A     -0.993412    17A     -0.938676    18A     -0.869008
      19A     -0.794730    20A     -0.740190    21A     -0.702205
      22A     -0.700547    23A     -0.682825    24A     -0.652259
      25A     -0.630100    26A     -0.620680    27A     -0.594466
      28A     -0.590047    29A     -0.571374    30A     -0.555580
      31A     -0.552287    32A     -0.540164    33A     -0.527366
      34A     -0.495901    35A     -0.487110    36A     -0.479974
      37A     -0.474796    38A     -0.471100    39A     -0.439433

  @DF-RHF Final Energy:  -496.86313403304928

   => Energetics <=

    Nuclear Repulsion Energy =            555.9132768132313913
    One-Electron Energy =               -1781.0346841028151630
    Two-Electron Energy =                 728.2582732565343804
    Total Energy =                       -496.8631340330492776
  Basis Set: (AUG-CC-PVTZ AUX)
    Blend: AUG-CC-PVTZ-RI
    Molecular point group: c1

    Geometry (in Angstrom), charge = 0, multiplicity = 1:

       Center              X                  Y                   Z               Mass
    ------------   -----------------  -----------------  -----------------  -----------------
         O           -0.908100855083    -0.127388075325    -0.732442386335    15.994914619570
         O           -0.418526855083     1.964491924675     0.080486613665    15.994914619570
         O           -1.931103855083    -0.112354075325     1.321676613665    15.994914619570
         C            1.919970144917    -0.586866075325    -0.040782386335    12.000000000000
         C            1.358284144917     0.589545924675    -0.856453386335    12.000000000000
         C            1.824655144917    -0.304970075325     1.458154613665    12.000000000000
         C            3.359468144917    -0.869892075325    -0.463891386335    12.000000000000
         C           -0.036822855083     0.938256924675    -0.429476386335    12.000000000000
         C           -1.963088855083    -0.387828075325     0.143962613665    12.000000000000
         C           -3.065133855083    -1.094017075325    -0.589179386335    12.000000000000
         H            1.308628144917    -1.468173075325    -0.270240386335     1.007825032230
         H            1.974131144917     1.483787924675    -0.717523386335     1.007825032230
         H            1.348760144917     0.346102024675    -1.874223186335     1.007825032230
         H            2.383369144917     0.602317924675     1.713590613665     1.007825032230
         H            2.248518144917    -1.135159075325     2.031541613665     1.007825032230
         H            0.788367144917    -0.166847075325     1.781495613665     1.007825032230
         H            4.000217144917    -0.008839075325    -0.245250386335     1.007825032230
         H            3.759133144917    -1.732361075325     0.078136613665     1.007825032230
         H            3.427399144917    -1.081289075325    -1.535853386335     1.007825032230
         H           -3.487544855083    -0.421417075325    -1.340087386335     1.007825032230
         H           -3.835154855083    -1.395523075325     0.119824613665     1.007825032230
         H           -2.664709855083    -1.966244075325    -1.110834386335     1.007825032230

  Basis Set: AUG-CC-PVTZ
    Blend: AUG-CC-PVTZ
  Basis Set: (AUG-CC-PVTZ AUX)
    Blend: AUG-CC-PVTZ-JKFIT
	 Reference Energy          =    -496.8631340330492776 [Eh]
	 Singles Energy            =      -0.0000000000000000 [Eh]
	 Same-Spin Energy          =      -0.4945673900187353 [Eh]
	 Opposite-Spin Energy      =      -1.5974963643868942 [Eh]
	 Correlation Energy        =      -2.0920637544056295 [Eh]
	 Total Energy              =    -498.9551977874548925 [Eh]

	 ================> DF-SCS-MP2 Energies <==================
	-----------------------------------------------------------
	 SCS Same-Spin Scale       =       0.3333333333333333 [-]
	 SCS Opposite-Spin Scale   =       1.2000000000000000 [-]
	 SCS Same-Spin Energy      =      -0.1648557966729118 [Eh]
	 SCS Opposite-Spin Energy  =      -1.9169956372642729 [Eh]
	 SCS Correlation Energy    =      -2.0818514339371847 [Eh]
	 SCS Total Energy          =    -498.9449854669864521 [Eh]
	-----------------------------------------------------------

  Dipole Moment: [D]
     X:     0.7856      Y:    -2.4949      Z:    -2.5570     Total:     3.6579

*** Psi4 exiting successfully. Buy a developer a beer!
