                               Psi4 1.4a3.dev225

  ==> Input File <==

--------------------------------------------------------------------------
#psi4
#
memory 32 gb

molecule  {
0 1
  O       -0.9795470    -0.0831330    -0.7231310
  O       -0.4899730     2.0087470     0.0897980
  O       -2.0025500    -0.0680990     1.3309880
  C        1.8485240    -0.5426110    -0.0314710
  C        1.2868380     0.6338010    -0.8471420
  C        1.7532090    -0.2607150     1.4674660
  C        3.2880220    -0.8256370    -0.4545800
  C       -0.1082690     0.9825120    -0.4201650
  C       -2.0345350    -0.3435730     0.1532740
  C       -3.1365800    -1.0497620    -0.5798680
  H        1.2371820    -1.4239180    -0.2609290
  H        1.9026850     1.5280430    -0.7082120
  H        1.2768590     0.3787260    -1.9135380
  H        2.3119230     0.6465730     1.7229020
  H        2.1770720    -1.0909040     2.0408530
  H        0.7169210    -0.1225920     1.7908070
  H        3.8995222    -0.0038892    -0.2459195
  H        3.6876870    -1.6881060     0.0874480
  H        3.3559530    -1.0370340    -1.5265420
  H       -3.5589910    -0.3771620    -1.3307760
  H       -3.9066010    -1.3512680     0.1291360
  H       -2.7361560    -1.9219890    -1.1015230
units angstrom
no_reorient  #important for SAPT in psi4, default
symmetry c1  #important for SAPT in psi4, default
}

set PROPERTIES_ORIGIN ["COM"]
properties('MP2/aug-cc-pvtz', properties = ['dipole'])
--------------------------------------------------------------------------

    Molecular point group: c1
  Charge       = 0
  Multiplicity = 1
  Basis Set: AUG-CC-PVTZ
    Blend: AUG-CC-PVTZ
  Basis Set: (AUG-CC-PVTZ AUX)
    Blend: AUG-CC-PVTZ-JKFIT

    Orbital Energies [Eh]
    ---------------------

    Doubly Occupied:

       1A    -20.626595     2A    -20.564704     3A    -20.564534
       4A    -11.404003     5A    -11.398468     6A    -11.254828
       7A    -11.250570     8A    -11.245169     9A    -11.218356
      10A    -11.215497    11A     -1.485431    12A     -1.405078
      13A     -1.363410    14A     -1.113998    15A     -1.042968
      16A     -0.992141    17A     -0.941173    18A     -0.868471
      19A     -0.796388    20A     -0.739363    21A     -0.702035
      22A     -0.698303    23A     -0.682825    24A     -0.649554
      25A     -0.629203    26A     -0.620668    27A     -0.594110
      28A     -0.590291    29A     -0.570383    30A     -0.558609
      31A     -0.554372    32A     -0.540566    33A     -0.527431
      34A     -0.495469    35A     -0.487370    36A     -0.480076
      37A     -0.473656    38A     -0.471538    39A     -0.439440

  @DF-RHF Final Energy:  -496.86295835906884

   => Energetics <=

    Nuclear Repulsion Energy =            555.8669811488142614
    One-Electron Energy =               -1780.9457940036861601
    Two-Electron Energy =                 728.2158544958032280
    Total Energy =                       -496.8629583590687844
  Basis Set: (AUG-CC-PVTZ AUX)
    Blend: AUG-CC-PVTZ-RI
    Molecular point group: c1

    Geometry (in Angstrom), charge = 0, multiplicity = 1:

       Center              X                  Y                   Z               Mass
    ------------   -----------------  -----------------  -----------------  -----------------
         O           -0.907893078050    -0.127031777704    -0.732032434536    15.994914619570
         O           -0.418319078050     1.964848222296     0.080896565464    15.994914619570
         O           -1.930896078050    -0.111997777704     1.322086565464    15.994914619570
         C            1.920177921950    -0.586509777704    -0.040372434536    12.000000000000
         C            1.358491921950     0.589902222296    -0.856043434536    12.000000000000
         C            1.824862921950    -0.304613777704     1.458564565464    12.000000000000
         C            3.359675921950    -0.869535777704    -0.463481434536    12.000000000000
         C           -0.036615078050     0.938613222296    -0.429066434536    12.000000000000
         C           -1.962881078050    -0.387471777704     0.144372565464    12.000000000000
         C           -3.064926078050    -1.093660777704    -0.588769434536    12.000000000000
         H            1.308835921950    -1.467816777704    -0.269830434536     1.007825032230
         H            1.974338921950     1.484144222296    -0.717113434536     1.007825032230
         H            1.348512921950     0.334827222296    -1.922439434536     1.007825032230
         H            2.383576921950     0.602674222296     1.714000565464     1.007825032230
         H            2.248725921950    -1.134802777704     2.031951565464     1.007825032230
         H            0.788574921950    -0.166490777704     1.781905565464     1.007825032230
         H            3.971176121950    -0.047787977704    -0.254820934536     1.007825032230
         H            3.759340921950    -1.732004777704     0.078546565464     1.007825032230
         H            3.427606921950    -1.080932777704    -1.535443434536     1.007825032230
         H           -3.487337078050    -0.421060777704    -1.339677434536     1.007825032230
         H           -3.834947078050    -1.395166777704     0.120234565464     1.007825032230
         H           -2.664502078050    -1.965887777704    -1.110424434536     1.007825032230

  Basis Set: AUG-CC-PVTZ
    Blend: AUG-CC-PVTZ
  Basis Set: (AUG-CC-PVTZ AUX)
    Blend: AUG-CC-PVTZ-JKFIT
	 Reference Energy          =    -496.8629583590688412 [Eh]
	 Singles Energy            =      -0.0000000000000000 [Eh]
	 Same-Spin Energy          =      -0.4946187930358610 [Eh]
	 Opposite-Spin Energy      =      -1.5975459735357100 [Eh]
	 Correlation Energy        =      -2.0921647665715710 [Eh]
	 Total Energy              =    -498.9551231256403980 [Eh]

	 ================> DF-SCS-MP2 Energies <==================
	-----------------------------------------------------------
	 SCS Same-Spin Scale       =       0.3333333333333333 [-]
	 SCS Opposite-Spin Scale   =       1.2000000000000000 [-]
	 SCS Same-Spin Energy      =      -0.1648729310119537 [Eh]
	 SCS Opposite-Spin Energy  =      -1.9170551682428520 [Eh]
	 SCS Correlation Energy    =      -2.0819280992548057 [Eh]
	 SCS Total Energy          =    -498.9448864583236514 [Eh]
	-----------------------------------------------------------

  Dipole Moment: [D]
     X:     0.8091      Y:    -2.4790      Z:    -2.5384     Total:     3.6392

*** Psi4 exiting successfully. Buy a developer a beer!
