                               Psi4 1.4a3.dev225

  ==> Input File <==

--------------------------------------------------------------------------
#psi4
#
memory 32 gb

molecule  {
0 1
  O       -0.9795470    -0.0831330    -0.7231310
  O       -0.4899730     2.0087470     0.0897980
  O       -2.0025500    -0.0680990     1.3309880
  C        1.8485240    -0.5426110    -0.0314710
  C        1.2868380     0.6338010    -0.8471420
  C        1.7532090    -0.2607150     1.4674660
  C        3.2880220    -0.8256370    -0.4545800
  C       -0.1082690     0.9825120    -0.4201650
  C       -2.0340063    -0.3390194     0.1727415
  C       -3.1365800    -1.0497620    -0.5798680
  H        1.2371820    -1.4239180    -0.2609290
  H        1.9026850     1.5280430    -0.7082120
  H        1.2768590     0.3787260    -1.9135380
  H        2.3119230     0.6465730     1.7229020
  H        2.1770720    -1.0909040     2.0408530
  H        0.7169210    -0.1225920     1.7908070
  H        3.9287710     0.0354160    -0.2359390
  H        3.6876870    -1.6881060     0.0874480
  H        3.3559530    -1.0370340    -1.5265420
  H       -3.5589910    -0.3771620    -1.3307760
  H       -3.9066010    -1.3512680     0.1291360
  H       -2.7361560    -1.9219890    -1.1015230
units angstrom
no_reorient  #important for SAPT in psi4, default
symmetry c1  #important for SAPT in psi4, default
}

set PROPERTIES_ORIGIN ["COM"]
properties('MP2/aug-cc-pvtz', properties = ['dipole'])
--------------------------------------------------------------------------

    Molecular point group: c1
  Charge       = 0
  Multiplicity = 1
  Basis Set: AUG-CC-PVTZ
    Blend: AUG-CC-PVTZ
  Basis Set: (AUG-CC-PVTZ AUX)
    Blend: AUG-CC-PVTZ-JKFIT

    Orbital Energies [Eh]
    ---------------------

    Doubly Occupied:

       1A    -20.623683     2A    -20.568397     3A    -20.563534
       4A    -11.402564     5A    -11.396903     6A    -11.254507
       7A    -11.249731     8A    -11.245362     9A    -11.224346
      10A    -11.215709    11A     -1.485129    12A     -1.413282
      13A     -1.365675    14A     -1.112936    15A     -1.038888
      16A     -0.989847    17A     -0.938580    18A     -0.864359
      19A     -0.794082    20A     -0.740092    21A     -0.703084
      22A     -0.697894    23A     -0.682713    24A     -0.648432
      25A     -0.629219    26A     -0.622441    27A     -0.595593
      28A     -0.588879    29A     -0.569215    30A     -0.554850
      31A     -0.551185    32A     -0.539620    33A     -0.531451
      34A     -0.495477    35A     -0.489572    36A     -0.479722
      37A     -0.474324    38A     -0.471652    39A     -0.438555

  @DF-RHF Final Energy:  -496.86503056909578

   => Energetics <=

    Nuclear Repulsion Energy =            555.7392665216564183
    One-Electron Energy =               -1780.7056258410145801
    Two-Electron Energy =                 728.1013287502623825
    Total Energy =                       -496.8650305690957794
  Basis Set: (AUG-CC-PVTZ AUX)
    Blend: AUG-CC-PVTZ-RI
    Molecular point group: c1

    Geometry (in Angstrom), charge = 0, multiplicity = 1:

       Center              X                  Y                   Z               Mass
    ------------   -----------------  -----------------  -----------------  -----------------
         O           -0.908141706659    -0.127685975729    -0.733723653933    15.994914619570
         O           -0.418567706659     1.964194024271     0.079205346067    15.994914619570
         O           -1.931144706659    -0.112651975729     1.320395346067    15.994914619570
         C            1.919929293341    -0.587163975729    -0.042063653933    12.000000000000
         C            1.358243293341     0.589248024271    -0.857734653933    12.000000000000
         C            1.824614293341    -0.305267975729     1.456873346067    12.000000000000
         C            3.359427293341    -0.870189975729    -0.465172653933    12.000000000000
         C           -0.036863706659     0.937959024271    -0.430757653933    12.000000000000
         C           -1.962601006659    -0.383572375729     0.162148846067    12.000000000000
         C           -3.065174706659    -1.094314975729    -0.590460653933    12.000000000000
         H            1.308587293341    -1.468470975729    -0.271521653933     1.007825032230
         H            1.974090293341     1.483490024271    -0.718804653933     1.007825032230
         H            1.348264293341     0.334173024271    -1.924130653933     1.007825032230
         H            2.383328293341     0.602020024271     1.712309346067     1.007825032230
         H            2.248477293341    -1.135456975729     2.030260346067     1.007825032230
         H            0.788326293341    -0.167144975729     1.780214346067     1.007825032230
         H            4.000176293341    -0.009136975729    -0.246531653933     1.007825032230
         H            3.759092293341    -1.732658975729     0.076855346067     1.007825032230
         H            3.427358293341    -1.081586975729    -1.537134653933     1.007825032230
         H           -3.487585706659    -0.421714975729    -1.341368653933     1.007825032230
         H           -3.835195706659    -1.395820975729     0.118543346067     1.007825032230
         H           -2.664750706659    -1.966541975729    -1.112115653933     1.007825032230

  Basis Set: AUG-CC-PVTZ
    Blend: AUG-CC-PVTZ
  Basis Set: (AUG-CC-PVTZ AUX)
    Blend: AUG-CC-PVTZ-JKFIT
	 Reference Energy          =    -496.8650305690957794 [Eh]
	 Singles Energy            =      -0.0000000000000000 [Eh]
	 Same-Spin Energy          =      -0.4941825865387096 [Eh]
	 Opposite-Spin Energy      =      -1.5969943107044626 [Eh]
	 Correlation Energy        =      -2.0911768972431721 [Eh]
	 Total Energy              =    -498.9562074663389240 [Eh]

	 ================> DF-SCS-MP2 Energies <==================
	-----------------------------------------------------------
	 SCS Same-Spin Scale       =       0.3333333333333333 [-]
	 SCS Opposite-Spin Scale   =       1.2000000000000000 [-]
	 SCS Same-Spin Energy      =      -0.1647275288462365 [Eh]
	 SCS Opposite-Spin Energy  =      -1.9163931728453552 [Eh]
	 SCS Correlation Energy    =      -2.0811207016915918 [Eh]
	 SCS Total Energy          =    -498.9461512707873680 [Eh]
	-----------------------------------------------------------

  Dipole Moment: [D]
     X:     0.7394      Y:    -2.4993      Z:    -2.4161     Total:     3.5540

*** Psi4 exiting successfully. Buy a developer a beer!
