                               Psi4 1.4a3.dev225

  ==> Input File <==

--------------------------------------------------------------------------
#psi4
#
memory 32 gb

molecule  {
0 1
  O       -0.9795470    -0.0831330    -0.7231310
  O       -0.4899730     2.0087470     0.0897980
  O       -2.0025500    -0.0680990     1.3309880
  C        1.8485240    -0.5426110    -0.0314710
  C        1.3598897     0.4807993    -0.7410575
  C        1.7532090    -0.2607150     1.4674660
  C        3.2880220    -0.8256370    -0.4545800
  C       -0.1082690     0.9825120    -0.4201650
  C       -2.0345350    -0.3435730     0.1532740
  C       -3.1365800    -1.0497620    -0.5798680
  H        1.2371820    -1.4239180    -0.2609290
  H        1.9026850     1.5280430    -0.7082120
  H        1.2768590     0.3787260    -1.9135380
  H        2.3119230     0.6465730     1.7229020
  H        2.1770720    -1.0909040     2.0408530
  H        0.7169210    -0.1225920     1.7908070
  H        3.9287710     0.0354160    -0.2359390
  H        3.6876870    -1.6881060     0.0874480
  H        3.3559530    -1.0370340    -1.5265420
  H       -3.5589910    -0.3771620    -1.3307760
  H       -3.9066010    -1.3512680     0.1291360
  H       -2.7361560    -1.9219890    -1.1015230
units angstrom
no_reorient  #important for SAPT in psi4, default
symmetry c1  #important for SAPT in psi4, default
}

set PROPERTIES_ORIGIN ["COM"]
properties('MP2/aug-cc-pvtz', properties = ['dipole'])
--------------------------------------------------------------------------

    Molecular point group: c1
  Charge       = 0
  Multiplicity = 1
  Basis Set: AUG-CC-PVTZ
    Blend: AUG-CC-PVTZ
  Basis Set: (AUG-CC-PVTZ AUX)
    Blend: AUG-CC-PVTZ-JKFIT

    Orbital Energies [Eh]
    ---------------------

    Doubly Occupied:

       1A    -20.624585     2A    -20.570033     3A    -20.564862
       4A    -11.403901     5A    -11.402108     6A    -11.263795
       7A    -11.254634     8A    -11.231830     9A    -11.226100
      10A    -11.217198    11A     -1.484853    12A     -1.406008
      13A     -1.363887    14A     -1.146559    15A     -1.042163
      16A     -0.976132    17A     -0.942142    18A     -0.875201
      19A     -0.801171    20A     -0.738169    21A     -0.703048
      22A     -0.695349    23A     -0.683225    24A     -0.656252
      25A     -0.628695    26A     -0.626414    27A     -0.597296
      28A     -0.589229    29A     -0.569787    30A     -0.548518
      31A     -0.538777    32A     -0.536147    33A     -0.528856
      34A     -0.512857    35A     -0.496152    36A     -0.479333
      37A     -0.474970    38A     -0.455690    39A     -0.428629

  @DF-RHF Final Energy:  -496.81611238915815

   => Energetics <=

    Nuclear Repulsion Energy =            557.3507866071760191
    One-Electron Energy =               -1783.7646837616084667
    Two-Electron Energy =                 729.5977847652743549
    Total Energy =                       -496.8161123891582065
  Basis Set: (AUG-CC-PVTZ AUX)
    Blend: AUG-CC-PVTZ-RI
    Molecular point group: c1

    Geometry (in Angstrom), charge = 0, multiplicity = 1:

       Center              X                  Y                   Z               Mass
    ------------   -----------------  -----------------  -----------------  -----------------
         O           -0.914181991147    -0.114563534094    -0.740937797330    15.994914619570
         O           -0.424607991147     1.977316465906     0.071991202670    15.994914619570
         O           -1.937184991147    -0.099529534094     1.313181202670    15.994914619570
         C            1.913889008853    -0.574041534094    -0.049277797330    12.000000000000
         C            1.425254708853     0.449368765906    -0.758864297330    12.000000000000
         C            1.818574008853    -0.292145534094     1.449659202670    12.000000000000
         C            3.353387008853    -0.857067534094    -0.472386797330    12.000000000000
         C           -0.042903991147     0.951081465906    -0.437971797330    12.000000000000
         C           -1.969169991147    -0.375003534094     0.135467202670    12.000000000000
         C           -3.071214991147    -1.081192534094    -0.597674797330    12.000000000000
         H            1.302547008853    -1.455348534094    -0.278735797330     1.007825032230
         H            1.968050008853     1.496612465906    -0.726018797330     1.007825032230
         H            1.342224008853     0.347295465906    -1.931344797330     1.007825032230
         H            2.377288008853     0.615142465906     1.705095202670     1.007825032230
         H            2.242437008853    -1.122334534094     2.023046202670     1.007825032230
         H            0.782286008853    -0.154022534094     1.773000202670     1.007825032230
         H            3.994136008853     0.003985465906    -0.253745797330     1.007825032230
         H            3.753052008853    -1.719536534094     0.069641202670     1.007825032230
         H            3.421318008853    -1.068464534094    -1.544348797330     1.007825032230
         H           -3.493625991147    -0.408592534094    -1.348582797330     1.007825032230
         H           -3.841235991147    -1.382698534094     0.111329202670     1.007825032230
         H           -2.670790991147    -1.953419534094    -1.119329797330     1.007825032230

  Basis Set: AUG-CC-PVTZ
    Blend: AUG-CC-PVTZ
  Basis Set: (AUG-CC-PVTZ AUX)
    Blend: AUG-CC-PVTZ-JKFIT
	 Reference Energy          =    -496.8161123891581497 [Eh]
	 Singles Energy            =      -0.0000000000000000 [Eh]
	 Same-Spin Energy          =      -0.4975146957333837 [Eh]
	 Opposite-Spin Energy      =      -1.6022735715066818 [Eh]
	 Correlation Energy        =      -2.0997882672400654 [Eh]
	 Total Energy              =    -498.9159006563982075 [Eh]

	 ================> DF-SCS-MP2 Energies <==================
	-----------------------------------------------------------
	 SCS Same-Spin Scale       =       0.3333333333333333 [-]
	 SCS Opposite-Spin Scale   =       1.2000000000000000 [-]
	 SCS Same-Spin Energy      =      -0.1658382319111279 [Eh]
	 SCS Opposite-Spin Energy  =      -1.9227282858080181 [Eh]
	 SCS Correlation Energy    =      -2.0885665177191459 [Eh]
	 SCS Total Energy          =    -498.9046789068772796 [Eh]
	-----------------------------------------------------------

  Dipole Moment: [D]
     X:     0.6825      Y:    -2.4957      Z:    -2.4196     Total:     3.5424

*** Psi4 exiting successfully. Buy a developer a beer!
