                               Psi4 1.4a3.dev225

  ==> Input File <==

--------------------------------------------------------------------------
#psi4
#
memory 32 gb

molecule  {
0 1
  O       -0.9795470    -0.0831330    -0.7231310
  O       -0.4899730     2.0087470     0.0897980
  O       -2.0025500    -0.0680990     1.3309880
  C        1.8655844    -0.5356083     0.0185311
  C        1.2868380     0.6338010    -0.8471420
  C        1.7532090    -0.2607150     1.4674660
  C        3.2880220    -0.8256370    -0.4545800
  C       -0.1082690     0.9825120    -0.4201650
  C       -2.0345350    -0.3435730     0.1532740
  C       -3.1365800    -1.0497620    -0.5798680
  H        1.2371820    -1.4239180    -0.2609290
  H        1.9026850     1.5280430    -0.7082120
  H        1.2768590     0.3787260    -1.9135380
  H        2.3119230     0.6465730     1.7229020
  H        2.1770720    -1.0909040     2.0408530
  H        0.7169210    -0.1225920     1.7908070
  H        3.9287710     0.0354160    -0.2359390
  H        3.6876870    -1.6881060     0.0874480
  H        3.3559530    -1.0370340    -1.5265420
  H       -3.5589910    -0.3771620    -1.3307760
  H       -3.9066010    -1.3512680     0.1291360
  H       -2.7361560    -1.9219890    -1.1015230
units angstrom
no_reorient  #important for SAPT in psi4, default
symmetry c1  #important for SAPT in psi4, default
}

set PROPERTIES_ORIGIN ["COM"]
properties('MP2/aug-cc-pvtz', properties = ['dipole'])
--------------------------------------------------------------------------

    Molecular point group: c1
  Charge       = 0
  Multiplicity = 1
  Basis Set: AUG-CC-PVTZ
    Blend: AUG-CC-PVTZ
  Basis Set: (AUG-CC-PVTZ AUX)
    Blend: AUG-CC-PVTZ-JKFIT

    Orbital Energies [Eh]
    ---------------------

    Doubly Occupied:

       1A    -20.626220     2A    -20.564580     3A    -20.563939
       4A    -11.403856     5A    -11.397760     6A    -11.254688
       7A    -11.250821     8A    -11.247853     9A    -11.225038
      10A    -11.214639    11A     -1.485057    12A     -1.404751
      13A     -1.363064    14A     -1.114257    15A     -1.043272
      16A     -0.992550    17A     -0.944072    18A     -0.866819
      19A     -0.789688    20A     -0.738924    21A     -0.701351
      22A     -0.697057    23A     -0.682690    24A     -0.649279
      25A     -0.628652    26A     -0.622922    27A     -0.595243
      28A     -0.589898    29A     -0.571759    30A     -0.555284
      31A     -0.551932    32A     -0.540853    33A     -0.527265
      34A     -0.501395    35A     -0.484723    36A     -0.482746
      37A     -0.474639    38A     -0.462990    39A     -0.437628

  @DF-RHF Final Energy:  -496.86072926696301

   => Energetics <=

    Nuclear Repulsion Energy =            555.6399027063495168
    One-Electron Energy =               -1780.5009492653578036
    Two-Electron Energy =                 728.0003172920452243
    Total Energy =                       -496.8607292669629487
  Basis Set: (AUG-CC-PVTZ AUX)
    Blend: AUG-CC-PVTZ-RI
    Molecular point group: c1

    Geometry (in Angstrom), charge = 0, multiplicity = 1:

       Center              X                  Y                   Z               Mass
    ------------   -----------------  -----------------  -----------------  -----------------
         O           -0.909518596350    -0.127889955994    -0.736266815009    15.994914619570
         O           -0.419944596350     1.963990044006     0.076662184991    15.994914619570
         O           -1.932521596350    -0.112855955994     1.317852184991    15.994914619570
         C            1.935612803650    -0.580365255994     0.005395284991    12.000000000000
         C            1.356866403650     0.589044044006    -0.860277815009    12.000000000000
         C            1.823237403650    -0.305471955994     1.454330184991    12.000000000000
         C            3.358050403650    -0.870393955994    -0.467715815009    12.000000000000
         C           -0.038240596350     0.937755044006    -0.433300815009    12.000000000000
         C           -1.964506596350    -0.388329955994     0.140138184991    12.000000000000
         C           -3.066551596350    -1.094518955994    -0.593003815009    12.000000000000
         H            1.307210403650    -1.468674955994    -0.274064815009     1.007825032230
         H            1.972713403650     1.483286044006    -0.721347815009     1.007825032230
         H            1.346887403650     0.333969044006    -1.926673815009     1.007825032230
         H            2.381951403650     0.601816044006     1.709766184991     1.007825032230
         H            2.247100403650    -1.135660955994     2.027717184991     1.007825032230
         H            0.786949403650    -0.167348955994     1.777671184991     1.007825032230
         H            3.998799403650    -0.009340955994    -0.249074815009     1.007825032230
         H            3.757715403650    -1.732862955994     0.074312184991     1.007825032230
         H            3.425981403650    -1.081790955994    -1.539677815009     1.007825032230
         H           -3.488962596350    -0.421918955994    -1.343911815009     1.007825032230
         H           -3.836572596350    -1.396024955994     0.116000184991     1.007825032230
         H           -2.666127596350    -1.966745955994    -1.114658815009     1.007825032230

  Basis Set: AUG-CC-PVTZ
    Blend: AUG-CC-PVTZ
  Basis Set: (AUG-CC-PVTZ AUX)
    Blend: AUG-CC-PVTZ-JKFIT
	 Reference Energy          =    -496.8607292669630056 [Eh]
	 Singles Energy            =      -0.0000000000000000 [Eh]
	 Same-Spin Energy          =      -0.4948948431312278 [Eh]
	 Opposite-Spin Energy      =      -1.5981489571901579 [Eh]
	 Correlation Energy        =      -2.0930438003213858 [Eh]
	 Total Energy              =    -498.9537730672843736 [Eh]

	 ================> DF-SCS-MP2 Energies <==================
	-----------------------------------------------------------
	 SCS Same-Spin Scale       =       0.3333333333333333 [-]
	 SCS Opposite-Spin Scale   =       1.2000000000000000 [-]
	 SCS Same-Spin Energy      =      -0.1649649477104093 [Eh]
	 SCS Opposite-Spin Energy  =      -1.9177787486281894 [Eh]
	 SCS Correlation Energy    =      -2.0827436963385986 [Eh]
	 SCS Total Energy          =    -498.9434729633015877 [Eh]
	-----------------------------------------------------------

  Dipole Moment: [D]
     X:     0.8130      Y:    -2.5048      Z:    -2.5097     Total:     3.6378

*** Psi4 exiting successfully. Buy a developer a beer!
