                               Psi4 1.4a3.dev225

  ==> Input File <==

--------------------------------------------------------------------------
#psi4
#
memory 32 gb

molecule  {
0 1
  O       -0.9795470    -0.0831330    -0.7231310
  O       -0.4899730     2.0087470     0.0897980
  O       -2.0025500    -0.0680990     1.3309880
  C        1.8485240    -0.5426110    -0.0314710
  C        1.2868380     0.6338010    -0.8471420
  C        1.7532090    -0.2607150     1.4674660
  C        3.2880220    -0.8256370    -0.4545800
  C       -0.1082690     0.9825120    -0.4201650
  C       -2.0292479    -0.2980373     0.3479495
  C       -3.1365800    -1.0497620    -0.5798680
  H        1.2371820    -1.4239180    -0.2609290
  H        1.9026850     1.5280430    -0.7082120
  H        1.2768590     0.3787260    -1.9135380
  H        2.3119230     0.6465730     1.7229020
  H        2.1770720    -1.0909040     2.0408530
  H        0.7169210    -0.1225920     1.7908070
  H        3.9287710     0.0354160    -0.2359390
  H        3.6876870    -1.6881060     0.0874480
  H        3.3559530    -1.0370340    -1.5265420
  H       -3.5589910    -0.3771620    -1.3307760
  H       -3.9066010    -1.3512680     0.1291360
  H       -2.7361560    -1.9219890    -1.1015230
units angstrom
no_reorient  #important for SAPT in psi4, default
symmetry c1  #important for SAPT in psi4, default
}

set PROPERTIES_ORIGIN ["COM"]
properties('MP2/aug-cc-pvtz', properties = ['dipole'])
--------------------------------------------------------------------------

    Molecular point group: c1
  Charge       = 0
  Multiplicity = 1
  Basis Set: AUG-CC-PVTZ
    Blend: AUG-CC-PVTZ
  Basis Set: (AUG-CC-PVTZ AUX)
    Blend: AUG-CC-PVTZ-JKFIT

    Orbital Energies [Eh]
    ---------------------

    Doubly Occupied:

       1A    -20.601950     2A    -20.590566     3A    -20.552339
       4A    -11.385657     5A    -11.380677     6A    -11.251781
       7A    -11.241317     8A    -11.240258     9A    -11.221208
      10A    -11.216749    11A     -1.593043    12A     -1.431704
      13A     -1.345012    14A     -1.106281    15A     -1.005487
      16A     -0.977628    17A     -0.937398    18A     -0.832177
      19A     -0.788646    20A     -0.767473    21A     -0.735762
      22A     -0.707669    23A     -0.694978    24A     -0.656399
      25A     -0.642241    26A     -0.632994    27A     -0.599519
      28A     -0.573433    29A     -0.570663    30A     -0.560369
      31A     -0.552629    32A     -0.545608    33A     -0.536579
      34A     -0.492495    35A     -0.485971    36A     -0.474879
      37A     -0.468763    38A     -0.459609    39A     -0.419259

  @DF-RHF Final Energy:  -496.78325045296970

   => Energetics <=

    Nuclear Repulsion Energy =            557.1694829090600933
    One-Electron Energy =               -1783.3511331402874021
    Two-Electron Energy =                 729.3983997782574988
    Total Energy =                       -496.7832504529696962
  Basis Set: (AUG-CC-PVTZ AUX)
    Blend: AUG-CC-PVTZ-RI
    Molecular point group: c1

    Geometry (in Angstrom), charge = 0, multiplicity = 1:

       Center              X                  Y                   Z               Mass
    ------------   -----------------  -----------------  -----------------  -----------------
         O           -0.908538023547    -0.131099286581    -0.748316350935    15.994914619570
         O           -0.418964023547     1.960780713419     0.064612649065    15.994914619570
         O           -1.931541023547    -0.116065286581     1.305802649065    15.994914619570
         C            1.919532976453    -0.590577286581    -0.056656350935    12.000000000000
         C            1.357846976453     0.585834713419    -0.872327350935    12.000000000000
         C            1.824217976453    -0.308681286581     1.442280649065    12.000000000000
         C            3.359030976453    -0.873603286581    -0.479765350935    12.000000000000
         C           -0.037260023547     0.934545713419    -0.445350350935    12.000000000000
         C           -1.958238923547    -0.346003586581     0.322764149065    12.000000000000
         C           -3.065571023547    -1.097728286581    -0.605053350935    12.000000000000
         H            1.308190976453    -1.471884286581    -0.286114350935     1.007825032230
         H            1.973693976453     1.480076713419    -0.733397350935     1.007825032230
         H            1.347867976453     0.330759713419    -1.938723350935     1.007825032230
         H            2.382931976453     0.598606713419     1.697716649065     1.007825032230
         H            2.248080976453    -1.138870286581     2.015667649065     1.007825032230
         H            0.787929976453    -0.170558286581     1.765621649065     1.007825032230
         H            3.999779976453    -0.012550286581    -0.261124350935     1.007825032230
         H            3.758695976453    -1.736072286581     0.062262649065     1.007825032230
         H            3.426961976453    -1.085000286581    -1.551727350935     1.007825032230
         H           -3.487982023547    -0.425128286581    -1.355961350935     1.007825032230
         H           -3.835592023547    -1.399234286581     0.103950649065     1.007825032230
         H           -2.665147023547    -1.969955286581    -1.126708350935     1.007825032230

  Basis Set: AUG-CC-PVTZ
    Blend: AUG-CC-PVTZ
  Basis Set: (AUG-CC-PVTZ AUX)
    Blend: AUG-CC-PVTZ-JKFIT
	 Reference Energy          =    -496.7832504529696962 [Eh]
	 Singles Energy            =      -0.0000000000000000 [Eh]
	 Same-Spin Energy          =      -0.4912194318119947 [Eh]
	 Opposite-Spin Energy      =      -1.5909374791013962 [Eh]
	 Correlation Energy        =      -2.0821569109133908 [Eh]
	 Total Energy              =    -498.8654073638830937 [Eh]

	 ================> DF-SCS-MP2 Energies <==================
	-----------------------------------------------------------
	 SCS Same-Spin Scale       =       0.3333333333333333 [-]
	 SCS Opposite-Spin Scale   =       1.2000000000000000 [-]
	 SCS Same-Spin Energy      =      -0.1637398106039982 [Eh]
	 SCS Opposite-Spin Energy  =      -1.9091249749216752 [Eh]
	 SCS Correlation Energy    =      -2.0728647855256734 [Eh]
	 SCS Total Energy          =    -498.8561152384953630 [Eh]
	-----------------------------------------------------------

  Dipole Moment: [D]
     X:     0.2407      Y:    -2.5308      Z:    -1.1385     Total:     2.7855

*** Psi4 exiting successfully. Buy a developer a beer!
