                               Psi4 1.4a3.dev225

  ==> Input File <==

--------------------------------------------------------------------------
#psi4
#
memory 32 gb

molecule  {
0 1
  O       -0.9795470    -0.0831330    -0.7231310
  O       -0.4899730     2.0087470     0.0897980
  O       -2.0025500    -0.0680990     1.3309880
  C        1.8478242    -0.5220691    -0.0484319
  C        1.2868380     0.6338010    -0.8471420
  C        1.7532090    -0.2607150     1.4674660
  C        3.2880220    -0.8256370    -0.4545800
  C       -0.1082690     0.9825120    -0.4201650
  C       -2.0345350    -0.3435730     0.1532740
  C       -3.1365800    -1.0497620    -0.5798680
  H        1.2371820    -1.4239180    -0.2609290
  H        1.9026850     1.5280430    -0.7082120
  H        1.2768590     0.3787260    -1.9135380
  H        2.3119230     0.6465730     1.7229020
  H        2.1770720    -1.0909040     2.0408530
  H        0.7169210    -0.1225920     1.7908070
  H        3.9287710     0.0354160    -0.2359390
  H        3.6876870    -1.6881060     0.0874480
  H        3.3559530    -1.0370340    -1.5265420
  H       -3.5589910    -0.3771620    -1.3307760
  H       -3.9066010    -1.3512680     0.1291360
  H       -2.7361560    -1.9219890    -1.1015230
units angstrom
no_reorient  #important for SAPT in psi4, default
symmetry c1  #important for SAPT in psi4, default
}

set PROPERTIES_ORIGIN ["COM"]
properties('MP2/aug-cc-pvtz', properties = ['dipole'])
--------------------------------------------------------------------------

    Molecular point group: c1
  Charge       = 0
  Multiplicity = 1
  Basis Set: AUG-CC-PVTZ
    Blend: AUG-CC-PVTZ
  Basis Set: (AUG-CC-PVTZ AUX)
    Blend: AUG-CC-PVTZ-JKFIT

    Orbital Energies [Eh]
    ---------------------

    Doubly Occupied:

       1A    -20.626985     2A    -20.565324     3A    -20.564910
       4A    -11.404228     5A    -11.399276     6A    -11.254984
       7A    -11.250518     8A    -11.245683     9A    -11.224625
      10A    -11.215812    11A     -1.485851    12A     -1.405535
      13A     -1.363828    14A     -1.115865    15A     -1.042840
      16A     -0.991331    17A     -0.937387    18A     -0.869550
      19A     -0.793723    20A     -0.739690    21A     -0.702716
      22A     -0.699177    23A     -0.683019    24A     -0.649376
      25A     -0.629984    26A     -0.620789    27A     -0.594172
      28A     -0.590130    29A     -0.570171    30A     -0.555836
      31A     -0.550754    32A     -0.539970    33A     -0.527841
      34A     -0.497967    35A     -0.488136    36A     -0.477989
      37A     -0.472681    38A     -0.469199    39A     -0.440515

  @DF-RHF Final Energy:  -496.86309391754372

   => Energetics <=

    Nuclear Repulsion Energy =            555.8205652341662244
    One-Electron Energy =               -1780.8505861117719178
    Two-Electron Energy =                 728.1669269600620282
    Total Energy =                       -496.8630939175436652
  Basis Set: (AUG-CC-PVTZ AUX)
    Blend: AUG-CC-PVTZ-RI
    Molecular point group: c1

    Geometry (in Angstrom), charge = 0, multiplicity = 1:

       Center              X                  Y                   Z               Mass
    ------------   -----------------  -----------------  -----------------  -----------------
         O           -0.908039387539    -0.129017606805    -0.730689610947    15.994914619570
         O           -0.418465387539     1.962862393195     0.082239389053    15.994914619570
         O           -1.931042387539    -0.113983606805     1.323429389053    15.994914619570
         C            1.919331812461    -0.567953706805    -0.055990510947    12.000000000000
         C            1.358345612461     0.587916393195    -0.854700610947    12.000000000000
         C            1.824716612461    -0.306599606805     1.459907389053    12.000000000000
         C            3.359529612461    -0.871521606805    -0.462138610947    12.000000000000
         C           -0.036761387539     0.936627393195    -0.427723610947    12.000000000000
         C           -1.963027387539    -0.389457606805     0.145715389053    12.000000000000
         C           -3.065072387539    -1.095646606805    -0.587426610947    12.000000000000
         H            1.308689612461    -1.469802606805    -0.268487610947     1.007825032230
         H            1.974192612461     1.482158393195    -0.715770610947     1.007825032230
         H            1.348366612461     0.332841393195    -1.921096610947     1.007825032230
         H            2.383430612461     0.600688393195     1.715343389053     1.007825032230
         H            2.248579612461    -1.136788606805     2.033294389053     1.007825032230
         H            0.788428612461    -0.168476606805     1.783248389053     1.007825032230
         H            4.000278612461    -0.010468606805    -0.243497610947     1.007825032230
         H            3.759194612461    -1.733990606805     0.079889389053     1.007825032230
         H            3.427460612461    -1.082918606805    -1.534100610947     1.007825032230
         H           -3.487483387539    -0.423046606805    -1.338334610947     1.007825032230
         H           -3.835093387539    -1.397152606805     0.121577389053     1.007825032230
         H           -2.664648387539    -1.967873606805    -1.109081610947     1.007825032230

  Basis Set: AUG-CC-PVTZ
    Blend: AUG-CC-PVTZ
  Basis Set: (AUG-CC-PVTZ AUX)
    Blend: AUG-CC-PVTZ-JKFIT
	 Reference Energy          =    -496.8630939175437220 [Eh]
	 Singles Energy            =      -0.0000000000000000 [Eh]
	 Same-Spin Energy          =      -0.4946991945440643 [Eh]
	 Opposite-Spin Energy      =      -1.5979783132768302 [Eh]
	 Correlation Energy        =      -2.0926775078208943 [Eh]
	 Total Energy              =    -498.9557714253646168 [Eh]

	 ================> DF-SCS-MP2 Energies <==================
	-----------------------------------------------------------
	 SCS Same-Spin Scale       =       0.3333333333333333 [-]
	 SCS Opposite-Spin Scale   =       1.2000000000000000 [-]
	 SCS Same-Spin Energy      =      -0.1648997315146881 [Eh]
	 SCS Opposite-Spin Energy  =      -1.9175739759321961 [Eh]
	 SCS Correlation Energy    =      -2.0824737074468844 [Eh]
	 SCS Total Energy          =    -498.9455676249905878 [Eh]
	-----------------------------------------------------------

  Dipole Moment: [D]
     X:     0.7652      Y:    -2.4808      Z:    -2.5507     Total:     3.6395

*** Psi4 exiting successfully. Buy a developer a beer!
