                               Psi4 1.4a3.dev225

  ==> Input File <==

--------------------------------------------------------------------------
#psi4
#
memory 32 gb

molecule  {
0 1
  O       -0.9795470    -0.0831330    -0.7231310
  O       -0.4899730     2.0087470     0.0897980
  O       -2.0025500    -0.0680990     1.3309880
  C        1.8485240    -0.5426110    -0.0314710
  C        1.3233639     0.5573001    -0.7940998
  C        1.7532090    -0.2607150     1.4674660
  C        3.2880220    -0.8256370    -0.4545800
  C       -0.1082690     0.9825120    -0.4201650
  C       -2.0345350    -0.3435730     0.1532740
  C       -3.1365800    -1.0497620    -0.5798680
  H        1.2371820    -1.4239180    -0.2609290
  H        1.9026850     1.5280430    -0.7082120
  H        1.2768590     0.3787260    -1.9135380
  H        2.3119230     0.6465730     1.7229020
  H        2.1770720    -1.0909040     2.0408530
  H        0.7169210    -0.1225920     1.7908070
  H        3.9287710     0.0354160    -0.2359390
  H        3.6876870    -1.6881060     0.0874480
  H        3.3559530    -1.0370340    -1.5265420
  H       -3.5589910    -0.3771620    -1.3307760
  H       -3.9066010    -1.3512680     0.1291360
  H       -2.7361560    -1.9219890    -1.1015230
units angstrom
no_reorient  #important for SAPT in psi4, default
symmetry c1  #important for SAPT in psi4, default
}

set PROPERTIES_ORIGIN ["COM"]
properties('MP2/aug-cc-pvtz', properties = ['dipole'])
--------------------------------------------------------------------------

    Molecular point group: c1
  Charge       = 0
  Multiplicity = 1
  Basis Set: AUG-CC-PVTZ
    Blend: AUG-CC-PVTZ
  Basis Set: (AUG-CC-PVTZ AUX)
    Blend: AUG-CC-PVTZ-JKFIT

    Orbital Energies [Eh]
    ---------------------

    Doubly Occupied:

       1A    -20.625755     2A    -20.567696     3A    -20.564896
       4A    -11.404061     5A    -11.400537     6A    -11.256628
       7A    -11.254813     8A    -11.238788     9A    -11.224756
      10A    -11.215847    11A     -1.485356    12A     -1.405737
      13A     -1.363863    14A     -1.127133    15A     -1.042598
      16A     -0.983752    17A     -0.939844    18A     -0.870568
      19A     -0.798604    20A     -0.738859    21A     -0.702095
      22A     -0.695952    23A     -0.683150    24A     -0.651868
      25A     -0.628508    26A     -0.623278    27A     -0.595871
      28A     -0.589545    29A     -0.569079    30A     -0.549433
      31A     -0.544773    32A     -0.538779    33A     -0.528049
      34A     -0.503871    35A     -0.491926    36A     -0.479615
      37A     -0.475434    38A     -0.467533    39A     -0.436576

  @DF-RHF Final Energy:  -496.85260607325864

   => Energetics <=

    Nuclear Repulsion Energy =            556.4551396499979319
    One-Electron Energy =               -1782.0846376835499996
    Two-Electron Energy =                 728.7768919602933693
    Total Energy =                       -496.8526060732585847
  Basis Set: (AUG-CC-PVTZ AUX)
    Blend: AUG-CC-PVTZ-RI
    Molecular point group: c1

    Geometry (in Angstrom), charge = 0, multiplicity = 1:

       Center              X                  Y                   Z               Mass
    ------------   -----------------  -----------------  -----------------  -----------------
         O           -0.911139835925    -0.120935120978    -0.736520018391    15.994914619570
         O           -0.421565835925     1.970944879022     0.076408981609    15.994914619570
         O           -1.934142835925    -0.105901120978     1.317598981609    15.994914619570
         C            1.916931164075    -0.580413120978    -0.044860018391    12.000000000000
         C            1.391771064075     0.519497979022    -0.807488818391    12.000000000000
         C            1.821616164075    -0.298517120978     1.454076981609    12.000000000000
         C            3.356429164075    -0.863439120978    -0.467969018391    12.000000000000
         C           -0.039861835925     0.944709879022    -0.433554018391    12.000000000000
         C           -1.966127835925    -0.381375120978     0.139884981609    12.000000000000
         C           -3.068172835925    -1.087564120978    -0.593257018391    12.000000000000
         H            1.305589164075    -1.461720120978    -0.274318018391     1.007825032230
         H            1.971092164075     1.490240879022    -0.721601018391     1.007825032230
         H            1.345266164075     0.340923879022    -1.926927018391     1.007825032230
         H            2.380330164075     0.608770879022     1.709512981609     1.007825032230
         H            2.245479164075    -1.128706120978     2.027463981609     1.007825032230
         H            0.785328164075    -0.160394120978     1.777417981609     1.007825032230
         H            3.997178164075    -0.002386120978    -0.249328018391     1.007825032230
         H            3.756094164075    -1.725908120978     0.074058981609     1.007825032230
         H            3.424360164075    -1.074836120978    -1.539931018391     1.007825032230
         H           -3.490583835925    -0.414964120978    -1.344165018391     1.007825032230
         H           -3.838193835925    -1.389070120978     0.115746981609     1.007825032230
         H           -2.667748835925    -1.959791120978    -1.114912018391     1.007825032230

  Basis Set: AUG-CC-PVTZ
    Blend: AUG-CC-PVTZ
  Basis Set: (AUG-CC-PVTZ AUX)
    Blend: AUG-CC-PVTZ-JKFIT
	 Reference Energy          =    -496.8526060732586416 [Eh]
	 Singles Energy            =      -0.0000000000000000 [Eh]
	 Same-Spin Energy          =      -0.4955634862690980 [Eh]
	 Opposite-Spin Energy      =      -1.5992364343576575 [Eh]
	 Correlation Energy        =      -2.0947999206267554 [Eh]
	 Total Energy              =    -498.9474059938854111 [Eh]

	 ================> DF-SCS-MP2 Energies <==================
	-----------------------------------------------------------
	 SCS Same-Spin Scale       =       0.3333333333333333 [-]
	 SCS Opposite-Spin Scale   =       1.2000000000000000 [-]
	 SCS Same-Spin Energy      =      -0.1651878287563660 [Eh]
	 SCS Opposite-Spin Energy  =      -1.9190837212291889 [Eh]
	 SCS Correlation Energy    =      -2.0842715499855551 [Eh]
	 SCS Total Energy          =    -498.9368776232441860 [Eh]
	-----------------------------------------------------------

  Dipole Moment: [D]
     X:     0.7166      Y:    -2.4700      Z:    -2.5004     Total:     3.5870

*** Psi4 exiting successfully. Buy a developer a beer!
