                               Psi4 1.4a3.dev225

  ==> Input File <==

--------------------------------------------------------------------------
#psi4
#
memory 32 gb

molecule  {
0 1
  O       -0.9795470    -0.0831330    -0.7231310
  O       -0.4899730     2.0087470     0.0897980
  O       -2.0025500    -0.0680990     1.3309880
  C        1.8485240    -0.5426110    -0.0314710
  C        1.2868380     0.6338010    -0.8471420
  C        1.7532090    -0.2607150     1.4674660
  C        3.2880220    -0.8256370    -0.4545800
  C       -0.1082690     0.9825120    -0.4201650
  C       -2.0345350    -0.3435730     0.1532740
  C       -3.1365800    -1.0497620    -0.5798680
  H        1.2371820    -1.4239180    -0.2609290
  H        1.9026850     1.5280430    -0.7082120
  H        1.2768590     0.3787260    -1.9135380
  H        2.3119230     0.6465730     1.7229020
  H        2.1770720    -1.0909040     2.0408530
  H        0.7169210    -0.1225920     1.7908070
  H        3.9287710     0.0354160    -0.2359390
  H        3.6876870    -1.6881060     0.0874480
  H        3.3435423    -0.9984127    -1.3306993
  H       -3.5589910    -0.3771620    -1.3307760
  H       -3.9066010    -1.3512680     0.1291360
  H       -2.7361560    -1.9219890    -1.1015230
units angstrom
no_reorient  #important for SAPT in psi4, default
symmetry c1  #important for SAPT in psi4, default
}

set PROPERTIES_ORIGIN ["COM"]
properties('MP2/aug-cc-pvtz', properties = ['dipole'])
--------------------------------------------------------------------------

    Molecular point group: c1
  Charge       = 0
  Multiplicity = 1
  Basis Set: AUG-CC-PVTZ
    Blend: AUG-CC-PVTZ
  Basis Set: (AUG-CC-PVTZ AUX)
    Blend: AUG-CC-PVTZ-JKFIT

    Orbital Energies [Eh]
    ---------------------

    Doubly Occupied:

       1A    -20.626503     2A    -20.564546     3A    -20.564416
       4A    -11.403860     5A    -11.398430     6A    -11.254778
       7A    -11.250599     8A    -11.244117     9A    -11.213914
      10A    -11.199333    11A     -1.485318    12A     -1.404927
      13A     -1.363283    14A     -1.115831    15A     -1.043585
      16A     -0.997046    17A     -0.952947    18A     -0.869341
      19A     -0.798983    20A     -0.739237    21A     -0.701904
      22A     -0.698315    23A     -0.683680    24A     -0.653762
      25A     -0.631303    26A     -0.628969    27A     -0.600749
      28A     -0.589871    29A     -0.572621    30A     -0.557252
      31A     -0.555013    32A     -0.539070    33A     -0.527397
      34A     -0.499645    35A     -0.486735    36A     -0.481348
      37A     -0.474081    38A     -0.470637    39A     -0.439100

  @DF-RHF Final Energy:  -496.83007609350915

   => Energetics <=

    Nuclear Repulsion Energy =            556.6355607587305485
    One-Electron Energy =               -1782.3663807235384411
    Two-Electron Energy =                 728.9007438712985731
    Total Energy =                       -496.8300760935092057
  Basis Set: (AUG-CC-PVTZ AUX)
    Blend: AUG-CC-PVTZ-RI
    Molecular point group: c1

    Geometry (in Angstrom), charge = 0, multiplicity = 1:

       Center              X                  Y                   Z               Mass
    ------------   -----------------  -----------------  -----------------  -----------------
         O           -0.908010859966    -0.127576870822    -0.733472160557    15.994914619570
         O           -0.418436859966     1.964303129178     0.079456839443    15.994914619570
         O           -1.931013859966    -0.112542870822     1.320646839443    15.994914619570
         C            1.920060140034    -0.587054870822    -0.041812160557    12.000000000000
         C            1.358374140034     0.589357129178    -0.857483160557    12.000000000000
         C            1.824745140034    -0.305158870822     1.457124839443    12.000000000000
         C            3.359558140034    -0.870080870822    -0.464921160557    12.000000000000
         C           -0.036732859966     0.938068129178    -0.430506160557    12.000000000000
         C           -1.962998859966    -0.388016870822     0.142932839443    12.000000000000
         C           -3.065043859966    -1.094205870822    -0.590209160557    12.000000000000
         H            1.308718140034    -1.468361870822    -0.271270160557     1.007825032230
         H            1.974221140034     1.483599129178    -0.718553160557     1.007825032230
         H            1.348395140034     0.334282129178    -1.923879160557     1.007825032230
         H            2.383459140034     0.602129129178     1.712560839443     1.007825032230
         H            2.248608140034    -1.135347870822     2.030511839443     1.007825032230
         H            0.788457140034    -0.167035870822     1.780465839443     1.007825032230
         H            4.000307140034    -0.009027870822    -0.246280160557     1.007825032230
         H            3.759223140034    -1.732549870822     0.077106839443     1.007825032230
         H            3.415078440034    -1.042856570822    -1.341040460557     1.007825032230
         H           -3.487454859966    -0.421605870822    -1.341117160557     1.007825032230
         H           -3.835064859966    -1.395711870822     0.118794839443     1.007825032230
         H           -2.664619859966    -1.966432870822    -1.111864160557     1.007825032230

  Basis Set: AUG-CC-PVTZ
    Blend: AUG-CC-PVTZ
  Basis Set: (AUG-CC-PVTZ AUX)
    Blend: AUG-CC-PVTZ-JKFIT
	 Reference Energy          =    -496.8300760935091489 [Eh]
	 Singles Energy            =      -0.0000000000000000 [Eh]
	 Same-Spin Energy          =      -0.4947479578726258 [Eh]
	 Opposite-Spin Energy      =      -1.5972153148983712 [Eh]
	 Correlation Energy        =      -2.0919632727709971 [Eh]
	 Total Energy              =    -498.9220393662801598 [Eh]

	 ================> DF-SCS-MP2 Energies <==================
	-----------------------------------------------------------
	 SCS Same-Spin Scale       =       0.3333333333333333 [-]
	 SCS Opposite-Spin Scale   =       1.2000000000000000 [-]
	 SCS Same-Spin Energy      =      -0.1649159859575419 [Eh]
	 SCS Opposite-Spin Energy  =      -1.9166583778780453 [Eh]
	 SCS Correlation Energy    =      -2.0815743638355872 [Eh]
	 SCS Total Energy          =    -498.9116504573447628 [Eh]
	-----------------------------------------------------------

  Dipole Moment: [D]
     X:     0.8253      Y:    -2.5192      Z:    -2.6419     Total:     3.7426

*** Psi4 exiting successfully. Buy a developer a beer!
