                               Psi4 1.4a3.dev225

  ==> Input File <==

--------------------------------------------------------------------------
#psi4
#
memory 32 gb

molecule  {
0 1
  O       -0.9795470    -0.0831330    -0.7231310
  O       -0.4899730     2.0087470     0.0897980
  O       -2.0025500    -0.0680990     1.3309880
  C        1.8485240    -0.5426110    -0.0314710
  C        1.2868380     0.6338010    -0.8471420
  C        1.7532090    -0.2607150     1.4674660
  C        3.2880220    -0.8256370    -0.4545800
  C       -0.1082690     0.9825120    -0.4201650
  C       -2.0345350    -0.3435730     0.1532740
  C       -3.1365800    -1.0497620    -0.5798680
  H        1.2371820    -1.4239180    -0.2609290
  H        1.9026850     1.5280430    -0.7082120
  H        1.2768590     0.3787260    -1.9135380
  H        2.3119230     0.6465730     1.7229020
  H        2.1770720    -1.0909040     2.0408530
  H        0.7169210    -0.1225920     1.7908070
  H        3.9287710     0.0354160    -0.2359390
  H        3.6876870    -1.6881060     0.0874480
  H        3.3559530    -1.0370340    -1.5265420
  H       -3.5639085    -0.3650296    -1.3169003
  H       -3.9066010    -1.3512680     0.1291360
  H       -2.7361560    -1.9219890    -1.1015230
units angstrom
no_reorient  #important for SAPT in psi4, default
symmetry c1  #important for SAPT in psi4, default
}

set PROPERTIES_ORIGIN ["COM"]
properties('MP2/aug-cc-pvtz', properties = ['dipole'])
--------------------------------------------------------------------------

    Molecular point group: c1
  Charge       = 0
  Multiplicity = 1
  Basis Set: AUG-CC-PVTZ
    Blend: AUG-CC-PVTZ
  Basis Set: (AUG-CC-PVTZ AUX)
    Blend: AUG-CC-PVTZ-JKFIT

    Orbital Energies [Eh]
    ---------------------

    Doubly Occupied:

       1A    -20.626694     2A    -20.564668     3A    -20.564611
       4A    -11.403943     5A    -11.398529     6A    -11.254915
       7A    -11.250633     8A    -11.245745     9A    -11.224633
      10A    -11.215567    11A     -1.485506    12A     -1.405108
      13A     -1.363460    14A     -1.113642    15A     -1.042963
      16A     -0.991195    17A     -0.938664    18A     -0.868148
      19A     -0.794640    20A     -0.739326    21A     -0.701779
      22A     -0.698373    23A     -0.682814    24A     -0.648549
      25A     -0.629752    26A     -0.620639    27A     -0.594544
      28A     -0.589629    29A     -0.570624    30A     -0.555389
      31A     -0.551472    32A     -0.539808    33A     -0.527597
      34A     -0.495846    35A     -0.487201    36A     -0.479589
      37A     -0.473685    38A     -0.471260    39A     -0.439508

  @DF-RHF Final Energy:  -496.86395480390922

   => Energetics <=

    Nuclear Repulsion Energy =            555.6556874423830550
    One-Electron Energy =               -1780.5379882003283001
    Two-Electron Energy =                 728.0183459540361355
    Total Energy =                       -496.8639548039092233
  Basis Set: (AUG-CC-PVTZ AUX)
    Blend: AUG-CC-PVTZ-RI
    Molecular point group: c1

    Geometry (in Angstrom), charge = 0, multiplicity = 1:

       Center              X                  Y                   Z               Mass
    ------------   -----------------  -----------------  -----------------  -----------------
         O           -0.908063274635    -0.127391581901    -0.732199307814    15.994914619570
         O           -0.418489274635     1.964488418099     0.080729692186    15.994914619570
         O           -1.931066274635    -0.112357581901     1.321919692186    15.994914619570
         C            1.920007725365    -0.586869581901    -0.040539307814    12.000000000000
         C            1.358321725365     0.589542418099    -0.856210307814    12.000000000000
         C            1.824692725365    -0.304973581901     1.458397692186    12.000000000000
         C            3.359505725365    -0.869895581901    -0.463648307814    12.000000000000
         C           -0.036785274635     0.938253418099    -0.429233307814    12.000000000000
         C           -1.963051274635    -0.387831581901     0.144205692186    12.000000000000
         C           -3.065096274635    -1.094020581901    -0.588936307814    12.000000000000
         H            1.308665725365    -1.468176581901    -0.269997307814     1.007825032230
         H            1.974168725365     1.483784418099    -0.717280307814     1.007825032230
         H            1.348342725365     0.334467418099    -1.922606307814     1.007825032230
         H            2.383406725365     0.602314418099     1.713833692186     1.007825032230
         H            2.248555725365    -1.135162581901     2.031784692186     1.007825032230
         H            0.788404725365    -0.166850581901     1.781738692186     1.007825032230
         H            4.000254725365    -0.008842581901    -0.245007307814     1.007825032230
         H            3.759170725365    -1.732364581901     0.078379692186     1.007825032230
         H            3.427436725365    -1.081292581901    -1.535610307814     1.007825032230
         H           -3.492424774635    -0.409288181901    -1.325968607814     1.007825032230
         H           -3.835117274635    -1.395526581901     0.120067692186     1.007825032230
         H           -2.664672274635    -1.966247581901    -1.110591307814     1.007825032230

  Basis Set: AUG-CC-PVTZ
    Blend: AUG-CC-PVTZ
  Basis Set: (AUG-CC-PVTZ AUX)
    Blend: AUG-CC-PVTZ-JKFIT
	 Reference Energy          =    -496.8639548039092233 [Eh]
	 Singles Energy            =      -0.0000000000000000 [Eh]
	 Same-Spin Energy          =      -0.4946081613419542 [Eh]
	 Opposite-Spin Energy      =      -1.5978182292286949 [Eh]
	 Correlation Energy        =      -2.0924263905706493 [Eh]
	 Total Energy              =    -498.9563811944798886 [Eh]

	 ================> DF-SCS-MP2 Energies <==================
	-----------------------------------------------------------
	 SCS Same-Spin Scale       =       0.3333333333333333 [-]
	 SCS Opposite-Spin Scale   =       1.2000000000000000 [-]
	 SCS Same-Spin Energy      =      -0.1648693871139847 [Eh]
	 SCS Opposite-Spin Energy  =      -1.9173818750744338 [Eh]
	 SCS Correlation Energy    =      -2.0822512621884184 [Eh]
	 SCS Total Energy          =    -498.9462060660976590 [Eh]
	-----------------------------------------------------------

  Dipole Moment: [D]
     X:     0.7845      Y:    -2.4927      Z:    -2.5340     Total:     3.6401

*** Psi4 exiting successfully. Buy a developer a beer!
