                               Psi4 1.4a3.dev225

  ==> Input File <==

--------------------------------------------------------------------------
#psi4
#
memory 32 gb

molecule  {
0 1
  O       -0.9795470    -0.0831330    -0.7231310
  O       -0.4899730     2.0087470     0.0897980
  O       -2.0025500    -0.0680990     1.3309880
  C        1.8196832    -0.5576419    -0.1329601
  C        1.2868380     0.6338010    -0.8471420
  C        1.7532090    -0.2607150     1.4674660
  C        3.2880220    -0.8256370    -0.4545800
  C       -0.1082690     0.9825120    -0.4201650
  C       -2.0345350    -0.3435730     0.1532740
  C       -3.1365800    -1.0497620    -0.5798680
  H        1.2371820    -1.4239180    -0.2609290
  H        1.9026850     1.5280430    -0.7082120
  H        1.2768590     0.3787260    -1.9135380
  H        2.3119230     0.6465730     1.7229020
  H        2.1770720    -1.0909040     2.0408530
  H        0.7169210    -0.1225920     1.7908070
  H        3.9287710     0.0354160    -0.2359390
  H        3.6876870    -1.6881060     0.0874480
  H        3.3559530    -1.0370340    -1.5265420
  H       -3.5589910    -0.3771620    -1.3307760
  H       -3.9066010    -1.3512680     0.1291360
  H       -2.7361560    -1.9219890    -1.1015230
units angstrom
no_reorient  #important for SAPT in psi4, default
symmetry c1  #important for SAPT in psi4, default
}

set PROPERTIES_ORIGIN ["COM"]
properties('MP2/aug-cc-pvtz', properties = ['dipole'])
--------------------------------------------------------------------------

    Molecular point group: c1
  Charge       = 0
  Multiplicity = 1
  Basis Set: AUG-CC-PVTZ
    Blend: AUG-CC-PVTZ
  Basis Set: (AUG-CC-PVTZ AUX)
    Blend: AUG-CC-PVTZ-JKFIT

    Orbital Energies [Eh]
    ---------------------

    Doubly Occupied:

       1A    -20.627514     2A    -20.565852     3A    -20.565118
       4A    -11.404457     5A    -11.400085     6A    -11.255256
       7A    -11.250624     8A    -11.243889     9A    -11.225021
      10A    -11.216726    11A     -1.486347    12A     -1.405869
      13A     -1.364257    14A     -1.115580    15A     -1.042452
      16A     -0.989312    17A     -0.928476    18A     -0.870973
      19A     -0.803991    20A     -0.740495    21A     -0.704955
      22A     -0.700350    23A     -0.683342    24A     -0.647873
      25A     -0.630582    26A     -0.618277    27A     -0.592730
      28A     -0.590651    29A     -0.567563    30A     -0.557436
      31A     -0.552396    32A     -0.538512    33A     -0.527550
      34A     -0.502319    35A     -0.497476    36A     -0.479975
      37A     -0.477018    38A     -0.450881    39A     -0.435868

  @DF-RHF Final Energy:  -496.85398122525265

   => Energetics <=

    Nuclear Repulsion Energy =            555.6026389795151772
    One-Electron Energy =               -1780.3971440676320981
    Two-Electron Energy =                 727.9405238628642110
    Total Energy =                       -496.8539812252527099
  Basis Set: (AUG-CC-PVTZ AUX)
    Blend: AUG-CC-PVTZ-RI
    Molecular point group: c1

    Geometry (in Angstrom), charge = 0, multiplicity = 1:

       Center              X                  Y                   Z               Mass
    ------------   -----------------  -----------------  -----------------  -----------------
         O           -0.905695584252    -0.126054824900    -0.723649439204    15.994914619570
         O           -0.416121584252     1.965825175100     0.089279560796    15.994914619570
         O           -1.928698584252    -0.111020824900     1.330469560796    15.994914619570
         C            1.893534615748    -0.600563724900    -0.133478539204    12.000000000000
         C            1.360689415748     0.590879175100    -0.847660439204    12.000000000000
         C            1.827060415748    -0.303636824900     1.466947560796    12.000000000000
         C            3.361873415748    -0.868558824900    -0.455098439204    12.000000000000
         C           -0.034417584252     0.939590175100    -0.420683439204    12.000000000000
         C           -1.960683584252    -0.386494824900     0.152755560796    12.000000000000
         C           -3.062728584252    -1.092683824900    -0.580386439204    12.000000000000
         H            1.311033415748    -1.466839824900    -0.261447439204     1.007825032230
         H            1.976536415748     1.485121175100    -0.708730439204     1.007825032230
         H            1.350710415748     0.335804175100    -1.914056439204     1.007825032230
         H            2.385774415748     0.603651175100     1.722383560796     1.007825032230
         H            2.250923415748    -1.133825824900     2.040334560796     1.007825032230
         H            0.790772415748    -0.165513824900     1.790288560796     1.007825032230
         H            4.002622415748    -0.007505824900    -0.236457439204     1.007825032230
         H            3.761538415748    -1.731027824900     0.086929560796     1.007825032230
         H            3.429804415748    -1.079955824900    -1.527060439204     1.007825032230
         H           -3.485139584252    -0.420083824900    -1.331294439204     1.007825032230
         H           -3.832749584252    -1.394189824900     0.128617560796     1.007825032230
         H           -2.662304584252    -1.964910824900    -1.102041439204     1.007825032230

  Basis Set: AUG-CC-PVTZ
    Blend: AUG-CC-PVTZ
  Basis Set: (AUG-CC-PVTZ AUX)
    Blend: AUG-CC-PVTZ-JKFIT
	 Reference Energy          =    -496.8539812252526531 [Eh]
	 Singles Energy            =      -0.0000000000000000 [Eh]
	 Same-Spin Energy          =      -0.4947011298775885 [Eh]
	 Opposite-Spin Energy      =      -1.5983671800338017 [Eh]
	 Correlation Energy        =      -2.0930683099113900 [Eh]
	 Total Energy              =    -498.9470495351640693 [Eh]

	 ================> DF-SCS-MP2 Energies <==================
	-----------------------------------------------------------
	 SCS Same-Spin Scale       =       0.3333333333333333 [-]
	 SCS Opposite-Spin Scale   =       1.2000000000000000 [-]
	 SCS Same-Spin Energy      =      -0.1649003766258628 [Eh]
	 SCS Opposite-Spin Energy  =      -1.9180406160405621 [Eh]
	 SCS Correlation Energy    =      -2.0829409926664249 [Eh]
	 SCS Total Energy          =    -498.9369222179190615 [Eh]
	-----------------------------------------------------------

  Dipole Moment: [D]
     X:     0.7475      Y:    -2.4820      Z:    -2.5986     Total:     3.6704

*** Psi4 exiting successfully. Buy a developer a beer!
