                               Psi4 1.4a3.dev225

  ==> Input File <==

--------------------------------------------------------------------------
#psi4
#
memory 32 gb

molecule  {
0 1
  O       -0.9795470    -0.0831330    -0.7231310
  O       -0.4899730     2.0087470     0.0897980
  O       -2.0025500    -0.0680990     1.3309880
  C        1.8485240    -0.5426110    -0.0314710
  C        1.2868380     0.6338010    -0.8471420
  C        1.7532090    -0.2607150     1.4674660
  C        3.2880220    -0.8256370    -0.4545800
  C       -0.1082690     0.9825120    -0.4201650
  C       -2.0345350    -0.3435730     0.1532740
  C       -3.1512716    -1.0591764    -0.5896417
  H        1.2371820    -1.4239180    -0.2609290
  H        1.9026850     1.5280430    -0.7082120
  H        1.2768590     0.3787260    -1.9135380
  H        2.3119230     0.6465730     1.7229020
  H        2.1770720    -1.0909040     2.0408530
  H        0.7169210    -0.1225920     1.7908070
  H        3.9287710     0.0354160    -0.2359390
  H        3.6876870    -1.6881060     0.0874480
  H        3.3559530    -1.0370340    -1.5265420
  H       -3.5589910    -0.3771620    -1.3307760
  H       -3.9066010    -1.3512680     0.1291360
  H       -2.7361560    -1.9219890    -1.1015230
units angstrom
no_reorient  #important for SAPT in psi4, default
symmetry c1  #important for SAPT in psi4, default
}

set PROPERTIES_ORIGIN ["COM"]
properties('MP2/aug-cc-pvtz', properties = ['dipole'])
--------------------------------------------------------------------------

    Molecular point group: c1
  Charge       = 0
  Multiplicity = 1
  Basis Set: AUG-CC-PVTZ
    Blend: AUG-CC-PVTZ
  Basis Set: (AUG-CC-PVTZ AUX)
    Blend: AUG-CC-PVTZ-JKFIT

    Orbital Energies [Eh]
    ---------------------

    Doubly Occupied:

       1A    -20.626875     2A    -20.565015     3A    -20.564663
       4A    -11.404682     5A    -11.398593     6A    -11.254657
       7A    -11.250684     8A    -11.245782     9A    -11.224663
      10A    -11.215605    11A     -1.485341    12A     -1.405029
      13A     -1.363464    14A     -1.113605    15A     -1.040171
      16A     -0.991130    17A     -0.938699    18A     -0.868605
      19A     -0.794666    20A     -0.739136    21A     -0.700761
      22A     -0.697952    23A     -0.682338    24A     -0.648577
      25A     -0.629474    26A     -0.619476    27A     -0.593880
      28A     -0.592845    29A     -0.571387    30A     -0.556426
      31A     -0.551557    32A     -0.539823    33A     -0.528235
      34A     -0.495847    35A     -0.487408    36A     -0.479538
      37A     -0.473473    38A     -0.471212    39A     -0.438762

  @DF-RHF Final Energy:  -496.86373144287722

   => Energetics <=

    Nuclear Repulsion Energy =            555.2643968721555439
    One-Electron Energy =               -1779.7561783812261638
    Two-Electron Energy =                 727.6280500661935093
    Total Energy =                       -496.8637314428772243
  Basis Set: (AUG-CC-PVTZ AUX)
    Blend: AUG-CC-PVTZ-RI
    Molecular point group: c1

    Geometry (in Angstrom), charge = 0, multiplicity = 1:

       Center              X                  Y                   Z               Mass
    ------------   -----------------  -----------------  -----------------  -----------------
         O           -0.906874040649    -0.126522611090    -0.731288217357    15.994914619570
         O           -0.417300040649     1.965357388910     0.081640782643    15.994914619570
         O           -1.929877040649    -0.111488611090     1.322830782643    15.994914619570
         C            1.921196959351    -0.586000611090    -0.039628217357    12.000000000000
         C            1.359510959351     0.590411388910    -0.855299217357    12.000000000000
         C            1.825881959351    -0.304104611090     1.459308782643    12.000000000000
         C            3.360694959351    -0.869026611090    -0.462737217357    12.000000000000
         C           -0.035596040649     0.939122388910    -0.428322217357    12.000000000000
         C           -1.961862040649    -0.386962611090     0.145116782643    12.000000000000
         C           -3.078598640649    -1.102566011090    -0.597798917357    12.000000000000
         H            1.309854959351    -1.467307611090    -0.269086217357     1.007825032230
         H            1.975357959351     1.484653388910    -0.716369217357     1.007825032230
         H            1.349531959351     0.335336388910    -1.921695217357     1.007825032230
         H            2.384595959351     0.603183388910     1.714744782643     1.007825032230
         H            2.249744959351    -1.134293611090     2.032695782643     1.007825032230
         H            0.789593959351    -0.165981611090     1.782649782643     1.007825032230
         H            4.001443959351    -0.007973611090    -0.244096217357     1.007825032230
         H            3.760359959351    -1.731495611090     0.079290782643     1.007825032230
         H            3.428625959351    -1.080423611090    -1.534699217357     1.007825032230
         H           -3.486318040649    -0.420551611090    -1.338933217357     1.007825032230
         H           -3.833928040649    -1.394657611090     0.120978782643     1.007825032230
         H           -2.663483040649    -1.965378611090    -1.109680217357     1.007825032230

  Basis Set: AUG-CC-PVTZ
    Blend: AUG-CC-PVTZ
  Basis Set: (AUG-CC-PVTZ AUX)
    Blend: AUG-CC-PVTZ-JKFIT
	 Reference Energy          =    -496.8637314428772243 [Eh]
	 Singles Energy            =      -0.0000000000000000 [Eh]
	 Same-Spin Energy          =      -0.4944959750231986 [Eh]
	 Opposite-Spin Energy      =      -1.5977583244152660 [Eh]
	 Correlation Energy        =      -2.0922542994384647 [Eh]
	 Total Energy              =    -498.9559857423157041 [Eh]

	 ================> DF-SCS-MP2 Energies <==================
	-----------------------------------------------------------
	 SCS Same-Spin Scale       =       0.3333333333333333 [-]
	 SCS Opposite-Spin Scale   =       1.2000000000000000 [-]
	 SCS Same-Spin Energy      =      -0.1648319916743995 [Eh]
	 SCS Opposite-Spin Energy  =      -1.9173099892983192 [Eh]
	 SCS Correlation Energy    =      -2.0821419809727186 [Eh]
	 SCS Total Energy          =    -498.9458734238499460 [Eh]
	-----------------------------------------------------------

  Dipole Moment: [D]
     X:     0.8092      Y:    -2.4831      Z:    -2.5252     Total:     3.6328

*** Psi4 exiting successfully. Buy a developer a beer!
