                               Psi4 1.4a3.dev225

  ==> Input File <==

--------------------------------------------------------------------------
#psi4
#
memory 32 gb

molecule  {
0 1
  O       -0.9795470    -0.0831330    -0.7231310
  O       -0.4899730     2.0087470     0.0897980
  O       -2.0025500    -0.0680990     1.3309880
  C        1.8485240    -0.5426110    -0.0314710
  C        1.2868380     0.6338010    -0.8471420
  C        1.7532090    -0.2607150     1.4674660
  C        3.2880220    -0.8256370    -0.4545800
  C       -0.1082690     0.9825120    -0.4201650
  C       -2.0345350    -0.3435730     0.1532740
  C       -2.9896636    -0.9556182    -0.4821310
  H        1.2371820    -1.4239180    -0.2609290
  H        1.9026850     1.5280430    -0.7082120
  H        1.2768590     0.3787260    -1.9135380
  H        2.3119230     0.6465730     1.7229020
  H        2.1770720    -1.0909040     2.0408530
  H        0.7169210    -0.1225920     1.7908070
  H        3.9287710     0.0354160    -0.2359390
  H        3.6876870    -1.6881060     0.0874480
  H        3.3559530    -1.0370340    -1.5265420
  H       -3.5589910    -0.3771620    -1.3307760
  H       -3.9066010    -1.3512680     0.1291360
  H       -2.7361560    -1.9219890    -1.1015230
units angstrom
no_reorient  #important for SAPT in psi4, default
symmetry c1  #important for SAPT in psi4, default
}

set PROPERTIES_ORIGIN ["COM"]
properties('MP2/aug-cc-pvtz', properties = ['dipole'])
--------------------------------------------------------------------------

    Molecular point group: c1
  Charge       = 0
  Multiplicity = 1
  Basis Set: AUG-CC-PVTZ
    Blend: AUG-CC-PVTZ
  Basis Set: (AUG-CC-PVTZ AUX)
    Blend: AUG-CC-PVTZ-JKFIT

    Orbital Energies [Eh]
    ---------------------

    Doubly Occupied:

       1A    -20.622893     2A    -20.562992     3A    -20.560132
       4A    -11.396663     5A    -11.391513     6A    -11.262401
       7A    -11.249427     8A    -11.244777     9A    -11.223900
      10A    -11.214614    11A     -1.486865    12A     -1.405610
      13A     -1.362488    14A     -1.115045    15A     -1.082096
      16A     -0.991256    17A     -0.937799    18A     -0.861597
      19A     -0.793746    20A     -0.746219    21A     -0.718772
      22A     -0.700047    23A     -0.685796    24A     -0.648583
      25A     -0.633278    26A     -0.629726    27A     -0.598242
      28A     -0.568600    29A     -0.561844    30A     -0.549220
      31A     -0.539211    32A     -0.534914    33A     -0.510495
      34A     -0.494940    35A     -0.482193    36A     -0.478458
      37A     -0.472935    38A     -0.469227    39A     -0.442500

  @DF-RHF Final Energy:  -496.81170310249456

   => Energetics <=

    Nuclear Repulsion Energy =            559.8049734735817538
    One-Electron Energy =               -1788.7713335943551556
    Two-Electron Energy =                 732.1546570182789537
    Total Energy =                       -496.8117031024945618
  Basis Set: (AUG-CC-PVTZ AUX)
    Blend: AUG-CC-PVTZ-RI
    Molecular point group: c1

    Geometry (in Angstrom), charge = 0, multiplicity = 1:

       Center              X                  Y                   Z               Mass
    ------------   -----------------  -----------------  -----------------  -----------------
         O           -0.920334022940    -0.135147750551    -0.740242552031    15.994914619570
         O           -0.430760022940     1.956732249449     0.072686447969    15.994914619570
         O           -1.943337022940    -0.120113750551     1.313876447969    15.994914619570
         C            1.907736977060    -0.594625750551    -0.048582552031    12.000000000000
         C            1.346050977060     0.581786249449    -0.864253552031    12.000000000000
         C            1.812421977060    -0.312729750551     1.450354447969    12.000000000000
         C            3.347234977060    -0.877651750551    -0.471691552031    12.000000000000
         C           -0.049056022940     0.930497249449    -0.437276552031    12.000000000000
         C           -1.975322022940    -0.395587750551     0.136162447969    12.000000000000
         C           -2.930450622940    -1.007632950551    -0.499242552031    12.000000000000
         H            1.296394977060    -1.475932750551    -0.278040552031     1.007825032230
         H            1.961897977060     1.476028249449    -0.725323552031     1.007825032230
         H            1.336071977060     0.326711249449    -1.930649552031     1.007825032230
         H            2.371135977060     0.594558249449     1.705790447969     1.007825032230
         H            2.236284977060    -1.142918750551     2.023741447969     1.007825032230
         H            0.776133977060    -0.174606750551     1.773695447969     1.007825032230
         H            3.987983977060    -0.016598750551    -0.253050552031     1.007825032230
         H            3.746899977060    -1.740120750551     0.070336447969     1.007825032230
         H            3.415165977060    -1.089048750551    -1.543653552031     1.007825032230
         H           -3.499778022940    -0.429176750551    -1.347887552031     1.007825032230
         H           -3.847388022940    -1.403282750551     0.112024447969     1.007825032230
         H           -2.676943022940    -1.974003750551    -1.118634552031     1.007825032230

  Basis Set: AUG-CC-PVTZ
    Blend: AUG-CC-PVTZ
  Basis Set: (AUG-CC-PVTZ AUX)
    Blend: AUG-CC-PVTZ-JKFIT
	 Reference Energy          =    -496.8117031024945618 [Eh]
	 Singles Energy            =      -0.0000000000000000 [Eh]
	 Same-Spin Energy          =      -0.4978118109481920 [Eh]
	 Opposite-Spin Energy      =      -1.6018493087378576 [Eh]
	 Correlation Energy        =      -2.0996611196860497 [Eh]
	 Total Energy              =    -498.9113642221806231 [Eh]

	 ================> DF-SCS-MP2 Energies <==================
	-----------------------------------------------------------
	 SCS Same-Spin Scale       =       0.3333333333333333 [-]
	 SCS Opposite-Spin Scale   =       1.2000000000000000 [-]
	 SCS Same-Spin Energy      =      -0.1659372703160640 [Eh]
	 SCS Opposite-Spin Energy  =      -1.9222191704854290 [Eh]
	 SCS Correlation Energy    =      -2.0881564408014932 [Eh]
	 SCS Total Energy          =    -498.8998595432960315 [Eh]
	-----------------------------------------------------------

  Dipole Moment: [D]
     X:     0.4743      Y:    -2.6798      Z:    -2.7483     Total:     3.8677

*** Psi4 exiting successfully. Buy a developer a beer!
