                               Psi4 1.4a3.dev225

  ==> Input File <==

--------------------------------------------------------------------------
#psi4
#
memory 32 gb

molecule  {
0 1
  O       -0.9795470    -0.0831330    -0.7231310
  O       -0.4899730     2.0087470     0.0897980
  O       -2.0025500    -0.0680990     1.3309880
  C        1.8485240    -0.5426110    -0.0314710
  C        1.2868380     0.6338010    -0.8471420
  C        1.7532090    -0.2607150     1.4674660
  C        3.2880220    -0.8256370    -0.4545800
  C       -0.1082690     0.9825120    -0.4201650
  C       -2.0345350    -0.3435730     0.1532740
  C       -3.1365800    -1.0497620    -0.5798680
  H        1.1257103    -1.5846150    -0.3027682
  H        1.9026850     1.5280430    -0.7082120
  H        1.2768590     0.3787260    -1.9135380
  H        2.3119230     0.6465730     1.7229020
  H        2.1770720    -1.0909040     2.0408530
  H        0.7169210    -0.1225920     1.7908070
  H        3.9287710     0.0354160    -0.2359390
  H        3.6876870    -1.6881060     0.0874480
  H        3.3559530    -1.0370340    -1.5265420
  H       -3.5589910    -0.3771620    -1.3307760
  H       -3.9066010    -1.3512680     0.1291360
  H       -2.7361560    -1.9219890    -1.1015230
units angstrom
no_reorient  #important for SAPT in psi4, default
symmetry c1  #important for SAPT in psi4, default
}

set PROPERTIES_ORIGIN ["COM"]
properties('MP2/aug-cc-pvtz', properties = ['dipole'])
--------------------------------------------------------------------------

    Molecular point group: c1
  Charge       = 0
  Multiplicity = 1
  Basis Set: AUG-CC-PVTZ
    Blend: AUG-CC-PVTZ
  Basis Set: (AUG-CC-PVTZ AUX)
    Blend: AUG-CC-PVTZ-JKFIT

    Orbital Energies [Eh]
    ---------------------

    Doubly Occupied:

       1A    -20.625793     2A    -20.565174     3A    -20.564177
       4A    -11.403498     5A    -11.399090     6A    -11.268953
       7A    -11.254338     8A    -11.253274     9A    -11.226992
      10A    -11.218101    11A     -1.484985    12A     -1.405154
      13A     -1.363162    14A     -1.110710    15A     -1.042182
      16A     -0.991890    17A     -0.940673    18A     -0.868100
      19A     -0.778483    20A     -0.738210    21A     -0.700750
      22A     -0.697243    23A     -0.682307    24A     -0.641321
      25A     -0.629388    26A     -0.621767    27A     -0.594449
      28A     -0.589532    29A     -0.570096    30A     -0.556379
      31A     -0.552773    32A     -0.541220    33A     -0.527466
      34A     -0.498006    35A     -0.486449    36A     -0.477131
      37A     -0.474462    38A     -0.450208    39A     -0.439932

  @DF-RHF Final Energy:  -496.84416049318662

   => Energetics <=

    Nuclear Repulsion Energy =            554.8202040985952408
    One-Electron Energy =               -1778.8610955475458013
    Two-Electron Energy =                 727.1967309557639965
    Total Energy =                       -496.8441604931865641
  Basis Set: (AUG-CC-PVTZ AUX)
    Blend: AUG-CC-PVTZ-RI
    Molecular point group: c1

    Geometry (in Angstrom), charge = 0, multiplicity = 1:

       Center              X                  Y                   Z               Mass
    ------------   -----------------  -----------------  -----------------  -----------------
         O           -0.907317931766    -0.126182646347    -0.731809584054    15.994914619570
         O           -0.417743931766     1.965697353653     0.081119415946    15.994914619570
         O           -1.930320931766    -0.111148646347     1.322309415946    15.994914619570
         C            1.920753068234    -0.585660646347    -0.040149584054    12.000000000000
         C            1.359067068234     0.590751353653    -0.855820584054    12.000000000000
         C            1.825438068234    -0.303764646347     1.458787415946    12.000000000000
         C            3.360251068234    -0.868686646347    -0.463258584054    12.000000000000
         C           -0.036039931766     0.939462353653    -0.428843584054    12.000000000000
         C           -1.962305931766    -0.386622646347     0.144595415946    12.000000000000
         C           -3.064350931766    -1.092811646347    -0.588546584054    12.000000000000
         H            1.197939368234    -1.627664646347    -0.311446784054     1.007825032230
         H            1.974914068234     1.484993353653    -0.716890584054     1.007825032230
         H            1.349088068234     0.335676353653    -1.922216584054     1.007825032230
         H            2.384152068234     0.603523353653     1.714223415946     1.007825032230
         H            2.249301068234    -1.133953646347     2.032174415946     1.007825032230
         H            0.789150068234    -0.165641646347     1.782128415946     1.007825032230
         H            4.001000068234    -0.007633646347    -0.244617584054     1.007825032230
         H            3.759916068234    -1.731155646347     0.078769415946     1.007825032230
         H            3.428182068234    -1.080083646347    -1.535220584054     1.007825032230
         H           -3.486761931766    -0.420211646347    -1.339454584054     1.007825032230
         H           -3.834371931766    -1.394317646347     0.120457415946     1.007825032230
         H           -2.663926931766    -1.965038646347    -1.110201584054     1.007825032230

  Basis Set: AUG-CC-PVTZ
    Blend: AUG-CC-PVTZ
  Basis Set: (AUG-CC-PVTZ AUX)
    Blend: AUG-CC-PVTZ-JKFIT
	 Reference Energy          =    -496.8441604931866209 [Eh]
	 Singles Energy            =      -0.0000000000000000 [Eh]
	 Same-Spin Energy          =      -0.4948304478321631 [Eh]
	 Opposite-Spin Energy      =      -1.5996314583278359 [Eh]
	 Correlation Energy        =      -2.0944619061599989 [Eh]
	 Total Energy              =    -498.9386223993466274 [Eh]

	 ================> DF-SCS-MP2 Energies <==================
	-----------------------------------------------------------
	 SCS Same-Spin Scale       =       0.3333333333333333 [-]
	 SCS Opposite-Spin Scale   =       1.2000000000000000 [-]
	 SCS Same-Spin Energy      =      -0.1649434826107210 [Eh]
	 SCS Opposite-Spin Energy  =      -1.9195577499934031 [Eh]
	 SCS Correlation Energy    =      -2.0845012326041243 [Eh]
	 SCS Total Energy          =    -498.9286617257907324 [Eh]
	-----------------------------------------------------------

  Dipole Moment: [D]
     X:     0.8756      Y:    -2.3673      Z:    -2.5089     Total:     3.5588

*** Psi4 exiting successfully. Buy a developer a beer!
