                               Psi4 1.4a3.dev225

  ==> Input File <==

--------------------------------------------------------------------------
#psi4
#
memory 32 gb

molecule  {
0 1
  O       -0.9795470    -0.0831330    -0.7231310
  O       -0.4899730     2.0087470     0.0897980
  O       -2.0025500    -0.0680990     1.3309880
  C        1.8485240    -0.5426110    -0.0314710
  C        1.2868380     0.6338010    -0.8471420
  C        1.7857456    -0.2189851     1.4607380
  C        3.2880220    -0.8256370    -0.4545800
  C       -0.1082690     0.9825120    -0.4201650
  C       -2.0345350    -0.3435730     0.1532740
  C       -3.1365800    -1.0497620    -0.5798680
  H        1.2371820    -1.4239180    -0.2609290
  H        1.9026850     1.5280430    -0.7082120
  H        1.2768590     0.3787260    -1.9135380
  H        2.3119230     0.6465730     1.7229020
  H        2.1770720    -1.0909040     2.0408530
  H        0.7169210    -0.1225920     1.7908070
  H        3.9287710     0.0354160    -0.2359390
  H        3.6876870    -1.6881060     0.0874480
  H        3.3559530    -1.0370340    -1.5265420
  H       -3.5589910    -0.3771620    -1.3307760
  H       -3.9066010    -1.3512680     0.1291360
  H       -2.7361560    -1.9219890    -1.1015230
units angstrom
no_reorient  #important for SAPT in psi4, default
symmetry c1  #important for SAPT in psi4, default
}

set PROPERTIES_ORIGIN ["COM"]
properties('MP2/aug-cc-pvtz', properties = ['dipole'])
--------------------------------------------------------------------------

    Molecular point group: c1
  Charge       = 0
  Multiplicity = 1
  Basis Set: AUG-CC-PVTZ
    Blend: AUG-CC-PVTZ
  Basis Set: (AUG-CC-PVTZ AUX)
    Blend: AUG-CC-PVTZ-JKFIT

    Orbital Energies [Eh]
    ---------------------

    Doubly Occupied:

       1A    -20.626562     2A    -20.564628     3A    -20.564308
       4A    -11.403936     5A    -11.398347     6A    -11.254827
       7A    -11.250276     8A    -11.246021     9A    -11.224195
      10A    -11.215745    11A     -1.485353    12A     -1.404937
      13A     -1.363312    14A     -1.114122    15A     -1.042854
      16A     -0.991095    17A     -0.938080    18A     -0.868030
      19A     -0.795903    20A     -0.739379    21A     -0.702048
      22A     -0.698598    23A     -0.682544    24A     -0.648477
      25A     -0.629058    26A     -0.618978    27A     -0.593807
      28A     -0.590249    29A     -0.570503    30A     -0.559539
      31A     -0.553399    32A     -0.540188    33A     -0.526043
      34A     -0.490039    35A     -0.488672    36A     -0.481077
      37A     -0.473993    38A     -0.469413    39A     -0.438959

  @DF-RHF Final Energy:  -496.86064562374867

   => Energetics <=

    Nuclear Repulsion Energy =            555.6128053921404444
    One-Electron Energy =               -1780.4519117871020626
    Two-Electron Energy =                 727.9784607712128945
    Total Energy =                       -496.8606456237487237
  Basis Set: (AUG-CC-PVTZ AUX)
    Blend: AUG-CC-PVTZ-RI
    Molecular point group: c1

    Geometry (in Angstrom), charge = 0, multiplicity = 1:

       Center              X                  Y                   Z               Mass
    ------------   -----------------  -----------------  -----------------  -----------------
         O           -0.910807575719    -0.130782309695    -0.731541887151    15.994914619570
         O           -0.421233575719     1.961097690305     0.081387112849    15.994914619570
         O           -1.933810575719    -0.115748309695     1.322577112849    15.994914619570
         C            1.917263424281    -0.590260309695    -0.039881887151    12.000000000000
         C            1.355577424281     0.586151690305    -0.855552887151    12.000000000000
         C            1.854485024281    -0.266634409695     1.452327112849    12.000000000000
         C            3.356761424281    -0.873286309695    -0.462990887151    12.000000000000
         C           -0.039529575719     0.934862690305    -0.428575887151    12.000000000000
         C           -1.965795575719    -0.391222309695     0.144863112849    12.000000000000
         C           -3.067840575719    -1.097411309695    -0.588278887151    12.000000000000
         H            1.305921424281    -1.471567309695    -0.269339887151     1.007825032230
         H            1.971424424281     1.480393690305    -0.716622887151     1.007825032230
         H            1.345598424281     0.331076690305    -1.921948887151     1.007825032230
         H            2.380662424281     0.598923690305     1.714491112849     1.007825032230
         H            2.245811424281    -1.138553309695     2.032442112849     1.007825032230
         H            0.785660424281    -0.170241309695     1.782396112849     1.007825032230
         H            3.997510424281    -0.012233309695    -0.244349887151     1.007825032230
         H            3.756426424281    -1.735755309695     0.079037112849     1.007825032230
         H            3.424692424281    -1.084683309695    -1.534952887151     1.007825032230
         H           -3.490251575719    -0.424811309695    -1.339186887151     1.007825032230
         H           -3.837861575719    -1.398917309695     0.120725112849     1.007825032230
         H           -2.667416575719    -1.969638309695    -1.109933887151     1.007825032230

  Basis Set: AUG-CC-PVTZ
    Blend: AUG-CC-PVTZ
  Basis Set: (AUG-CC-PVTZ AUX)
    Blend: AUG-CC-PVTZ-JKFIT
	 Reference Energy          =    -496.8606456237486668 [Eh]
	 Singles Energy            =      -0.0000000000000000 [Eh]
	 Same-Spin Energy          =      -0.4947051762000795 [Eh]
	 Opposite-Spin Energy      =      -1.5980197861516645 [Eh]
	 Correlation Energy        =      -2.0927249623517441 [Eh]
	 Total Energy              =    -498.9533705861003909 [Eh]

	 ================> DF-SCS-MP2 Energies <==================
	-----------------------------------------------------------
	 SCS Same-Spin Scale       =       0.3333333333333333 [-]
	 SCS Opposite-Spin Scale   =       1.2000000000000000 [-]
	 SCS Same-Spin Energy      =      -0.1649017254000265 [Eh]
	 SCS Opposite-Spin Energy  =      -1.9176237433819974 [Eh]
	 SCS Correlation Energy    =      -2.0825254687820238 [Eh]
	 SCS Total Energy          =    -498.9431710925306902 [Eh]
	-----------------------------------------------------------

  Dipole Moment: [D]
     X:     0.7944      Y:    -2.4801      Z:    -2.5340     Total:     3.6336

*** Psi4 exiting successfully. Buy a developer a beer!
