                               Psi4 1.4a3.dev225

  ==> Input File <==

--------------------------------------------------------------------------
#psi4
#
memory 32 gb

molecule  {
0 1
  O       -0.9795470    -0.0831330    -0.7231310
  O       -0.4899730     2.0087470     0.0897980
  O       -2.0025500    -0.0680990     1.3309880
  C        1.8485240    -0.5426110    -0.0314710
  C        1.2868380     0.6338010    -0.8471420
  C        1.7532090    -0.2607150     1.4674660
  C        3.2880220    -0.8256370    -0.4545800
  C       -0.1082690     0.9825120    -0.4201650
  C       -2.0345350    -0.3435730     0.1532740
  C       -3.1365800    -1.0497620    -0.5798680
  H        1.2371820    -1.4239180    -0.2609290
  H        1.9026850     1.5280430    -0.7082120
  H        1.2768590     0.3787260    -1.9135380
  H        2.3119230     0.6465730     1.7229020
  H        2.1770720    -1.0909040     2.0408530
  H        0.7169210    -0.1225920     1.7908070
  H        3.9287710     0.0354160    -0.2359390
  H        3.6949918    -1.7038697     0.0973549
  H        3.3559530    -1.0370340    -1.5265420
  H       -3.5589910    -0.3771620    -1.3307760
  H       -3.9066010    -1.3512680     0.1291360
  H       -2.7361560    -1.9219890    -1.1015230
units angstrom
no_reorient  #important for SAPT in psi4, default
symmetry c1  #important for SAPT in psi4, default
}

set PROPERTIES_ORIGIN ["COM"]
properties('MP2/aug-cc-pvtz', properties = ['dipole'])
--------------------------------------------------------------------------

    Molecular point group: c1
  Charge       = 0
  Multiplicity = 1
  Basis Set: AUG-CC-PVTZ
    Blend: AUG-CC-PVTZ
  Basis Set: (AUG-CC-PVTZ AUX)
    Blend: AUG-CC-PVTZ-JKFIT

    Orbital Energies [Eh]
    ---------------------

    Doubly Occupied:

       1A    -20.626763     2A    -20.564833     3A    -20.564715
       4A    -11.404129     5A    -11.398660     6A    -11.254936
       7A    -11.250826     8A    -11.245938     9A    -11.227079
      10A    -11.215573    11A     -1.485595    12A     -1.405224
      13A     -1.363566    14A     -1.113619    15A     -1.042882
      16A     -0.990833    17A     -0.937809    18A     -0.868036
      19A     -0.794244    20A     -0.739499    21A     -0.702102
      22A     -0.698372    23A     -0.682889    24A     -0.648533
      25A     -0.629159    26A     -0.620767    27A     -0.594047
      28A     -0.589996    29A     -0.570199    30A     -0.555381
      31A     -0.551534    32A     -0.537526    33A     -0.527454
      34A     -0.495983    35A     -0.487169    36A     -0.479635
      37A     -0.473891    38A     -0.471169    39A     -0.439579

  @DF-RHF Final Energy:  -496.86345036083623

   => Energetics <=

    Nuclear Repulsion Energy =            555.5568832875209182
    One-Electron Energy =               -1780.3403873703111913
    Two-Electron Energy =                 727.9200537219541047
    Total Energy =                       -496.8634503608362820
  Basis Set: (AUG-CC-PVTZ AUX)
    Blend: AUG-CC-PVTZ-RI
    Molecular point group: c1

    Geometry (in Angstrom), charge = 0, multiplicity = 1:

       Center              X                  Y                   Z               Mass
    ------------   -----------------  -----------------  -----------------  -----------------
         O           -0.908148769192    -0.127196449666    -0.732171546198    15.994914619570
         O           -0.418574769192     1.964683550334     0.080757453802    15.994914619570
         O           -1.931151769192    -0.112162449666     1.321947453802    15.994914619570
         C            1.919922230808    -0.586674449666    -0.040511546198    12.000000000000
         C            1.358236230808     0.589737550334    -0.856182546198    12.000000000000
         C            1.824607230808    -0.304778449666     1.458425453802    12.000000000000
         C            3.359420230808    -0.869700449666    -0.463620546198    12.000000000000
         C           -0.036870769192     0.938448550334    -0.429205546198    12.000000000000
         C           -1.963136769192    -0.387636449666     0.144233453802    12.000000000000
         C           -3.065181769192    -1.093825449666    -0.588908546198    12.000000000000
         H            1.308580230808    -1.467981449666    -0.269969546198     1.007825032230
         H            1.974083230808     1.483979550334    -0.717252546198     1.007825032230
         H            1.348257230808     0.334662550334    -1.922578546198     1.007825032230
         H            2.383321230808     0.602509550334     1.713861453802     1.007825032230
         H            2.248470230808    -1.134967449666     2.031812453802     1.007825032230
         H            0.788319230808    -0.166655449666     1.781766453802     1.007825032230
         H            4.000169230808    -0.008647449666    -0.244979546198     1.007825032230
         H            3.766390030808    -1.747933149666     0.088314353802     1.007825032230
         H            3.427351230808    -1.081097449666    -1.535582546198     1.007825032230
         H           -3.487592769192    -0.421225449666    -1.339816546198     1.007825032230
         H           -3.835202769192    -1.395331449666     0.120095453802     1.007825032230
         H           -2.664757769192    -1.966052449666    -1.110563546198     1.007825032230

  Basis Set: AUG-CC-PVTZ
    Blend: AUG-CC-PVTZ
  Basis Set: (AUG-CC-PVTZ AUX)
    Blend: AUG-CC-PVTZ-JKFIT
	 Reference Energy          =    -496.8634503608362252 [Eh]
	 Singles Energy            =      -0.0000000000000000 [Eh]
	 Same-Spin Energy          =      -0.4946113872929809 [Eh]
	 Opposite-Spin Energy      =      -1.5979483982117353 [Eh]
	 Correlation Energy        =      -2.0925597855047160 [Eh]
	 Total Energy              =    -498.9560101463409296 [Eh]

	 ================> DF-SCS-MP2 Energies <==================
	-----------------------------------------------------------
	 SCS Same-Spin Scale       =       0.3333333333333333 [-]
	 SCS Opposite-Spin Scale   =       1.2000000000000000 [-]
	 SCS Same-Spin Energy      =      -0.1648704624309936 [Eh]
	 SCS Opposite-Spin Energy  =      -1.9175380778540823 [Eh]
	 SCS Correlation Energy    =      -2.0824085402850758 [Eh]
	 SCS Total Energy          =    -498.9458589011213121 [Eh]
	-----------------------------------------------------------

  Dipole Moment: [D]
     X:     0.7767      Y:    -2.4866      Z:    -2.5453     Total:     3.6421

*** Psi4 exiting successfully. Buy a developer a beer!
