                               Psi4 1.4a3.dev225

  ==> Input File <==

--------------------------------------------------------------------------
#psi4
#
memory 32 gb

molecule  {
0 1
  O       -0.9795470    -0.0831330    -0.7231310
  O       -0.4899730     2.0087470     0.0897980
  O       -2.0025500    -0.0680990     1.3309880
  C        1.8485240    -0.5426110    -0.0314710
  C        1.2503121     0.7103019    -0.9001842
  C        1.7532090    -0.2607150     1.4674660
  C        3.2880220    -0.8256370    -0.4545800
  C       -0.1082690     0.9825120    -0.4201650
  C       -2.0345350    -0.3435730     0.1532740
  C       -3.1365800    -1.0497620    -0.5798680
  H        1.2371820    -1.4239180    -0.2609290
  H        1.9026850     1.5280430    -0.7082120
  H        1.2768590     0.3787260    -1.9135380
  H        2.3119230     0.6465730     1.7229020
  H        2.1770720    -1.0909040     2.0408530
  H        0.7169210    -0.1225920     1.7908070
  H        3.9287710     0.0354160    -0.2359390
  H        3.6876870    -1.6881060     0.0874480
  H        3.3559530    -1.0370340    -1.5265420
  H       -3.5589910    -0.3771620    -1.3307760
  H       -3.9066010    -1.3512680     0.1291360
  H       -2.7361560    -1.9219890    -1.1015230
units angstrom
no_reorient  #important for SAPT in psi4, default
symmetry c1  #important for SAPT in psi4, default
}

set PROPERTIES_ORIGIN ["COM"]
properties('MP2/aug-cc-pvtz', properties = ['dipole'])
--------------------------------------------------------------------------

    Molecular point group: c1
  Charge       = 0
  Multiplicity = 1
  Basis Set: AUG-CC-PVTZ
    Blend: AUG-CC-PVTZ
  Basis Set: (AUG-CC-PVTZ AUX)
    Blend: AUG-CC-PVTZ-JKFIT

    Orbital Energies [Eh]
    ---------------------

    Doubly Occupied:

       1A    -20.627303     2A    -20.564496     3A    -20.560681
       4A    -11.403924     5A    -11.396336     6A    -11.254868
       7A    -11.252744     8A    -11.246367     9A    -11.225525
      10A    -11.216151    11A     -1.485310    12A     -1.404226
      13A     -1.362738    14A     -1.104531    15A     -1.043088
      16A     -0.997738    17A     -0.938459    18A     -0.867136
      19A     -0.791201    20A     -0.739888    21A     -0.703686
      22A     -0.700568    23A     -0.682167    24A     -0.647500
      25A     -0.629927    26A     -0.618947    27A     -0.594131
      28A     -0.590262    29A     -0.574704    30A     -0.563123
      31A     -0.553852    32A     -0.540989    33A     -0.526728
      34A     -0.493004    35A     -0.485843    36A     -0.479053
      37A     -0.475524    38A     -0.461060    39A     -0.435468

  @DF-RHF Final Energy:  -496.85739418659131

   => Energetics <=

    Nuclear Repulsion Energy =            554.8752952741640456
    One-Electron Energy =               -1778.9868907572779335
    Two-Electron Energy =                 727.2542012965226377
    Total Energy =                       -496.8573941865912502
  Basis Set: (AUG-CC-PVTZ AUX)
    Blend: AUG-CC-PVTZ-RI
    Molecular point group: c1

    Geometry (in Angstrom), charge = 0, multiplicity = 1:

       Center              X                  Y                   Z               Mass
    ------------   -----------------  -----------------  -----------------  -----------------
         O           -0.905055508823    -0.133678311405    -0.727684477172    15.994914619570
         O           -0.415481508823     1.958201688595     0.085244522828    15.994914619570
         O           -1.928058508823    -0.118644311405     1.326434522828    15.994914619570
         C            1.923015491177    -0.593156311405    -0.036024477172    12.000000000000
         C            1.324803591177     0.659756588595    -0.904737677172    12.000000000000
         C            1.827700491177    -0.311260311405     1.462912522828    12.000000000000
         C            3.362513491177    -0.876182311405    -0.459133477172    12.000000000000
         C           -0.033777508823     0.931966688595    -0.424718477172    12.000000000000
         C           -1.960043508823    -0.394118311405     0.148720522828    12.000000000000
         C           -3.062088508823    -1.100307311405    -0.584421477172    12.000000000000
         H            1.311673491177    -1.474463311405    -0.265482477172     1.007825032230
         H            1.977176491177     1.477497688595    -0.712765477172     1.007825032230
         H            1.351350491177     0.328180688595    -1.918091477172     1.007825032230
         H            2.386414491177     0.596027688595     1.718348522828     1.007825032230
         H            2.251563491177    -1.141449311405     2.036299522828     1.007825032230
         H            0.791412491177    -0.173137311405     1.786253522828     1.007825032230
         H            4.003262491177    -0.015129311405    -0.240492477172     1.007825032230
         H            3.762178491177    -1.738651311405     0.082894522828     1.007825032230
         H            3.430444491177    -1.087579311405    -1.531095477172     1.007825032230
         H           -3.484499508823    -0.427707311405    -1.335329477172     1.007825032230
         H           -3.832109508823    -1.401813311405     0.124582522828     1.007825032230
         H           -2.661664508823    -1.972534311405    -1.106076477172     1.007825032230

  Basis Set: AUG-CC-PVTZ
    Blend: AUG-CC-PVTZ
  Basis Set: (AUG-CC-PVTZ AUX)
    Blend: AUG-CC-PVTZ-JKFIT
	 Reference Energy          =    -496.8573941865913071 [Eh]
	 Singles Energy            =      -0.0000000000000000 [Eh]
	 Same-Spin Energy          =      -0.4945120534719668 [Eh]
	 Opposite-Spin Energy      =      -1.5978446526575860 [Eh]
	 Correlation Energy        =      -2.0923567061295527 [Eh]
	 Total Energy              =    -498.9497508927208855 [Eh]

	 ================> DF-SCS-MP2 Energies <==================
	-----------------------------------------------------------
	 SCS Same-Spin Scale       =       0.3333333333333333 [-]
	 SCS Opposite-Spin Scale   =       1.2000000000000000 [-]
	 SCS Same-Spin Energy      =      -0.1648373511573223 [Eh]
	 SCS Opposite-Spin Energy  =      -1.9174135831891030 [Eh]
	 SCS Correlation Energy    =      -2.0822509343464253 [Eh]
	 SCS Total Energy          =    -498.9396451209377119 [Eh]
	-----------------------------------------------------------

  Dipole Moment: [D]
     X:     0.8938      Y:    -2.5695      Z:    -2.5491     Total:     3.7281

*** Psi4 exiting successfully. Buy a developer a beer!
