                               Psi4 1.4a3.dev225

  ==> Input File <==

--------------------------------------------------------------------------
#psi4
#
memory 32 gb

molecule  {
0 1
  O       -0.9795470    -0.0831330    -0.7231310
  O       -0.4899730     2.0087470     0.0897980
  O       -2.0025500    -0.0680990     1.3309880
  C        1.8485240    -0.5426110    -0.0314710
  C        1.2868380     0.6338010    -0.8471420
  C        1.7532090    -0.2607150     1.4674660
  C        3.2880220    -0.8256370    -0.4545800
  C       -0.1082690     0.9825120    -0.4201650
  C       -2.0345350    -0.3435730     0.1532740
  C       -3.1365800    -1.0497620    -0.5798680
  H        1.2371820    -1.4239180    -0.2609290
  H        1.9026850     1.5280430    -0.7082120
  H        1.2768590     0.3787260    -1.9135380
  H        2.3119230     0.6465730     1.7229020
  H        2.1770720    -1.0909040     2.0408530
  H        0.7169210    -0.1225920     1.7908070
  H        3.9287710     0.0354160    -0.2359390
  H        3.6841038    -1.6791844     0.1039495
  H        3.3559530    -1.0370340    -1.5265420
  H       -3.5589910    -0.3771620    -1.3307760
  H       -3.9066010    -1.3512680     0.1291360
  H       -2.7361560    -1.9219890    -1.1015230
units angstrom
no_reorient  #important for SAPT in psi4, default
symmetry c1  #important for SAPT in psi4, default
}

set PROPERTIES_ORIGIN ["COM"]
properties('MP2/aug-cc-pvtz', properties = ['dipole'])
--------------------------------------------------------------------------

    Molecular point group: c1
  Charge       = 0
  Multiplicity = 1
  Basis Set: AUG-CC-PVTZ
    Blend: AUG-CC-PVTZ
  Basis Set: (AUG-CC-PVTZ AUX)
    Blend: AUG-CC-PVTZ-JKFIT

    Orbital Energies [Eh]
    ---------------------

    Doubly Occupied:

       1A    -20.626663     2A    -20.564772     3A    -20.564566
       4A    -11.404066     5A    -11.398482     6A    -11.254890
       7A    -11.250571     8A    -11.245645     9A    -11.224661
      10A    -11.215616    11A     -1.485496    12A     -1.405125
      13A     -1.363468    14A     -1.113671    15A     -1.042894
      16A     -0.991241    17A     -0.938597    18A     -0.868159
      19A     -0.794573    20A     -0.739409    21A     -0.702072
      22A     -0.698360    23A     -0.682789    24A     -0.648380
      25A     -0.629199    26A     -0.621113    27A     -0.594739
      28A     -0.590056    29A     -0.570067    30A     -0.555416
      31A     -0.551728    32A     -0.539622    33A     -0.527392
      34A     -0.495689    35A     -0.487215    36A     -0.479795
      37A     -0.473815    38A     -0.471304    39A     -0.439438

  @DF-RHF Final Energy:  -496.86392324571909

   => Energetics <=

    Nuclear Repulsion Energy =            555.6641855142946724
    One-Electron Energy =               -1780.5547045454100044
    Two-Electron Energy =                 728.0265957853961254
    Total Energy =                       -496.8639232457190928
  Basis Set: (AUG-CC-PVTZ AUX)
    Blend: AUG-CC-PVTZ-RI
    Molecular point group: c1

    Geometry (in Angstrom), charge = 0, multiplicity = 1:

       Center              X                  Y                   Z               Mass
    ------------   -----------------  -----------------  -----------------  -----------------
         O           -0.908072608017    -0.127369122469    -0.732217675192    15.994914619570
         O           -0.418498608017     1.964510877531     0.080711324808    15.994914619570
         O           -1.931075608017    -0.112335122469     1.321901324808    15.994914619570
         C            1.919998391983    -0.586847122469    -0.040557675192    12.000000000000
         C            1.358312391983     0.589564877531    -0.856228675192    12.000000000000
         C            1.824683391983    -0.304951122469     1.458379324808    12.000000000000
         C            3.359496391983    -0.869873122469    -0.463666675192    12.000000000000
         C           -0.036794608017     0.938275877531    -0.429251675192    12.000000000000
         C           -1.963060608017    -0.387809122469     0.144187324808    12.000000000000
         C           -3.065105608017    -1.093998122469    -0.588954675192    12.000000000000
         H            1.308656391983    -1.468154122469    -0.270015675192     1.007825032230
         H            1.974159391983     1.483806877531    -0.717298675192     1.007825032230
         H            1.348333391983     0.334489877531    -1.922624675192     1.007825032230
         H            2.383397391983     0.602336877531     1.713815324808     1.007825032230
         H            2.248546391983    -1.135140122469     2.031766324808     1.007825032230
         H            0.788395391983    -0.166828122469     1.781720324808     1.007825032230
         H            4.000245391983    -0.008820122469    -0.245025675192     1.007825032230
         H            3.755578191983    -1.723420522469     0.094862824808     1.007825032230
         H            3.427427391983    -1.081270122469    -1.535628675192     1.007825032230
         H           -3.487516608017    -0.421398122469    -1.339862675192     1.007825032230
         H           -3.835126608017    -1.395504122469     0.120049324808     1.007825032230
         H           -2.664681608017    -1.966225122469    -1.110609675192     1.007825032230

  Basis Set: AUG-CC-PVTZ
    Blend: AUG-CC-PVTZ
  Basis Set: (AUG-CC-PVTZ AUX)
    Blend: AUG-CC-PVTZ-JKFIT
	 Reference Energy          =    -496.8639232457190928 [Eh]
	 Singles Energy            =      -0.0000000000000000 [Eh]
	 Same-Spin Energy          =      -0.4946234059382459 [Eh]
	 Opposite-Spin Energy      =      -1.5978324604979557 [Eh]
	 Correlation Energy        =      -2.0924558664362016 [Eh]
	 Total Energy              =    -498.9563791121552754 [Eh]

	 ================> DF-SCS-MP2 Energies <==================
	-----------------------------------------------------------
	 SCS Same-Spin Scale       =       0.3333333333333333 [-]
	 SCS Opposite-Spin Scale   =       1.2000000000000000 [-]
	 SCS Same-Spin Energy      =      -0.1648744686460820 [Eh]
	 SCS Opposite-Spin Energy  =      -1.9173989525975468 [Eh]
	 SCS Correlation Energy    =      -2.0822734212436287 [Eh]
	 SCS Total Energy          =    -498.9461966669627486 [Eh]
	-----------------------------------------------------------

  Dipole Moment: [D]
     X:     0.7869      Y:    -2.4929      Z:    -2.5371     Total:     3.6429

*** Psi4 exiting successfully. Buy a developer a beer!
