                               Psi4 1.4a3.dev225

  ==> Input File <==

--------------------------------------------------------------------------
#psi4
#
memory 32 gb

molecule  {
0 1
  O       -0.9795470    -0.0831330    -0.7231310
  O       -0.4899730     2.0087470     0.0897980
  O       -2.0025500    -0.0680990     1.3309880
  C        1.8485240    -0.5426110    -0.0314710
  C        1.2868380     0.6338010    -0.8471420
  C        1.7563276    -0.2699382     1.4184231
  C        3.2880220    -0.8256370    -0.4545800
  C       -0.1082690     0.9825120    -0.4201650
  C       -2.0345350    -0.3435730     0.1532740
  C       -3.1365800    -1.0497620    -0.5798680
  H        1.2371820    -1.4239180    -0.2609290
  H        1.9026850     1.5280430    -0.7082120
  H        1.2768590     0.3787260    -1.9135380
  H        2.3119230     0.6465730     1.7229020
  H        2.1770720    -1.0909040     2.0408530
  H        0.7169210    -0.1225920     1.7908070
  H        3.9287710     0.0354160    -0.2359390
  H        3.6876870    -1.6881060     0.0874480
  H        3.3559530    -1.0370340    -1.5265420
  H       -3.5589910    -0.3771620    -1.3307760
  H       -3.9066010    -1.3512680     0.1291360
  H       -2.7361560    -1.9219890    -1.1015230
units angstrom
no_reorient  #important for SAPT in psi4, default
symmetry c1  #important for SAPT in psi4, default
}

set PROPERTIES_ORIGIN ["COM"]
properties('MP2/aug-cc-pvtz', properties = ['dipole'])
--------------------------------------------------------------------------

    Molecular point group: c1
  Charge       = 0
  Multiplicity = 1
  Basis Set: AUG-CC-PVTZ
    Blend: AUG-CC-PVTZ
  Basis Set: (AUG-CC-PVTZ AUX)
    Blend: AUG-CC-PVTZ-JKFIT

    Orbital Energies [Eh]
    ---------------------

    Doubly Occupied:

       1A    -20.626685     2A    -20.564682     3A    -20.564603
       4A    -11.404005     5A    -11.398619     6A    -11.254871
       7A    -11.250836     8A    -11.243696     9A    -11.224759
      10A    -11.218015    11A     -1.485497    12A     -1.405089
      13A     -1.363450    14A     -1.119265    15A     -1.043408
      16A     -0.992698    17A     -0.938633    18A     -0.868079
      19A     -0.794408    20A     -0.739457    21A     -0.702305
      22A     -0.698527    23A     -0.683138    24A     -0.651072
      25A     -0.629553    26A     -0.622130    27A     -0.594730
      28A     -0.590045    29A     -0.570035    30A     -0.555240
      31A     -0.551339    32A     -0.536334    33A     -0.526585
      34A     -0.494435    35A     -0.485330    36A     -0.484619
      37A     -0.474938    38A     -0.468186    39A     -0.439246

  @DF-RHF Final Energy:  -496.86081670843248

   => Energetics <=

    Nuclear Repulsion Energy =            556.4289803223348372
    One-Electron Energy =               -1782.0625072808702498
    Two-Electron Energy =                 728.7727102501029322
    Total Energy =                       -496.8608167084324805
  Basis Set: (AUG-CC-PVTZ AUX)
    Blend: AUG-CC-PVTZ-RI
    Molecular point group: c1

    Geometry (in Angstrom), charge = 0, multiplicity = 1:

       Center              X                  Y                   Z               Mass
    ------------   -----------------  -----------------  -----------------  -----------------
         O           -0.908357413852    -0.126538535726    -0.728017570257    15.994914619570
         O           -0.418783413852     1.965341464274     0.084911429743    15.994914619570
         O           -1.931360413852    -0.111504535726     1.326101429743    15.994914619570
         C            1.919713586148    -0.586016535726    -0.036357570257    12.000000000000
         C            1.358027586148     0.590395464274    -0.852028570257    12.000000000000
         C            1.827517186148    -0.313343735726     1.413536529743    12.000000000000
         C            3.359211586148    -0.869042535726    -0.459466570257    12.000000000000
         C           -0.037079413852     0.939106464274    -0.425051570257    12.000000000000
         C           -1.963345413852    -0.386978535726     0.148387429743    12.000000000000
         C           -3.065390413852    -1.093167535726    -0.584754570257    12.000000000000
         H            1.308371586148    -1.467323535726    -0.265815570257     1.007825032230
         H            1.973874586148     1.484637464274    -0.713098570257     1.007825032230
         H            1.348048586148     0.335320464274    -1.918424570257     1.007825032230
         H            2.383112586148     0.603167464274     1.718015429743     1.007825032230
         H            2.248261586148    -1.134309535726     2.035966429743     1.007825032230
         H            0.788110586148    -0.165997535726     1.785920429743     1.007825032230
         H            3.999960586148    -0.007989535726    -0.240825570257     1.007825032230
         H            3.758876586148    -1.731511535726     0.082561429743     1.007825032230
         H            3.427142586148    -1.080439535726    -1.531428570257     1.007825032230
         H           -3.487801413852    -0.420567535726    -1.335662570257     1.007825032230
         H           -3.835411413852    -1.394673535726     0.124249429743     1.007825032230
         H           -2.664966413852    -1.965394535726    -1.106409570257     1.007825032230

  Basis Set: AUG-CC-PVTZ
    Blend: AUG-CC-PVTZ
  Basis Set: (AUG-CC-PVTZ AUX)
    Blend: AUG-CC-PVTZ-JKFIT
	 Reference Energy          =    -496.8608167084324805 [Eh]
	 Singles Energy            =      -0.0000000000000000 [Eh]
	 Same-Spin Energy          =      -0.4951124969973568 [Eh]
	 Opposite-Spin Energy      =      -1.5983377066200104 [Eh]
	 Correlation Energy        =      -2.0934502036173672 [Eh]
	 Total Energy              =    -498.9542669120498317 [Eh]

	 ================> DF-SCS-MP2 Energies <==================
	-----------------------------------------------------------
	 SCS Same-Spin Scale       =       0.3333333333333333 [-]
	 SCS Opposite-Spin Scale   =       1.2000000000000000 [-]
	 SCS Same-Spin Energy      =      -0.1650374989991189 [Eh]
	 SCS Opposite-Spin Energy  =      -1.9180052479440124 [Eh]
	 SCS Correlation Energy    =      -2.0830427469431312 [Eh]
	 SCS Total Energy          =    -498.9438594553756161 [Eh]
	-----------------------------------------------------------

  Dipole Moment: [D]
     X:     0.7801      Y:    -2.4965      Z:    -2.5335     Total:     3.6414

*** Psi4 exiting successfully. Buy a developer a beer!
