                               Psi4 1.4a3.dev225

  ==> Input File <==

--------------------------------------------------------------------------
#psi4
#
memory 32 gb

molecule  {
0 1
  O       -0.9982609    -0.0702164    -0.7137468
  O       -0.4899730     2.0087470     0.0897980
  O       -2.0025500    -0.0680990     1.3309880
  C        1.8485240    -0.5426110    -0.0314710
  C        1.2868380     0.6338010    -0.8471420
  C        1.7532090    -0.2607150     1.4674660
  C        3.2880220    -0.8256370    -0.4545800
  C       -0.1082690     0.9825120    -0.4201650
  C       -2.0345350    -0.3435730     0.1532740
  C       -3.1365800    -1.0497620    -0.5798680
  H        1.2371820    -1.4239180    -0.2609290
  H        1.9026850     1.5280430    -0.7082120
  H        1.2768590     0.3787260    -1.9135380
  H        2.3119230     0.6465730     1.7229020
  H        2.1770720    -1.0909040     2.0408530
  H        0.7169210    -0.1225920     1.7908070
  H        3.9287710     0.0354160    -0.2359390
  H        3.6876870    -1.6881060     0.0874480
  H        3.3559530    -1.0370340    -1.5265420
  H       -3.5589910    -0.3771620    -1.3307760
  H       -3.9066010    -1.3512680     0.1291360
  H       -2.7361560    -1.9219890    -1.1015230
units angstrom
no_reorient  #important for SAPT in psi4, default
symmetry c1  #important for SAPT in psi4, default
}

set PROPERTIES_ORIGIN ["COM"]
properties('MP2/aug-cc-pvtz', properties = ['dipole'])
--------------------------------------------------------------------------

    Molecular point group: c1
  Charge       = 0
  Multiplicity = 1
  Basis Set: AUG-CC-PVTZ
    Blend: AUG-CC-PVTZ
  Basis Set: (AUG-CC-PVTZ AUX)
    Blend: AUG-CC-PVTZ-JKFIT

    Orbital Energies [Eh]
    ---------------------

    Doubly Occupied:

       1A    -20.626613     2A    -20.564894     3A    -20.561128
       4A    -11.401529     5A    -11.399629     6A    -11.253579
       7A    -11.252381     8A    -11.246702     9A    -11.225340
      10A    -11.216037    11A     -1.489637    12A     -1.404483
      13A     -1.363249    14A     -1.114785    15A     -1.042777
      16A     -0.992209    17A     -0.939268    18A     -0.872842
      19A     -0.795701    20A     -0.738335    21A     -0.702917
      22A     -0.699387    23A     -0.683863    24A     -0.649664
      25A     -0.629515    26A     -0.620494    27A     -0.592862
      28A     -0.589366    29A     -0.570789    30A     -0.556900
      31A     -0.551875    32A     -0.540231    33A     -0.526558
      34A     -0.496310    35A     -0.486565    36A     -0.480143
      37A     -0.473443    38A     -0.471208    39A     -0.439980

  @DF-RHF Final Energy:  -496.86517436166253

   => Energetics <=

    Nuclear Repulsion Energy =            555.9201360369047507
    One-Electron Energy =               -1781.0442451837875524
    Two-Electron Energy =                 728.2589347852202764
    Total Energy =                       -496.8651743616625254
  Basis Set: (AUG-CC-PVTZ AUX)
    Blend: AUG-CC-PVTZ-RI
    Molecular point group: c1

    Geometry (in Angstrom), charge = 0, multiplicity = 1:

       Center              X                  Y                   Z               Mass
    ------------   -----------------  -----------------  -----------------  -----------------
         O           -0.924734045658    -0.115824054686    -0.723759836303    15.994914619570
         O           -0.416446145658     1.963139345314     0.079784963697    15.994914619570
         O           -1.929023145658    -0.113706654686     1.320974963697    15.994914619570
         C            1.922050854342    -0.588218654686    -0.041484036303    12.000000000000
         C            1.360364854342     0.588193345314    -0.857155036303    12.000000000000
         C            1.826735854342    -0.306322654686     1.457452963697    12.000000000000
         C            3.361548854342    -0.871244654686    -0.464593036303    12.000000000000
         C           -0.034742145658     0.936904345314    -0.430178036303    12.000000000000
         C           -1.961008145658    -0.389180654686     0.143260963697    12.000000000000
         C           -3.063053145658    -1.095369654686    -0.589881036303    12.000000000000
         H            1.310708854342    -1.469525654686    -0.270942036303     1.007825032230
         H            1.976211854342     1.482435345314    -0.718225036303     1.007825032230
         H            1.350385854342     0.333118345314    -1.923551036303     1.007825032230
         H            2.385449854342     0.600965345314     1.712888963697     1.007825032230
         H            2.250598854342    -1.136511654686     2.030839963697     1.007825032230
         H            0.790447854342    -0.168199654686     1.780793963697     1.007825032230
         H            4.002297854342    -0.010191654686    -0.245952036303     1.007825032230
         H            3.761213854342    -1.733713654686     0.077434963697     1.007825032230
         H            3.429479854342    -1.082641654686    -1.536555036303     1.007825032230
         H           -3.485464145658    -0.422769654686    -1.340789036303     1.007825032230
         H           -3.833074145658    -1.396875654686     0.119122963697     1.007825032230
         H           -2.662629145658    -1.967596654686    -1.111536036303     1.007825032230

  Basis Set: AUG-CC-PVTZ
    Blend: AUG-CC-PVTZ
  Basis Set: (AUG-CC-PVTZ AUX)
    Blend: AUG-CC-PVTZ-JKFIT
	 Reference Energy          =    -496.8651743616625254 [Eh]
	 Singles Energy            =      -0.0000000000000000 [Eh]
	 Same-Spin Energy          =      -0.4943036013217011 [Eh]
	 Opposite-Spin Energy      =      -1.5969917818338550 [Eh]
	 Correlation Energy        =      -2.0912953831555563 [Eh]
	 Total Energy              =    -498.9564697448180937 [Eh]

	 ================> DF-SCS-MP2 Energies <==================
	-----------------------------------------------------------
	 SCS Same-Spin Scale       =       0.3333333333333333 [-]
	 SCS Opposite-Spin Scale   =       1.2000000000000000 [-]
	 SCS Same-Spin Energy      =      -0.1647678671072337 [Eh]
	 SCS Opposite-Spin Energy  =      -1.9163901382006259 [Eh]
	 SCS Correlation Energy    =      -2.0811580053078598 [Eh]
	 SCS Total Energy          =    -498.9463323669704096 [Eh]
	-----------------------------------------------------------

  Dipole Moment: [D]
     X:     0.9230      Y:    -2.4749      Z:    -2.6014     Total:     3.7073

*** Psi4 exiting successfully. Buy a developer a beer!
