                               Psi4 1.4a3.dev225

  ==> Input File <==

--------------------------------------------------------------------------
#psi4
#
memory 32 gb

molecule  {
0 1
  O       -0.9795470    -0.0831330    -0.7231310
  O       -0.4899730     2.0087470     0.0897980
  O       -2.0025500    -0.0680990     1.3309880
  C        1.8843779    -0.5289590     0.0679568
  C        1.2868380     0.6338010    -0.8471420
  C        1.7532090    -0.2607150     1.4674660
  C        3.2880220    -0.8256370    -0.4545800
  C       -0.1082690     0.9825120    -0.4201650
  C       -2.0345350    -0.3435730     0.1532740
  C       -3.1365800    -1.0497620    -0.5798680
  H        1.2371820    -1.4239180    -0.2609290
  H        1.9026850     1.5280430    -0.7082120
  H        1.2768590     0.3787260    -1.9135380
  H        2.3119230     0.6465730     1.7229020
  H        2.1770720    -1.0909040     2.0408530
  H        0.7169210    -0.1225920     1.7908070
  H        3.9287710     0.0354160    -0.2359390
  H        3.6876870    -1.6881060     0.0874480
  H        3.3559530    -1.0370340    -1.5265420
  H       -3.5589910    -0.3771620    -1.3307760
  H       -3.9066010    -1.3512680     0.1291360
  H       -2.7361560    -1.9219890    -1.1015230
units angstrom
no_reorient  #important for SAPT in psi4, default
symmetry c1  #important for SAPT in psi4, default
}

set PROPERTIES_ORIGIN ["COM"]
properties('MP2/aug-cc-pvtz', properties = ['dipole'])
--------------------------------------------------------------------------

    Molecular point group: c1
  Charge       = 0
  Multiplicity = 1
  Basis Set: AUG-CC-PVTZ
    Blend: AUG-CC-PVTZ
  Basis Set: (AUG-CC-PVTZ AUX)
    Blend: AUG-CC-PVTZ-JKFIT

    Orbital Energies [Eh]
    ---------------------

    Doubly Occupied:

       1A    -20.625710     2A    -20.564349     3A    -20.563226
       4A    -11.403608     5A    -11.396978     6A    -11.254452
       7A    -11.251111     8A    -11.250557     9A    -11.225859
      10A    -11.213601    11A     -1.484554    12A     -1.404321
      13A     -1.362600    14A     -1.116338    15A     -1.043735
      16A     -0.994090    17A     -0.949522    18A     -0.865477
      19A     -0.784648    20A     -0.738419    21A     -0.700805
      22A     -0.695682    23A     -0.682669    24A     -0.650297
      25A     -0.628409    26A     -0.625343    27A     -0.596060
      28A     -0.589803    29A     -0.573543    30A     -0.555354
      31A     -0.553020    32A     -0.542231    33A     -0.527528
      34A     -0.513337    35A     -0.482096    36A     -0.481950
      37A     -0.472809    38A     -0.452883    39A     -0.433908

  @DF-RHF Final Energy:  -496.85123041039378

   => Energetics <=

    Nuclear Repulsion Energy =            555.6222097363780676
    One-Electron Energy =               -1780.4451136443126416
    Two-Electron Energy =                 727.9716734975409054
    Total Energy =                       -496.8512304103937822
  Basis Set: (AUG-CC-PVTZ AUX)
    Blend: AUG-CC-PVTZ-RI
    Molecular point group: c1

    Geometry (in Angstrom), charge = 0, multiplicity = 1:

       Center              X                  Y                   Z               Mass
    ------------   -----------------  -----------------  -----------------  -----------------
         O           -0.911083866492    -0.128443761871    -0.740383375122    15.994914619570
         O           -0.421509866492     1.963436238129     0.072545624878    15.994914619570
         O           -1.934086866492    -0.113409761871     1.313735624878    15.994914619570
         C            1.952841033508    -0.574269761871     0.050704424878    12.000000000000
         C            1.355301133508     0.588490238129    -0.864394375122    12.000000000000
         C            1.821672133508    -0.306025761871     1.450213624878    12.000000000000
         C            3.356485133508    -0.870947761871    -0.471832375122    12.000000000000
         C           -0.039805866492     0.937201238129    -0.437417375122    12.000000000000
         C           -1.966071866492    -0.388883761871     0.136021624878    12.000000000000
         C           -3.068116866492    -1.095072761871    -0.597120375122    12.000000000000
         H            1.305645133508    -1.469228761871    -0.278181375122     1.007825032230
         H            1.971148133508     1.482732238129    -0.725464375122     1.007825032230
         H            1.345322133508     0.333415238129    -1.930790375122     1.007825032230
         H            2.380386133508     0.601262238129     1.705649624878     1.007825032230
         H            2.245535133508    -1.136214761871     2.023600624878     1.007825032230
         H            0.785384133508    -0.167902761871     1.773554624878     1.007825032230
         H            3.997234133508    -0.009894761871    -0.253191375122     1.007825032230
         H            3.756150133508    -1.733416761871     0.070195624878     1.007825032230
         H            3.424416133508    -1.082344761871    -1.543794375122     1.007825032230
         H           -3.490527866492    -0.422472761871    -1.348028375122     1.007825032230
         H           -3.838137866492    -1.396578761871     0.111883624878     1.007825032230
         H           -2.667692866492    -1.967299761871    -1.118775375122     1.007825032230

  Basis Set: AUG-CC-PVTZ
    Blend: AUG-CC-PVTZ
  Basis Set: (AUG-CC-PVTZ AUX)
    Blend: AUG-CC-PVTZ-JKFIT
	 Reference Energy          =    -496.8512304103937822 [Eh]
	 Singles Energy            =      -0.0000000000000000 [Eh]
	 Same-Spin Energy          =      -0.4954084792226645 [Eh]
	 Opposite-Spin Energy      =      -1.5988989001690199 [Eh]
	 Correlation Energy        =      -2.0943073793916844 [Eh]
	 Total Energy              =    -498.9455377897854760 [Eh]

	 ================> DF-SCS-MP2 Energies <==================
	-----------------------------------------------------------
	 SCS Same-Spin Scale       =       0.3333333333333333 [-]
	 SCS Opposite-Spin Scale   =       1.2000000000000000 [-]
	 SCS Same-Spin Energy      =      -0.1651361597408881 [Eh]
	 SCS Opposite-Spin Energy  =      -1.9186786802028237 [Eh]
	 SCS Correlation Energy    =      -2.0838148399437117 [Eh]
	 SCS Total Energy          =    -498.9350452503375095 [Eh]
	-----------------------------------------------------------

  Dipole Moment: [D]
     X:     0.8458      Y:    -2.5133      Z:    -2.4743     Total:     3.6269

*** Psi4 exiting successfully. Buy a developer a beer!
