                               Psi4 1.4a3.dev225

  ==> Input File <==

--------------------------------------------------------------------------
#psi4
#
memory 32 gb

molecule  {
0 1
  O       -0.9795470    -0.0831330    -0.7231310
  O       -0.4899730     2.0087470     0.0897980
  O       -2.0025500    -0.0680990     1.3309880
  C        1.8485240    -0.5426110    -0.0314710
  C        1.2941432     0.6185008    -0.8365336
  C        1.7532090    -0.2607150     1.4674660
  C        3.2880220    -0.8256370    -0.4545800
  C       -0.1082690     0.9825120    -0.4201650
  C       -2.0345350    -0.3435730     0.1532740
  C       -3.1365800    -1.0497620    -0.5798680
  H        1.2371820    -1.4239180    -0.2609290
  H        1.9026850     1.5280430    -0.7082120
  H        1.2768590     0.3787260    -1.9135380
  H        2.3119230     0.6465730     1.7229020
  H        2.1770720    -1.0909040     2.0408530
  H        0.7169210    -0.1225920     1.7908070
  H        3.9287710     0.0354160    -0.2359390
  H        3.6876870    -1.6881060     0.0874480
  H        3.3559530    -1.0370340    -1.5265420
  H       -3.5589910    -0.3771620    -1.3307760
  H       -3.9066010    -1.3512680     0.1291360
  H       -2.7361560    -1.9219890    -1.1015230
units angstrom
no_reorient  #important for SAPT in psi4, default
symmetry c1  #important for SAPT in psi4, default
}

set PROPERTIES_ORIGIN ["COM"]
properties('MP2/aug-cc-pvtz', properties = ['dipole'])
--------------------------------------------------------------------------

    Molecular point group: c1
  Charge       = 0
  Multiplicity = 1
  Basis Set: AUG-CC-PVTZ
    Blend: AUG-CC-PVTZ
  Basis Set: (AUG-CC-PVTZ AUX)
    Blend: AUG-CC-PVTZ-JKFIT

    Orbital Energies [Eh]
    ---------------------

    Doubly Occupied:

       1A    -20.626519     2A    -20.565288     3A    -20.564817
       4A    -11.404087     5A    -11.398949     6A    -11.254889
       7A    -11.251705     8A    -11.244358     9A    -11.224572
      10A    -11.215551    11A     -1.485513    12A     -1.405290
      13A     -1.363592    14A     -1.115939    15A     -1.042841
      16A     -0.989754    17A     -0.938820    18A     -0.868513
      19A     -0.795447    20A     -0.739320    21A     -0.702032
      22A     -0.697822    23A     -0.682907    24A     -0.649094
      25A     -0.629062    26A     -0.621246    27A     -0.594596
      28A     -0.589949    29A     -0.569811    30A     -0.553490
      31A     -0.550952    32A     -0.539588    33A     -0.527516
      34A     -0.496986    35A     -0.488040    36A     -0.479816
      37A     -0.473512    38A     -0.472073    39A     -0.439412

  @DF-RHF Final Energy:  -496.86334108836962

   => Energetics <=

    Nuclear Repulsion Energy =            555.8029332014971260
    One-Electron Energy =               -1780.8252121587347574
    Two-Electron Energy =                 728.1589378688680654
    Total Energy =                       -496.8633410883695660
  Basis Set: (AUG-CC-PVTZ AUX)
    Blend: AUG-CC-PVTZ-RI
    Molecular point group: c1

    Geometry (in Angstrom), charge = 0, multiplicity = 1:

       Center              X                  Y                   Z               Mass
    ------------   -----------------  -----------------  -----------------  -----------------
         O           -0.908706106750    -0.126032395483    -0.732985798572    15.994914619570
         O           -0.419132106750     1.965847604517     0.079943201428    15.994914619570
         O           -1.931709106750    -0.110998395483     1.321133201428    15.994914619570
         C            1.919364893250    -0.585510395483    -0.041325798572    12.000000000000
         C            1.364984093250     0.575601404517    -0.846388398572    12.000000000000
         C            1.824049893250    -0.303614395483     1.457611201428    12.000000000000
         C            3.358862893250    -0.868536395483    -0.464434798572    12.000000000000
         C           -0.037428106750     0.939612604517    -0.430019798572    12.000000000000
         C           -1.963694106750    -0.386472395483     0.143419201428    12.000000000000
         C           -3.065739106750    -1.092661395483    -0.589722798572    12.000000000000
         H            1.308022893250    -1.466817395483    -0.270783798572     1.007825032230
         H            1.973525893250     1.485143604517    -0.718066798572     1.007825032230
         H            1.347699893250     0.335826604517    -1.923392798572     1.007825032230
         H            2.382763893250     0.603673604517     1.713047201428     1.007825032230
         H            2.247912893250    -1.133803395483     2.030998201428     1.007825032230
         H            0.787761893250    -0.165491395483     1.780952201428     1.007825032230
         H            3.999611893250    -0.007483395483    -0.245793798572     1.007825032230
         H            3.758527893250    -1.731005395483     0.077593201428     1.007825032230
         H            3.426793893250    -1.079933395483    -1.536396798572     1.007825032230
         H           -3.488150106750    -0.420061395483    -1.340630798572     1.007825032230
         H           -3.835760106750    -1.394167395483     0.119281201428     1.007825032230
         H           -2.665315106750    -1.964888395483    -1.111377798572     1.007825032230

  Basis Set: AUG-CC-PVTZ
    Blend: AUG-CC-PVTZ
  Basis Set: (AUG-CC-PVTZ AUX)
    Blend: AUG-CC-PVTZ-JKFIT
	 Reference Energy          =    -496.8633410883696229 [Eh]
	 Singles Energy            =      -0.0000000000000000 [Eh]
	 Same-Spin Energy          =      -0.4947296165750090 [Eh]
	 Opposite-Spin Energy      =      -1.5979783847495161 [Eh]
	 Correlation Energy        =      -2.0927080013245254 [Eh]
	 Total Energy              =    -498.9560490896941474 [Eh]

	 ================> DF-SCS-MP2 Energies <==================
	-----------------------------------------------------------
	 SCS Same-Spin Scale       =       0.3333333333333333 [-]
	 SCS Opposite-Spin Scale   =       1.2000000000000000 [-]
	 SCS Same-Spin Energy      =      -0.1649098721916697 [Eh]
	 SCS Opposite-Spin Energy  =      -1.9175740616994192 [Eh]
	 SCS Correlation Energy    =      -2.0824839338910888 [Eh]
	 SCS Total Energy          =    -498.9458250222606921 [Eh]
	-----------------------------------------------------------

  Dipole Moment: [D]
     X:     0.7696      Y:    -2.4876      Z:    -2.5355     Total:     3.6345

*** Psi4 exiting successfully. Buy a developer a beer!
