                               Psi4 1.4a3.dev225

  ==> Input File <==

--------------------------------------------------------------------------
#psi4
#
memory 32 gb

molecule  {
0 1
  O       -0.9795470    -0.0831330    -0.7231310
  O       -0.4899730     2.0087470     0.0897980
  O       -2.0025500    -0.0680990     1.3309880
  C        1.8485240    -0.5426110    -0.0314710
  C        1.2868380     0.6338010    -0.8471420
  C        1.7532090    -0.2607150     1.4674660
  C        3.2880220    -0.8256370    -0.4545800
  C       -0.1082690     0.9825120    -0.4201650
  C       -2.0358568    -0.3549569     0.1046051
  C       -3.1365800    -1.0497620    -0.5798680
  H        1.2371820    -1.4239180    -0.2609290
  H        1.9026850     1.5280430    -0.7082120
  H        1.2768590     0.3787260    -1.9135380
  H        2.3119230     0.6465730     1.7229020
  H        2.1770720    -1.0909040     2.0408530
  H        0.7169210    -0.1225920     1.7908070
  H        3.9287710     0.0354160    -0.2359390
  H        3.6876870    -1.6881060     0.0874480
  H        3.3559530    -1.0370340    -1.5265420
  H       -3.5589910    -0.3771620    -1.3307760
  H       -3.9066010    -1.3512680     0.1291360
  H       -2.7361560    -1.9219890    -1.1015230
units angstrom
no_reorient  #important for SAPT in psi4, default
symmetry c1  #important for SAPT in psi4, default
}

set PROPERTIES_ORIGIN ["COM"]
properties('MP2/aug-cc-pvtz', properties = ['dipole'])
--------------------------------------------------------------------------

    Molecular point group: c1
  Charge       = 0
  Multiplicity = 1
  Basis Set: AUG-CC-PVTZ
    Blend: AUG-CC-PVTZ
  Basis Set: (AUG-CC-PVTZ AUX)
    Blend: AUG-CC-PVTZ-JKFIT

    Orbital Energies [Eh]
    ---------------------

    Doubly Occupied:

       1A    -20.633730     2A    -20.567196     3A    -20.555611
       4A    -11.407492     5A    -11.402475     6A    -11.255893
       7A    -11.252804     8A    -11.246642     9A    -11.225312
      10A    -11.215205    11A     -1.490732    12A     -1.395359
      13A     -1.345193    14A     -1.115406    15A     -1.052939
      16A     -0.994580    17A     -0.938847    18A     -0.877729
      19A     -0.795956    20A     -0.738897    21A     -0.703535
      22A     -0.698288    23A     -0.683627    24A     -0.649136
      25A     -0.630509    26A     -0.618444    27A     -0.597173
      28A     -0.584052    29A     -0.573034    30A     -0.557676
      31A     -0.552028    32A     -0.540197    33A     -0.521063
      34A     -0.496730    35A     -0.481596    36A     -0.479058
      37A     -0.470564    38A     -0.466078    39A     -0.440861

  @DF-RHF Final Energy:  -496.85565019665324

   => Energetics <=

    Nuclear Repulsion Energy =            555.4531267054535419
    One-Electron Energy =               -1780.1142572016408394
    Two-Electron Energy =                 727.8054802995341106
    Total Energy =                       -496.8556501966531869
  Basis Set: (AUG-CC-PVTZ AUX)
    Blend: AUG-CC-PVTZ-RI
    Molecular point group: c1

    Geometry (in Angstrom), charge = 0, multiplicity = 1:

       Center              X                  Y                   Z               Mass
    ------------   -----------------  -----------------  -----------------  -----------------
         O           -0.907987582499    -0.126358575676    -0.728048719911    15.994914619570
         O           -0.418413582499     1.965521424324     0.084880280089    15.994914619570
         O           -1.930990582499    -0.111324575676     1.326070280089    15.994914619570
         C            1.920083417501    -0.585836575676    -0.036388719911    12.000000000000
         C            1.358397417501     0.590575424324    -0.852059719911    12.000000000000
         C            1.824768417501    -0.303940575676     1.462548280089    12.000000000000
         C            3.359581417501    -0.868862575676    -0.459497719911    12.000000000000
         C           -0.036709582499     0.939286424324    -0.425082719911    12.000000000000
         C           -1.964297382499    -0.398182475676     0.099687380089    12.000000000000
         C           -3.065020582499    -1.092987575676    -0.584785719911    12.000000000000
         H            1.308741417501    -1.467143575676    -0.265846719911     1.007825032230
         H            1.974244417501     1.484817424324    -0.713129719911     1.007825032230
         H            1.348418417501     0.335500424324    -1.918455719911     1.007825032230
         H            2.383482417501     0.603347424324     1.717984280089     1.007825032230
         H            2.248631417501    -1.134129575676     2.035935280089     1.007825032230
         H            0.788480417501    -0.165817575676     1.785889280089     1.007825032230
         H            4.000330417501    -0.007809575676    -0.240856719911     1.007825032230
         H            3.759246417501    -1.731331575676     0.082530280089     1.007825032230
         H            3.427512417501    -1.080259575676    -1.531459719911     1.007825032230
         H           -3.487431582499    -0.420387575676    -1.335693719911     1.007825032230
         H           -3.835041582499    -1.394493575676     0.124218280089     1.007825032230
         H           -2.664596582499    -1.965214575676    -1.106440719911     1.007825032230

  Basis Set: AUG-CC-PVTZ
    Blend: AUG-CC-PVTZ
  Basis Set: (AUG-CC-PVTZ AUX)
    Blend: AUG-CC-PVTZ-JKFIT
	 Reference Energy          =    -496.8556501966532437 [Eh]
	 Singles Energy            =      -0.0000000000000000 [Eh]
	 Same-Spin Energy          =      -0.4957950823809187 [Eh]
	 Opposite-Spin Energy      =      -1.6000272417043597 [Eh]
	 Correlation Energy        =      -2.0958223240852787 [Eh]
	 Total Energy              =    -498.9514725207385482 [Eh]

	 ================> DF-SCS-MP2 Energies <==================
	-----------------------------------------------------------
	 SCS Same-Spin Scale       =       0.3333333333333333 [-]
	 SCS Opposite-Spin Scale   =       1.2000000000000000 [-]
	 SCS Same-Spin Energy      =      -0.1652650274603062 [Eh]
	 SCS Opposite-Spin Energy  =      -1.9200326900452316 [Eh]
	 SCS Correlation Energy    =      -2.0852977175055378 [Eh]
	 SCS Total Energy          =    -498.9409479141587553 [Eh]
	-----------------------------------------------------------

  Dipole Moment: [D]
     X:     0.8984      Y:    -2.4899      Z:    -2.8352     Total:     3.8787

*** Psi4 exiting successfully. Buy a developer a beer!
