                               Psi4 1.4a3.dev225

  ==> Input File <==

--------------------------------------------------------------------------
#psi4
#
memory 32 gb

molecule  {
0 1
  O       -0.9795470    -0.0831330    -0.7231310
  O       -0.4899730     2.0087470     0.0897980
  O       -2.0025500    -0.0680990     1.3309880
  C        1.8485240    -0.5426110    -0.0314710
  C        1.3056891     0.6497680    -0.8366531
  C        1.7532090    -0.2607150     1.4674660
  C        3.2880220    -0.8256370    -0.4545800
  C       -0.1082690     0.9825120    -0.4201650
  C       -2.0345350    -0.3435730     0.1532740
  C       -3.1365800    -1.0497620    -0.5798680
  H        1.2371820    -1.4239180    -0.2609290
  H        1.9026850     1.5280430    -0.7082120
  H        1.2768590     0.3787260    -1.9135380
  H        2.3119230     0.6465730     1.7229020
  H        2.1770720    -1.0909040     2.0408530
  H        0.7169210    -0.1225920     1.7908070
  H        3.9287710     0.0354160    -0.2359390
  H        3.6876870    -1.6881060     0.0874480
  H        3.3559530    -1.0370340    -1.5265420
  H       -3.5589910    -0.3771620    -1.3307760
  H       -3.9066010    -1.3512680     0.1291360
  H       -2.7361560    -1.9219890    -1.1015230
units angstrom
no_reorient  #important for SAPT in psi4, default
symmetry c1  #important for SAPT in psi4, default
}

set PROPERTIES_ORIGIN ["COM"]
properties('MP2/aug-cc-pvtz', properties = ['dipole'])
--------------------------------------------------------------------------

    Molecular point group: c1
  Charge       = 0
  Multiplicity = 1
  Basis Set: AUG-CC-PVTZ
    Blend: AUG-CC-PVTZ
  Basis Set: (AUG-CC-PVTZ AUX)
    Blend: AUG-CC-PVTZ-JKFIT

    Orbital Energies [Eh]
    ---------------------

    Doubly Occupied:

       1A    -20.627231     2A    -20.564921     3A    -20.563796
       4A    -11.404357     5A    -11.398415     6A    -11.255059
       7A    -11.250660     8A    -11.245515     9A    -11.224334
      10A    -11.215301    11A     -1.485396    12A     -1.404907
      13A     -1.363373    14A     -1.113240    15A     -1.042712
      16A     -0.989612    17A     -0.938538    18A     -0.868698
      19A     -0.794681    20A     -0.739280    21A     -0.702457
      22A     -0.697621    23A     -0.682573    24A     -0.648018
      25A     -0.627901    26A     -0.620931    27A     -0.594024
      28A     -0.590916    29A     -0.571114    30A     -0.559516
      31A     -0.550779    32A     -0.539372    33A     -0.527237
      34A     -0.495278    35A     -0.488426    36A     -0.478567
      37A     -0.473143    38A     -0.471803    39A     -0.438185

  @DF-RHF Final Energy:  -496.86343363929808

   => Energetics <=

    Nuclear Repulsion Energy =            555.4586540120411655
    One-Electron Energy =               -1780.1483996749846028
    Two-Electron Energy =                 727.8263120236455279
    Total Energy =                       -496.8634336392980231
  Basis Set: (AUG-CC-PVTZ AUX)
    Blend: AUG-CC-PVTZ-RI
    Molecular point group: c1

    Geometry (in Angstrom), charge = 0, multiplicity = 1:

       Center              X                  Y                   Z               Mass
    ------------   -----------------  -----------------  -----------------  -----------------
         O           -0.909667739897    -0.128636573236    -0.732975845675    15.994914619570
         O           -0.420093739897     1.963243426764     0.079953154325    15.994914619570
         O           -1.932670739897    -0.113602573236     1.321143154325    15.994914619570
         C            1.918403260103    -0.588114573236    -0.041315845675    12.000000000000
         C            1.375568360103     0.604264426764    -0.846497945675    12.000000000000
         C            1.823088260103    -0.306218573236     1.457621154325    12.000000000000
         C            3.357901260103    -0.871140573236    -0.464424845675    12.000000000000
         C           -0.038389739897     0.937008426764    -0.430009845675    12.000000000000
         C           -1.964655739897    -0.389076573236     0.143429154325    12.000000000000
         C           -3.066700739897    -1.095265573236    -0.589712845675    12.000000000000
         H            1.307061260103    -1.469421573236    -0.270773845675     1.007825032230
         H            1.972564260103     1.482539426764    -0.718056845675     1.007825032230
         H            1.346738260103     0.333222426764    -1.923382845675     1.007825032230
         H            2.381802260103     0.601069426764     1.713057154325     1.007825032230
         H            2.246951260103    -1.136407573236     2.031008154325     1.007825032230
         H            0.786800260103    -0.168095573236     1.780962154325     1.007825032230
         H            3.998650260103    -0.010087573236    -0.245783845675     1.007825032230
         H            3.757566260103    -1.733609573236     0.077603154325     1.007825032230
         H            3.425832260103    -1.082537573236    -1.536386845675     1.007825032230
         H           -3.489111739897    -0.422665573236    -1.340620845675     1.007825032230
         H           -3.836721739897    -1.396771573236     0.119291154325     1.007825032230
         H           -2.666276739897    -1.967492573236    -1.111367845675     1.007825032230

  Basis Set: AUG-CC-PVTZ
    Blend: AUG-CC-PVTZ
  Basis Set: (AUG-CC-PVTZ AUX)
    Blend: AUG-CC-PVTZ-JKFIT
	 Reference Energy          =    -496.8634336392980799 [Eh]
	 Singles Energy            =      -0.0000000000000000 [Eh]
	 Same-Spin Energy          =      -0.4944948054141055 [Eh]
	 Opposite-Spin Energy      =      -1.5976739359672383 [Eh]
	 Correlation Energy        =      -2.0921687413813439 [Eh]
	 Total Energy              =    -498.9556023806794087 [Eh]

	 ================> DF-SCS-MP2 Energies <==================
	-----------------------------------------------------------
	 SCS Same-Spin Scale       =       0.3333333333333333 [-]
	 SCS Opposite-Spin Scale   =       1.2000000000000000 [-]
	 SCS Same-Spin Energy      =      -0.1648316018047018 [Eh]
	 SCS Opposite-Spin Energy  =      -1.9172087231606858 [Eh]
	 SCS Correlation Energy    =      -2.0820403249653876 [Eh]
	 SCS Total Energy          =    -498.9454739642634422 [Eh]
	-----------------------------------------------------------

  Dipole Moment: [D]
     X:     0.7788      Y:    -2.4911      Z:    -2.5339     Total:     3.6377

*** Psi4 exiting successfully. Buy a developer a beer!
