                               Psi4 1.4a3.dev225

  ==> Input File <==

--------------------------------------------------------------------------
#psi4
#
memory 32 gb

molecule  {
0 1
  O       -0.9795470    -0.0831330    -0.7231310
  O       -0.4899730     2.0087470     0.0897980
  O       -2.0025500    -0.0680990     1.3309880
  C        1.8485240    -0.5426110    -0.0314710
  C        1.2868380     0.6338010    -0.8471420
  C        1.7532090    -0.2607150     1.4674660
  C        3.2880220    -0.8256370    -0.4545800
  C       -0.1082690     0.9825120    -0.4201650
  C       -2.0345350    -0.3435730     0.1532740
  C       -3.1365800    -1.0497620    -0.5798680
  H        1.2371820    -1.4239180    -0.2609290
  H        1.9026850     1.5280430    -0.7082120
  H        1.2768590     0.3787260    -1.9135380
  H        2.3119230     0.6465730     1.7229020
  H        2.1770720    -1.0909040     2.0408530
  H        0.7169210    -0.1225920     1.7908070
  H        3.9287710     0.0354160    -0.2359390
  H        3.6876870    -1.6881060     0.0874480
  H        3.3497477    -1.0177234    -1.4286206
  H       -3.5589910    -0.3771620    -1.3307760
  H       -3.9066010    -1.3512680     0.1291360
  H       -2.7361560    -1.9219890    -1.1015230
units angstrom
no_reorient  #important for SAPT in psi4, default
symmetry c1  #important for SAPT in psi4, default
}

set PROPERTIES_ORIGIN ["COM"]
properties('MP2/aug-cc-pvtz', properties = ['dipole'])
--------------------------------------------------------------------------

    Molecular point group: c1
  Charge       = 0
  Multiplicity = 1
  Basis Set: AUG-CC-PVTZ
    Blend: AUG-CC-PVTZ
  Basis Set: (AUG-CC-PVTZ AUX)
    Blend: AUG-CC-PVTZ-JKFIT

    Orbital Energies [Eh]
    ---------------------

    Doubly Occupied:

       1A    -20.626571     2A    -20.564642     3A    -20.564485
       4A    -11.403947     5A    -11.398455     6A    -11.254825
       7A    -11.250591     8A    -11.244797     9A    -11.214614
      10A    -11.211933    11A     -1.485394    12A     -1.405013
      13A     -1.363362    14A     -1.114331    15A     -1.043085
      16A     -0.993091    17A     -0.945076    18A     -0.868684
      19A     -0.796467    20A     -0.739307    21A     -0.701968
      22A     -0.698310    23A     -0.683078    24A     -0.650136
      25A     -0.629082    26A     -0.625559    27A     -0.597807
      28A     -0.589945    29A     -0.571356    30A     -0.555295
      31A     -0.554862    32A     -0.539437    33A     -0.527405
      34A     -0.497906    35A     -0.486924    36A     -0.480792
      37A     -0.474041    38A     -0.470919    39A     -0.439294

  @DF-RHF Final Energy:  -496.85791307984744

   => Energetics <=

    Nuclear Repulsion Energy =            556.1064007312909325
    One-Electron Energy =               -1781.4030555075867142
    Two-Electron Energy =                 728.4387416964483464
    Total Energy =                       -496.8579130798474353
  Basis Set: (AUG-CC-PVTZ AUX)
    Blend: AUG-CC-PVTZ-RI
    Molecular point group: c1

    Geometry (in Angstrom), charge = 0, multiplicity = 1:

       Center              X                  Y                   Z               Mass
    ------------   -----------------  -----------------  -----------------  -----------------
         O           -0.908054266520    -0.127441793157    -0.732787204519    15.994914619570
         O           -0.418480266520     1.964438206843     0.080141795481    15.994914619570
         O           -1.931057266520    -0.112407793157     1.321331795481    15.994914619570
         C            1.920016733480    -0.586919793157    -0.041127204519    12.000000000000
         C            1.358330733480     0.589492206843    -0.856798204519    12.000000000000
         C            1.824701733480    -0.305023793157     1.457809795481    12.000000000000
         C            3.359514733480    -0.869945793157    -0.464236204519    12.000000000000
         C           -0.036776266520     0.938203206843    -0.429821204519    12.000000000000
         C           -1.963042266520    -0.387881793157     0.143617795481    12.000000000000
         C           -3.065087266520    -1.094070793157    -0.589524204519    12.000000000000
         H            1.308674733480    -1.468226793157    -0.270585204519     1.007825032230
         H            1.974177733480     1.483734206843    -0.717868204519     1.007825032230
         H            1.348351733480     0.334417206843    -1.923194204519     1.007825032230
         H            2.383415733480     0.602264206843     1.713245795481     1.007825032230
         H            2.248564733480    -1.135212793157     2.031196795481     1.007825032230
         H            0.788413733480    -0.166900793157     1.781150795481     1.007825032230
         H            4.000263733480    -0.008892793157    -0.245595204519     1.007825032230
         H            3.759179733480    -1.732414793157     0.077791795481     1.007825032230
         H            3.421240433480    -1.062032193157    -1.438276804519     1.007825032230
         H           -3.487498266520    -0.421470793157    -1.340432204519     1.007825032230
         H           -3.835108266520    -1.395576793157     0.119479795481     1.007825032230
         H           -2.664663266520    -1.966297793157    -1.111179204519     1.007825032230

  Basis Set: AUG-CC-PVTZ
    Blend: AUG-CC-PVTZ
  Basis Set: (AUG-CC-PVTZ AUX)
    Blend: AUG-CC-PVTZ-JKFIT
	 Reference Energy          =    -496.8579130798474353 [Eh]
	 Singles Energy            =      -0.0000000000000000 [Eh]
	 Same-Spin Energy          =      -0.4946521143722653 [Eh]
	 Opposite-Spin Energy      =      -1.5973409537116343 [Eh]
	 Correlation Energy        =      -2.0919930680838994 [Eh]
	 Total Energy              =    -498.9499061479313582 [Eh]

	 ================> DF-SCS-MP2 Energies <==================
	-----------------------------------------------------------
	 SCS Same-Spin Scale       =       0.3333333333333333 [-]
	 SCS Opposite-Spin Scale   =       1.2000000000000000 [-]
	 SCS Same-Spin Energy      =      -0.1648840381240884 [Eh]
	 SCS Opposite-Spin Energy  =      -1.9168091444539610 [Eh]
	 SCS Correlation Energy    =      -2.0816931825780496 [Eh]
	 SCS Total Energy          =    -498.9396062624254569 [Eh]
	-----------------------------------------------------------

  Dipole Moment: [D]
     X:     0.8083      Y:    -2.5101      Z:    -2.5999     Total:     3.7032

*** Psi4 exiting successfully. Buy a developer a beer!
