                               Psi4 1.3.2 release

  ==> Input File <==

--------------------------------------------------------------------------
#psi4
#
memory 32 gb

molecule  {
0 1
  O       -0.2992330     0.0680890    -1.4276520
  O        1.1877390     1.7321380     1.3773370
  O        0.9070540     2.3739560    -0.7854760
  O        2.2997900    -2.4217320    -0.0198770
  O       -3.4576290     0.0760600    -0.5562400
  O        2.6367540    -0.2338110    -0.4932570
  O       -2.4353810    -1.6060190     0.5619510
  C       -0.1069590     0.3116290    -0.0442930
  C        0.5596730    -0.9208470     0.5522810
  C       -1.6048041     0.6740710     0.8178662
  C        0.7459700     1.5647750     0.1124900
  C        1.9236380    -1.1208730    -0.0515330
  C       -2.4761190    -0.4337210     0.2256320
  H       -0.0681530    -1.7945710     0.3697710
  H        0.6733550    -0.8157800     1.6370670
  H       -1.8203350     1.5970450     0.2687060
  H       -1.3720190     0.6392280     1.7041070
  H       -0.0402350     0.8946720    -1.8856460
  H        1.6977260     2.5694770     1.3788080
  H        3.2012140    -2.4469230    -0.4041650
  H       -4.0405490    -0.6812350    -0.7753220
units angstrom
no_reorient  #important for SAPT in psi4, default
symmetry c1  #important for SAPT in psi4, default
}

set PROPERTIES_ORIGIN ["COM"]
properties('MP2/aug-cc-pvtz', properties = ['dipole'])
--------------------------------------------------------------------------

    Molecular point group: c1
  Charge       = 0
  Multiplicity = 1
  Basis Set: AUG-CC-PVTZ
    Blend: AUG-CC-PVTZ
  Basis Set: (AUG-CC-PVTZ AUX)
    Blend: AUG-CC-PVTZ-JKFIT

    Orbital Energies [Eh]
    ---------------------

    Doubly Occupied:

       1A    -20.637286     2A    -20.626542     3A    -20.624997
       4A    -20.585437     5A    -20.570205     6A    -20.561448
       7A    -20.560903     8A    -11.410735     9A    -11.408853
      10A    -11.402245    11A    -11.350826    12A    -11.273185
      13A    -11.262461    14A     -1.484534    15A     -1.471637
      16A     -1.470112    17A     -1.399500    18A     -1.371879
      19A     -1.368122    20A     -1.366432    21A     -1.103436
      22A     -1.038748    23A     -0.950218    24A     -0.849355
      25A     -0.840518    26A     -0.797445    27A     -0.757491
      28A     -0.726520    29A     -0.721515    30A     -0.715200
      31A     -0.702376    32A     -0.693962    33A     -0.677606
      34A     -0.653808    35A     -0.642873    36A     -0.636356
      37A     -0.634823    38A     -0.602354    39A     -0.594356
      40A     -0.588387    41A     -0.575833    42A     -0.551948
      43A     -0.545860    44A     -0.505339    45A     -0.495061
      46A     -0.489696    47A     -0.481963    48A     -0.467028
      49A     -0.461483    50A     -0.430838

  @DF-RHF Final Energy:  -756.20217759094999

   => Energetics <=

    Nuclear Repulsion Energy =            870.1633618766153404
    One-Electron Energy =               -2768.4516114605517032
    Two-Electron Energy =                1142.0860719929862626
    Total Energy =                       -756.2021775909499866
  Basis Set: (AUG-CC-PVTZ AUX)
    Blend: AUG-CC-PVTZ-RI
    Molecular point group: c1

    Geometry (in Angstrom), charge = 0, multiplicity = 1:

       Center              X                  Y                   Z               Mass
    ------------   -----------------  -----------------  -----------------  -----------------
         O           -0.299936990768     0.064542745983    -1.428568519561    15.994914619570
         O            1.187035009232     1.728591745983     1.376420480439    15.994914619570
         O            0.906350009232     2.370409745983    -0.786392519561    15.994914619570
         O            2.299086009232    -2.425278254017    -0.020793519561    15.994914619570
         O           -3.458332990768     0.072513745983    -0.557156519561    15.994914619570
         O            2.636050009232    -0.237357254017    -0.494173519561    15.994914619570
         O           -2.436084990768    -1.609565254017     0.561034480439    15.994914619570
         C           -0.107662990768     0.308082745983    -0.045209519561    12.000000000000
         C            0.558969009232    -0.924393254017     0.551364480439    12.000000000000
         C           -1.605508090768     0.670524745983     0.816949680439    12.000000000000
         C            0.745266009232     1.561228745983     0.111573480439    12.000000000000
         C            1.922934009232    -1.124419254017    -0.052449519561    12.000000000000
         C           -2.476822990768    -0.437267254017     0.224715480439    12.000000000000
         H           -0.068856990768    -1.798117254017     0.368854480439     1.007825032230
         H            0.672651009232    -0.819326254017     1.636150480439     1.007825032230
         H           -1.821038990768     1.593498745983     0.267789480439     1.007825032230
         H           -1.372722990768     0.635681745983     1.703190480439     1.007825032230
         H           -0.040938990768     0.891125745983    -1.886562519561     1.007825032230
         H            1.697022009232     2.565930745983     1.377891480439     1.007825032230
         H            3.200510009232    -2.450469254017    -0.405081519561     1.007825032230
         H           -4.041252990768    -0.684781254017    -0.776238519561     1.007825032230

  Basis Set: AUG-CC-PVTZ
    Blend: AUG-CC-PVTZ
  Basis Set: (AUG-CC-PVTZ AUX)
    Blend: AUG-CC-PVTZ-JKFIT
	 Reference Energy          =    -756.2021775909499866 [Eh]
	 Singles Energy            =      -0.0000000000000000 [Eh]
	 Same-Spin Energy          =      -0.7315108673015596 [Eh]
	 Opposite-Spin Energy      =      -2.1647376058004797 [Eh]
	 Correlation Energy        =      -2.8962484731020393 [Eh]
	 Total Energy              =    -759.0984260640519778 [Eh]

	 ================> DF-SCS-MP2 Energies <==================
	-----------------------------------------------------------
	 SCS Same-Spin Scale       =       0.3333333333333333 [-]
	 SCS Opposite-Spin Scale   =       1.2000000000000000 [-]
	 SCS Same-Spin Energy      =      -0.2438369557671865 [Eh]
	 SCS Opposite-Spin Energy  =      -2.5976851269605756 [Eh]
	 SCS Correlation Energy    =      -2.8415220827277623 [Eh]
	 SCS Total Energy          =    -759.0436996736777928 [Eh]
	-----------------------------------------------------------

  Dipole Moment: [D]
     X:    -0.0710      Y:     0.6759      Z:     1.7710     Total:     1.8969

*** Psi4 exiting successfully. Buy a developer a beer!
