                               Psi4 1.3.2 release

  ==> Input File <==

--------------------------------------------------------------------------
#psi4
#
memory 32 gb

molecule  {
0 1
  O       -0.2992330     0.0680890    -1.4276520
  O        1.1877390     1.7321380     1.3773370
  O        0.9070540     2.3739560    -0.7854760
  O        2.2997900    -2.4217320    -0.0198770
  O       -3.4576290     0.0760600    -0.5562400
  O        2.6367540    -0.2338110    -0.4932570
  O       -2.4353810    -1.6060190     0.5619510
  C       -0.1483627     0.3365785    -0.0315159
  C        0.5596730    -0.9208470     0.5522810
  C       -1.4701600     0.6204770     0.6141540
  C        0.7459700     1.5647750     0.1124900
  C        1.9236380    -1.1208730    -0.0515330
  C       -2.4761190    -0.4337210     0.2256320
  H       -0.0681530    -1.7945710     0.3697710
  H        0.6733550    -0.8157800     1.6370670
  H       -1.8203350     1.5970450     0.2687060
  H       -1.3720190     0.6392280     1.7041070
  H       -0.0402350     0.8946720    -1.8856460
  H        1.6977260     2.5694770     1.3788080
  H        3.2012140    -2.4469230    -0.4041650
  H       -4.0405490    -0.6812350    -0.7753220
units angstrom
no_reorient  #important for SAPT in psi4, default
symmetry c1  #important for SAPT in psi4, default
}

set PROPERTIES_ORIGIN ["COM"]
properties('MP2/aug-cc-pvtz', properties = ['dipole'])
--------------------------------------------------------------------------

    Molecular point group: c1
  Charge       = 0
  Multiplicity = 1
  Basis Set: AUG-CC-PVTZ
    Blend: AUG-CC-PVTZ
  Basis Set: (AUG-CC-PVTZ AUX)
    Blend: AUG-CC-PVTZ-JKFIT

    Orbital Energies [Eh]
    ---------------------

    Doubly Occupied:

       1A    -20.638290     2A    -20.627911     3A    -20.624625
       4A    -20.577303     5A    -20.571426     6A    -20.563906
       7A    -20.560061     8A    -11.411686     9A    -11.407762
      10A    -11.402013    11A    -11.340480    12A    -11.273130
      13A    -11.262526    14A     -1.485575    15A     -1.473559
      16A     -1.469552    17A     -1.396221    18A     -1.371525
      19A     -1.369236    20A     -1.365363    21A     -1.120077
      22A     -1.038910    23A     -0.952887    24A     -0.852762
      25A     -0.831655    26A     -0.794675    27A     -0.758657
      28A     -0.728303    29A     -0.719287    30A     -0.715176
      31A     -0.704592    32A     -0.691952    33A     -0.670285
      34A     -0.653403    35A     -0.644034    36A     -0.638410
      37A     -0.623898    38A     -0.605249    39A     -0.596568
      40A     -0.580546    41A     -0.562807    42A     -0.556114
      43A     -0.542599    44A     -0.505376    45A     -0.494933
      46A     -0.489409    47A     -0.486005    48A     -0.474478
      49A     -0.464580    50A     -0.453738

  @DF-RHF Final Energy:  -756.25520463737075

   => Energetics <=

    Nuclear Repulsion Energy =            874.4684905486086564
    One-Electron Energy =               -2777.1603592361161645
    Two-Electron Energy =                1146.4366640501366419
    Total Energy =                       -756.2552046373707526
  Basis Set: (AUG-CC-PVTZ AUX)
    Blend: AUG-CC-PVTZ-RI
    Molecular point group: c1

    Geometry (in Angstrom), charge = 0, multiplicity = 1:

       Center              X                  Y                   Z               Mass
    ------------   -----------------  -----------------  -----------------  -----------------
         O           -0.305763696309     0.066332775485    -1.416636753876    15.994914619570
         O            1.181208303691     1.730381775485     1.388352246124    15.994914619570
         O            0.900523303691     2.372199775485    -0.774460753876    15.994914619570
         O            2.293259303691    -2.423488224515    -0.008861753876    15.994914619570
         O           -3.464159696309     0.074303775485    -0.545224753876    15.994914619570
         O            2.630223303691    -0.235567224515    -0.482241753876    15.994914619570
         O           -2.441911696309    -1.607775224515     0.572966246124    15.994914619570
         C           -0.154893396309     0.334822275485    -0.020500653876    12.000000000000
         C            0.553142303691    -0.922603224515     0.563296246124    12.000000000000
         C           -1.476690696309     0.618720775485     0.625169246124    12.000000000000
         C            0.739439303691     1.563018775485     0.123505246124    12.000000000000
         C            1.917107303691    -1.122629224515    -0.040517753876    12.000000000000
         C           -2.482649696309    -0.435477224515     0.236647246124    12.000000000000
         H           -0.074683696309    -1.796327224515     0.380786246124     1.007825032230
         H            0.666824303691    -0.817536224515     1.648082246124     1.007825032230
         H           -1.826865696309     1.595288775485     0.279721246124     1.007825032230
         H           -1.378549696309     0.637471775485     1.715122246124     1.007825032230
         H           -0.046765696309     0.892915775485    -1.874630753876     1.007825032230
         H            1.691195303691     2.567720775485     1.389823246124     1.007825032230
         H            3.194683303691    -2.448679224515    -0.393149753876     1.007825032230
         H           -4.047079696309    -0.682991224515    -0.764306753876     1.007825032230

  Basis Set: AUG-CC-PVTZ
    Blend: AUG-CC-PVTZ
  Basis Set: (AUG-CC-PVTZ AUX)
    Blend: AUG-CC-PVTZ-JKFIT
	 Reference Energy          =    -756.2552046373707526 [Eh]
	 Singles Energy            =      -0.0000000000000000 [Eh]
	 Same-Spin Energy          =      -0.7306391481415544 [Eh]
	 Opposite-Spin Energy      =      -2.1620663579490618 [Eh]
	 Correlation Energy        =      -2.8927055060906159 [Eh]
	 Total Energy              =    -759.1479101434613312 [Eh]

	 ================> DF-SCS-MP2 Energies <==================
	-----------------------------------------------------------
	 SCS Same-Spin Scale       =       0.3333333333333333 [-]
	 SCS Opposite-Spin Scale   =       1.2000000000000000 [-]
	 SCS Same-Spin Energy      =      -0.2435463827138515 [Eh]
	 SCS Opposite-Spin Energy  =      -2.5944796295388741 [Eh]
	 SCS Correlation Energy    =      -2.8380260122527257 [Eh]
	 SCS Total Energy          =    -759.0932306496234787 [Eh]
	-----------------------------------------------------------

  Dipole Moment: [D]
     X:    -0.2747      Y:     0.7888      Z:     1.8981     Total:     2.0738

*** Psi4 exiting successfully. Buy a developer a beer!
