                               Psi4 1.3.2 release

  ==> Input File <==

--------------------------------------------------------------------------
#psi4
#
memory 32 gb

molecule  {
0 1
  O       -0.2992330     0.0680890    -1.4276520
  O        1.1877390     1.7321380     1.3773370
  O        0.9070540     2.3739560    -0.7854760
  O        2.2997900    -2.4217320    -0.0198770
  O       -3.4576290     0.0760600    -0.5562400
  O        2.6367540    -0.2338110    -0.4932570
  O       -2.4353810    -1.6060190     0.5619510
  C       -0.1069590     0.3116290    -0.0442930
  C        0.5801984    -0.9142475     0.5973937
  C       -1.4701600     0.6204770     0.6141540
  C        0.7459700     1.5647750     0.1124900
  C        1.9236380    -1.1208730    -0.0515330
  C       -2.4761190    -0.4337210     0.2256320
  H       -0.0681530    -1.7945710     0.3697710
  H        0.6733550    -0.8157800     1.6370670
  H       -1.8203350     1.5970450     0.2687060
  H       -1.3720190     0.6392280     1.7041070
  H       -0.0402350     0.8946720    -1.8856460
  H        1.6977260     2.5694770     1.3788080
  H        3.2012140    -2.4469230    -0.4041650
  H       -4.0405490    -0.6812350    -0.7753220
units angstrom
no_reorient  #important for SAPT in psi4, default
symmetry c1  #important for SAPT in psi4, default
}

set PROPERTIES_ORIGIN ["COM"]
properties('MP2/aug-cc-pvtz', properties = ['dipole'])
--------------------------------------------------------------------------

    Molecular point group: c1
  Charge       = 0
  Multiplicity = 1
  Basis Set: AUG-CC-PVTZ
    Blend: AUG-CC-PVTZ
  Basis Set: (AUG-CC-PVTZ AUX)
    Blend: AUG-CC-PVTZ-JKFIT

    Orbital Energies [Eh]
    ---------------------

    Doubly Occupied:

       1A    -20.637957     2A    -20.626807     3A    -20.625097
       4A    -20.579561     5A    -20.570700     6A    -20.562492
       7A    -20.561393     8A    -11.410560     9A    -11.406146
      10A    -11.402578    11A    -11.341898    12A    -11.273142
      13A    -11.261501    14A     -1.485331    15A     -1.472316
      16A     -1.470281    17A     -1.398914    18A     -1.371985
      19A     -1.368628    20A     -1.366564    21A     -1.115680
      22A     -1.038704    23A     -0.952438    24A     -0.851498
      25A     -0.829858    26A     -0.797660    27A     -0.759971
      28A     -0.727618    29A     -0.718178    30A     -0.715819
      31A     -0.706890    32A     -0.690959    33A     -0.669306
      34A     -0.653421    35A     -0.644853    36A     -0.637173
      37A     -0.621649    38A     -0.604282    39A     -0.596132
      40A     -0.577371    41A     -0.571432    42A     -0.559179
      43A     -0.542995    44A     -0.505822    45A     -0.495172
      46A     -0.490724    47A     -0.484344    48A     -0.472070
      49A     -0.464664    50A     -0.451641

  @DF-RHF Final Energy:  -756.25543794364899

   => Energetics <=

    Nuclear Repulsion Energy =            874.1961652535625262
    One-Electron Energy =               -2776.6205010802659672
    Two-Electron Energy =                1146.1688978830545693
    Total Energy =                       -756.2554379436489853
  Basis Set: (AUG-CC-PVTZ AUX)
    Blend: AUG-CC-PVTZ-RI
    Molecular point group: c1

    Geometry (in Angstrom), charge = 0, multiplicity = 1:

       Center              X                  Y                   Z               Mass
    ------------   -----------------  -----------------  -----------------  -----------------
         O           -0.309633720785     0.067479489213    -1.418657444690    15.994914619570
         O            1.177338279215     1.731528489213     1.386331555310    15.994914619570
         O            0.896653279215     2.373346489213    -0.776481444690    15.994914619570
         O            2.289389279215    -2.422341510787    -0.010882444690    15.994914619570
         O           -3.468029720785     0.075450489213    -0.547245444690    15.994914619570
         O            2.626353279215    -0.234420510787    -0.484262444690    15.994914619570
         O           -2.445781720785    -1.606628510787     0.570945555310    15.994914619570
         C           -0.117359720785     0.311019489213    -0.035298444690    12.000000000000
         C            0.569797679215    -0.914857010787     0.606388255310    12.000000000000
         C           -1.480560720785     0.619867489213     0.623148555310    12.000000000000
         C            0.735569279215     1.564165489213     0.121484555310    12.000000000000
         C            1.913237279215    -1.121482510787    -0.042538444690    12.000000000000
         C           -2.486519720785    -0.434330510787     0.234626555310    12.000000000000
         H           -0.078553720785    -1.795180510787     0.378765555310     1.007825032230
         H            0.662954279215    -0.816389510787     1.646061555310     1.007825032230
         H           -1.830735720785     1.596435489213     0.277700555310     1.007825032230
         H           -1.382419720785     0.638618489213     1.713101555310     1.007825032230
         H           -0.050635720785     0.894062489213    -1.876651444690     1.007825032230
         H            1.687325279215     2.568867489213     1.387802555310     1.007825032230
         H            3.190813279215    -2.447532510787    -0.395170444690     1.007825032230
         H           -4.050949720785    -0.681844510787    -0.766327444690     1.007825032230

  Basis Set: AUG-CC-PVTZ
    Blend: AUG-CC-PVTZ
  Basis Set: (AUG-CC-PVTZ AUX)
    Blend: AUG-CC-PVTZ-JKFIT
	 Reference Energy          =    -756.2554379436489853 [Eh]
	 Singles Energy            =      -0.0000000000000000 [Eh]
	 Same-Spin Energy          =      -0.7304637312418445 [Eh]
	 Opposite-Spin Energy      =      -2.1616452274145934 [Eh]
	 Correlation Energy        =      -2.8921089586564381 [Eh]
	 Total Energy              =    -759.1475469023054075 [Eh]

	 ================> DF-SCS-MP2 Energies <==================
	-----------------------------------------------------------
	 SCS Same-Spin Scale       =       0.3333333333333333 [-]
	 SCS Opposite-Spin Scale   =       1.2000000000000000 [-]
	 SCS Same-Spin Energy      =      -0.2434879104139482 [Eh]
	 SCS Opposite-Spin Energy  =      -2.5939742728975119 [Eh]
	 SCS Correlation Energy    =      -2.8374621833114602 [Eh]
	 SCS Total Energy          =    -759.0929001269604441 [Eh]
	-----------------------------------------------------------

  Dipole Moment: [D]
     X:    -0.1534      Y:     0.7334      Z:     1.8651     Total:     2.0099

*** Psi4 exiting successfully. Buy a developer a beer!
