                               Psi4 1.3.2 release

  ==> Input File <==

--------------------------------------------------------------------------
#psi4
#
memory 32 gb

molecule  {
0 1
  O       -0.2992330     0.0680890    -1.4276520
  O        1.1877390     1.7321380     1.3773370
  O        0.9070540     2.3739560    -0.7854760
  O        2.2997900    -2.4217320    -0.0198770
  O       -3.4576290     0.0760600    -0.5562400
  O        2.6367540    -0.2338110    -0.4932570
  O       -2.4353810    -1.6060190     0.5619510
  C       -0.1069590     0.3116290    -0.0442930
  C        0.5596730    -0.9208470     0.5522810
  C       -1.6317329     0.6847899     0.8586086
  C        0.7459700     1.5647750     0.1124900
  C        1.9236380    -1.1208730    -0.0515330
  C       -2.4761190    -0.4337210     0.2256320
  H       -0.0681530    -1.7945710     0.3697710
  H        0.6733550    -0.8157800     1.6370670
  H       -1.8203350     1.5970450     0.2687060
  H       -1.3720190     0.6392280     1.7041070
  H       -0.0402350     0.8946720    -1.8856460
  H        1.6977260     2.5694770     1.3788080
  H        3.2012140    -2.4469230    -0.4041650
  H       -4.0405490    -0.6812350    -0.7753220
units angstrom
no_reorient  #important for SAPT in psi4, default
symmetry c1  #important for SAPT in psi4, default
}

set PROPERTIES_ORIGIN ["COM"]
properties('MP2/aug-cc-pvtz', properties = ['dipole'])
--------------------------------------------------------------------------

    Molecular point group: c1
  Charge       = 0
  Multiplicity = 1
  Basis Set: AUG-CC-PVTZ
    Blend: AUG-CC-PVTZ
  Basis Set: (AUG-CC-PVTZ AUX)
    Blend: AUG-CC-PVTZ-JKFIT

    Orbital Energies [Eh]
    ---------------------

    Doubly Occupied:

       1A    -20.637116     2A    -20.626581     3A    -20.625095
       4A    -20.586962     5A    -20.570102     6A    -20.561151
       7A    -20.560985     8A    -11.410795     9A    -11.410073
      10A    -11.402356    11A    -11.352529    12A    -11.274762
      13A    -11.262744    14A     -1.484390    15A     -1.471496
      16A     -1.470196    17A     -1.399930    18A     -1.371959
      19A     -1.368007    20A     -1.366550    21A     -1.101714
      22A     -1.038904    23A     -0.949976    24A     -0.849397
      25A     -0.844259    26A     -0.797473    27A     -0.757349
      28A     -0.726500    29A     -0.722571    30A     -0.715140
      31A     -0.702428    32A     -0.695510    33A     -0.678048
      34A     -0.653929    35A     -0.643221    36A     -0.636988
      37A     -0.635729    38A     -0.601812    39A     -0.595937
      40A     -0.587480    41A     -0.575719    42A     -0.551825
      43A     -0.544771    44A     -0.505311    45A     -0.495102
      46A     -0.489695    47A     -0.481340    48A     -0.466994
      49A     -0.460370    50A     -0.423065

  @DF-RHF Final Energy:  -756.17727361608650

   => Energetics <=

    Nuclear Repulsion Energy =            869.2556432548797147
    One-Electron Energy =               -2766.5811524795813057
    Two-Electron Energy =                1141.1482356086150958
    Total Energy =                       -756.1772736160864952
  Basis Set: (AUG-CC-PVTZ AUX)
    Blend: AUG-CC-PVTZ-RI
    Molecular point group: c1

    Geometry (in Angstrom), charge = 0, multiplicity = 1:

       Center              X                  Y                   Z               Mass
    ------------   -----------------  -----------------  -----------------  -----------------
         O           -0.298254177437     0.063872908937    -1.431114561489    15.994914619570
         O            1.188717822563     1.727921908937     1.373874438511    15.994914619570
         O            0.908032822563     2.369739908937    -0.788938561489    15.994914619570
         O            2.300768822563    -2.425948091063    -0.023339561489    15.994914619570
         O           -3.456650177437     0.071843908937    -0.559702561489    15.994914619570
         O            2.637732822563    -0.238027091063    -0.496719561489    15.994914619570
         O           -2.434402177437    -1.610235091063     0.558488438511    15.994914619570
         C           -0.105980177437     0.307412908937    -0.047755561489    12.000000000000
         C            0.560651822563    -0.925063091063     0.548818438511    12.000000000000
         C           -1.630754077437     0.680573808937     0.855146038511    12.000000000000
         C            0.746948822563     1.560558908937     0.109027438511    12.000000000000
         C            1.924616822563    -1.125089091063    -0.054995561489    12.000000000000
         C           -2.475140177437    -0.437937091063     0.222169438511    12.000000000000
         H           -0.067174177437    -1.798787091063     0.366308438511     1.007825032230
         H            0.674333822563    -0.819996091063     1.633604438511     1.007825032230
         H           -1.819356177437     1.592828908937     0.265243438511     1.007825032230
         H           -1.371040177437     0.635011908937     1.700644438511     1.007825032230
         H           -0.039256177437     0.890455908937    -1.889108561489     1.007825032230
         H            1.698704822563     2.565260908937     1.375345438511     1.007825032230
         H            3.202192822563    -2.451139091063    -0.407627561489     1.007825032230
         H           -4.039570177437    -0.685451091063    -0.778784561489     1.007825032230

  Basis Set: AUG-CC-PVTZ
    Blend: AUG-CC-PVTZ
  Basis Set: (AUG-CC-PVTZ AUX)
    Blend: AUG-CC-PVTZ-JKFIT
	 Reference Energy          =    -756.1772736160864952 [Eh]
	 Singles Energy            =      -0.0000000000000000 [Eh]
	 Same-Spin Energy          =      -0.7321456989735189 [Eh]
	 Opposite-Spin Energy      =      -2.1663551985802902 [Eh]
	 Correlation Energy        =      -2.8985008975538094 [Eh]
	 Total Energy              =    -759.0757745136403400 [Eh]

	 ================> DF-SCS-MP2 Energies <==================
	-----------------------------------------------------------
	 SCS Same-Spin Scale       =       0.3333333333333333 [-]
	 SCS Opposite-Spin Scale   =       1.2000000000000000 [-]
	 SCS Same-Spin Energy      =      -0.2440485663245063 [Eh]
	 SCS Opposite-Spin Energy  =      -2.5996262382963482 [Eh]
	 SCS Correlation Energy    =      -2.8436748046208544 [Eh]
	 SCS Total Energy          =    -759.0209484207073274 [Eh]
	-----------------------------------------------------------

  Dipole Moment: [D]
     X:    -0.0308      Y:     0.6543      Z:     1.7329     Total:     1.8525

*** Psi4 exiting successfully. Buy a developer a beer!
