                               Psi4 1.3.2 release

  ==> Input File <==

--------------------------------------------------------------------------
#psi4
#
memory 32 gb

molecule  {
0 1
  O       -0.2992330     0.0680890    -1.4276520
  O        1.1877390     1.7321380     1.3773370
  O        0.9070540     2.3739560    -0.7854760
  O        2.2997900    -2.4217320    -0.0198770
  O       -3.4576290     0.0760600    -0.5562400
  O        2.6367540    -0.2338110    -0.4932570
  O       -2.4353810    -1.6060190     0.5619510
  C       -0.1897664     0.3615280    -0.0187388
  C        0.5596730    -0.9208470     0.5522810
  C       -1.4701600     0.6204770     0.6141540
  C        0.7459700     1.5647750     0.1124900
  C        1.9236380    -1.1208730    -0.0515330
  C       -2.4761190    -0.4337210     0.2256320
  H       -0.0681530    -1.7945710     0.3697710
  H        0.6733550    -0.8157800     1.6370670
  H       -1.8203350     1.5970450     0.2687060
  H       -1.3720190     0.6392280     1.7041070
  H       -0.0402350     0.8946720    -1.8856460
  H        1.6977260     2.5694770     1.3788080
  H        3.2012140    -2.4469230    -0.4041650
  H       -4.0405490    -0.6812350    -0.7753220
units angstrom
no_reorient  #important for SAPT in psi4, default
symmetry c1  #important for SAPT in psi4, default
}

set PROPERTIES_ORIGIN ["COM"]
properties('MP2/aug-cc-pvtz', properties = ['dipole'])
--------------------------------------------------------------------------

    Molecular point group: c1
  Charge       = 0
  Multiplicity = 1
  Basis Set: AUG-CC-PVTZ
    Blend: AUG-CC-PVTZ
  Basis Set: (AUG-CC-PVTZ AUX)
    Blend: AUG-CC-PVTZ-JKFIT

    Orbital Energies [Eh]
    ---------------------

    Doubly Occupied:

       1A    -20.638330     2A    -20.628878     3A    -20.624210
       4A    -20.576356     5A    -20.571460     6A    -20.565106
       7A    -20.559121     8A    -11.412145     9A    -11.409203
      10A    -11.401626    11A    -11.340511    12A    -11.272497
      13A    -11.262899    14A     -1.485437    15A     -1.474633
      16A     -1.468908    17A     -1.393520    18A     -1.371720
      19A     -1.368425    20A     -1.364031    21A     -1.125624
      22A     -1.037761    23A     -0.952687    24A     -0.853137
      25A     -0.832195    26A     -0.793841    27A     -0.757383
      28A     -0.728647    29A     -0.720020    30A     -0.714306
      31A     -0.704780    32A     -0.692261    33A     -0.671473
      34A     -0.653089    35A     -0.643709    36A     -0.638835
      37A     -0.625430    38A     -0.606509    39A     -0.598079
      40A     -0.580932    41A     -0.563729    42A     -0.552076
      43A     -0.538829    44A     -0.504733    45A     -0.495005
      46A     -0.488353    47A     -0.485546    48A     -0.475912
      49A     -0.463241    50A     -0.453118

  @DF-RHF Final Energy:  -756.24720001997161

   => Energetics <=

    Nuclear Repulsion Energy =            874.2881662756129799
    One-Electron Energy =               -2776.7902230123281697
    Two-Electron Energy =                1146.2548567167434612
    Total Energy =                       -756.2472000199716149
  Basis Set: (AUG-CC-PVTZ AUX)
    Blend: AUG-CC-PVTZ-RI
    Molecular point group: c1

    Geometry (in Angstrom), charge = 0, multiplicity = 1:

       Center              X                  Y                   Z               Mass
    ------------   -----------------  -----------------  -----------------  -----------------
         O           -0.303176328943     0.064773651008    -1.417435210333    15.994914619570
         O            1.183795671057     1.728822651008     1.387553789667    15.994914619570
         O            0.903110671057     2.370640651008    -0.775259210333    15.994914619570
         O            2.295846671057    -2.425047348992    -0.009660210333    15.994914619570
         O           -3.461572328943     0.072744651008    -0.546023210333    15.994914619570
         O            2.632810671057    -0.237126348992    -0.483040210333    15.994914619570
         O           -2.439324328943    -1.609334348992     0.572167789667    15.994914619570
         C           -0.193709728943     0.358212651008    -0.008522010333    12.000000000000
         C            0.555729671057    -0.924162348992     0.562497789667    12.000000000000
         C           -1.474103328943     0.617161651008     0.624370789667    12.000000000000
         C            0.742026671057     1.561459651008     0.122706789667    12.000000000000
         C            1.919694671057    -1.124188348992    -0.041316210333    12.000000000000
         C           -2.480062328943    -0.437036348992     0.235848789667    12.000000000000
         H           -0.072096328943    -1.797886348992     0.379987789667     1.007825032230
         H            0.669411671057    -0.819095348992     1.647283789667     1.007825032230
         H           -1.824278328943     1.593729651008     0.278922789667     1.007825032230
         H           -1.375962328943     0.635912651008     1.714323789667     1.007825032230
         H           -0.044178328943     0.891356651008    -1.875429210333     1.007825032230
         H            1.693782671057     2.566161651008     1.389024789667     1.007825032230
         H            3.197270671057    -2.450238348992    -0.393948210333     1.007825032230
         H           -4.044492328943    -0.684550348992    -0.765105210333     1.007825032230

  Basis Set: AUG-CC-PVTZ
    Blend: AUG-CC-PVTZ
  Basis Set: (AUG-CC-PVTZ AUX)
    Blend: AUG-CC-PVTZ-JKFIT
	 Reference Energy          =    -756.2472000199716149 [Eh]
	 Singles Energy            =      -0.0000000000000000 [Eh]
	 Same-Spin Energy          =      -0.7309855752368644 [Eh]
	 Opposite-Spin Energy      =      -2.1629772717637392 [Eh]
	 Correlation Energy        =      -2.8939628470006036 [Eh]
	 Total Energy              =    -759.1411628669721949 [Eh]

	 ================> DF-SCS-MP2 Energies <==================
	-----------------------------------------------------------
	 SCS Same-Spin Scale       =       0.3333333333333333 [-]
	 SCS Opposite-Spin Scale   =       1.2000000000000000 [-]
	 SCS Same-Spin Energy      =      -0.2436618584122881 [Eh]
	 SCS Opposite-Spin Energy  =      -2.5955727261164871 [Eh]
	 SCS Correlation Energy    =      -2.8392345845287754 [Eh]
	 SCS Total Energy          =    -759.0864346045003686 [Eh]
	-----------------------------------------------------------

  Dipole Moment: [D]
     X:    -0.3812      Y:     0.8369      Z:     1.9354     Total:     2.1428

*** Psi4 exiting successfully. Buy a developer a beer!
