                               Psi4 1.3.2 release

  ==> Input File <==

--------------------------------------------------------------------------
#psi4
#
memory 32 gb

molecule  {
0 1
  O       -0.2992330     0.0680890    -1.4276520
  O        1.1877390     1.7321380     1.3773370
  O        0.9070540     2.3739560    -0.7854760
  O        2.2997900    -2.4217320    -0.0198770
  O       -3.4576290     0.0760600    -0.5562400
  O        2.6367540    -0.2338110    -0.4932570
  O       -2.4353810    -1.6060190     0.5619510
  C       -0.3553813     0.4613261     0.0323695
  C        0.5596730    -0.9208470     0.5522810
  C       -1.4701600     0.6204770     0.6141540
  C        0.7459700     1.5647750     0.1124900
  C        1.9236380    -1.1208730    -0.0515330
  C       -2.4761190    -0.4337210     0.2256320
  H       -0.0681530    -1.7945710     0.3697710
  H        0.6733550    -0.8157800     1.6370670
  H       -1.8203350     1.5970450     0.2687060
  H       -1.3720190     0.6392280     1.7041070
  H       -0.0402350     0.8946720    -1.8856460
  H        1.6977260     2.5694770     1.3788080
  H        3.2012140    -2.4469230    -0.4041650
  H       -4.0405490    -0.6812350    -0.7753220
units angstrom
no_reorient  #important for SAPT in psi4, default
symmetry c1  #important for SAPT in psi4, default
}

set PROPERTIES_ORIGIN ["COM"]
properties('MP2/aug-cc-pvtz', properties = ['dipole'])
--------------------------------------------------------------------------

    Molecular point group: c1
  Charge       = 0
  Multiplicity = 1
  Basis Set: AUG-CC-PVTZ
    Blend: AUG-CC-PVTZ
  Basis Set: (AUG-CC-PVTZ AUX)
    Blend: AUG-CC-PVTZ-JKFIT

    Orbital Energies [Eh]
    ---------------------

    Doubly Occupied:

       1A    -20.638164     2A    -20.633394     3A    -20.621949
       4A    -20.572622     5A    -20.571328     6A    -20.570406
       7A    -20.555138     8A    -11.416403     9A    -11.416286
      10A    -11.399369    11A    -11.343151    12A    -11.268086
      13A    -11.262389    14A     -1.484619    15A     -1.479500
      16A     -1.465948    17A     -1.386098    18A     -1.376090
      19A     -1.362891    20A     -1.352203    21A     -1.169929
      22A     -1.026950    23A     -0.949541    24A     -0.863521
      25A     -0.827513    26A     -0.791116    27A     -0.755788
      28A     -0.731724    29A     -0.723123    30A     -0.715268
      31A     -0.708783    32A     -0.689866    33A     -0.674495
      34A     -0.654778    35A     -0.646773    36A     -0.639438
      37A     -0.630954    38A     -0.615690    39A     -0.605403
      40A     -0.581627    41A     -0.562349    42A     -0.535659
      43A     -0.524941    44A     -0.501556    45A     -0.498126
      46A     -0.490359    47A     -0.482902    48A     -0.467447
      49A     -0.458328    50A     -0.427579

  @DF-RHF Final Energy:  -756.15277952935446

   => Energetics <=

    Nuclear Repulsion Energy =            873.6563734701651356
    One-Electron Energy =               -2775.3631838805563348
    Two-Electron Energy =                1145.5540308810366241
    Total Energy =                       -756.1527795293545751
  Basis Set: (AUG-CC-PVTZ AUX)
    Blend: AUG-CC-PVTZ-RI
    Molecular point group: c1

    Geometry (in Angstrom), charge = 0, multiplicity = 1:

       Center              X                  Y                   Z               Mass
    ------------   -----------------  -----------------  -----------------  -----------------
         O           -0.292826853227     0.058537146851    -1.420629029909    15.994914619570
         O            1.194145146773     1.722586146851     1.384359970091    15.994914619570
         O            0.913460146773     2.364404146851    -0.778453029909    15.994914619570
         O            2.306196146773    -2.431283853149    -0.012854029909    15.994914619570
         O           -3.451222853227     0.066508146851    -0.549217029909    15.994914619570
         O            2.643160146773    -0.243362853149    -0.486234029909    15.994914619570
         O           -2.428974853227    -1.615570853149     0.568973970091    15.994914619570
         C           -0.348975153227     0.451774246851     0.039392470091    12.000000000000
         C            0.566079146773    -0.930398853149     0.559303970091    12.000000000000
         C           -1.463753853227     0.610925146851     0.621176970091    12.000000000000
         C            0.752376146773     1.555223146851     0.119512970091    12.000000000000
         C            1.930044146773    -1.130424853149    -0.044510029909    12.000000000000
         C           -2.469712853227    -0.443272853149     0.232654970091    12.000000000000
         H           -0.061746853227    -1.804122853149     0.376793970091     1.007825032230
         H            0.679761146773    -0.825331853149     1.644089970091     1.007825032230
         H           -1.813928853227     1.587493146851     0.275728970091     1.007825032230
         H           -1.365612853227     0.629676146851     1.711129970091     1.007825032230
         H           -0.033828853227     0.885120146851    -1.878623029909     1.007825032230
         H            1.704132146773     2.559925146851     1.385830970091     1.007825032230
         H            3.207620146773    -2.456474853149    -0.397142029909     1.007825032230
         H           -4.034142853227    -0.690786853149    -0.768299029909     1.007825032230

  Basis Set: AUG-CC-PVTZ
    Blend: AUG-CC-PVTZ
  Basis Set: (AUG-CC-PVTZ AUX)
    Blend: AUG-CC-PVTZ-JKFIT
	 Reference Energy          =    -756.1527795293544614 [Eh]
	 Singles Energy            =      -0.0000000000000000 [Eh]
	 Same-Spin Energy          =      -0.7351995183887081 [Eh]
	 Opposite-Spin Energy      =      -2.1713307887006614 [Eh]
	 Correlation Energy        =      -2.9065303070893695 [Eh]
	 Total Energy              =    -759.0593098364438447 [Eh]

	 ================> DF-SCS-MP2 Energies <==================
	-----------------------------------------------------------
	 SCS Same-Spin Scale       =       0.3333333333333333 [-]
	 SCS Opposite-Spin Scale   =       1.2000000000000000 [-]
	 SCS Same-Spin Energy      =      -0.2450665061295694 [Eh]
	 SCS Opposite-Spin Energy  =      -2.6055969464407935 [Eh]
	 SCS Correlation Energy    =      -2.8506634525703629 [Eh]
	 SCS Total Energy          =    -759.0034429819248771 [Eh]
	-----------------------------------------------------------

  Dipole Moment: [D]
     X:    -0.8683      Y:     1.0331      Z:     2.0991     Total:     2.4955

*** Psi4 exiting successfully. Buy a developer a beer!
