                               Psi4 1.3.2 release

  ==> Input File <==

--------------------------------------------------------------------------
#psi4
#
memory 32 gb

molecule  {
0 1
  O       -0.2992330     0.0680890    -1.4276520
  O        1.1877390     1.7321380     1.3773370
  O        0.9070540     2.3739560    -0.7854760
  O        2.2997900    -2.4217320    -0.0198770
  O       -3.4576290     0.0760600    -0.5562400
  O        2.6367540    -0.2338110    -0.4932570
  O       -2.4353810    -1.6060190     0.5619510
  C       -0.2311701     0.3864776    -0.0059617
  C        0.5596730    -0.9208470     0.5522810
  C       -1.4701600     0.6204770     0.6141540
  C        0.7459700     1.5647750     0.1124900
  C        1.9236380    -1.1208730    -0.0515330
  C       -2.4761190    -0.4337210     0.2256320
  H       -0.0681530    -1.7945710     0.3697710
  H        0.6733550    -0.8157800     1.6370670
  H       -1.8203350     1.5970450     0.2687060
  H       -1.3720190     0.6392280     1.7041070
  H       -0.0402350     0.8946720    -1.8856460
  H        1.6977260     2.5694770     1.3788080
  H        3.2012140    -2.4469230    -0.4041650
  H       -4.0405490    -0.6812350    -0.7753220
units angstrom
no_reorient  #important for SAPT in psi4, default
symmetry c1  #important for SAPT in psi4, default
}

set PROPERTIES_ORIGIN ["COM"]
properties('MP2/aug-cc-pvtz', properties = ['dipole'])
--------------------------------------------------------------------------

    Molecular point group: c1
  Charge       = 0
  Multiplicity = 1
  Basis Set: AUG-CC-PVTZ
    Blend: AUG-CC-PVTZ
  Basis Set: (AUG-CC-PVTZ AUX)
    Blend: AUG-CC-PVTZ-JKFIT

    Orbital Energies [Eh]
    ---------------------

    Doubly Occupied:

       1A    -20.638336     2A    -20.629878     3A    -20.623772
       4A    -20.575456     5A    -20.571464     6A    -20.566326
       7A    -20.558198     8A    -11.412863     9A    -11.410731
      10A    -11.401219    11A    -11.340845    12A    -11.271582
      13A    -11.263168    14A     -1.485267    15A     -1.475738
      16A     -1.468265    17A     -1.391125    18A     -1.372577
      19A     -1.366903    20A     -1.362210    21A     -1.133598
      22A     -1.035802    23A     -0.952228    24A     -0.854583
      25A     -0.831890    26A     -0.793053    27A     -0.756348
      28A     -0.729123    29A     -0.720718    30A     -0.713600
      31A     -0.705788    32A     -0.692016    33A     -0.672674
      34A     -0.652905    35A     -0.643764    36A     -0.639198
      37A     -0.627157    38A     -0.608378    39A     -0.599792
      40A     -0.581422    41A     -0.564086    42A     -0.548035
      43A     -0.535021    44A     -0.504003    45A     -0.495459
      46A     -0.488058    47A     -0.484684    48A     -0.475554
      49A     -0.461826    50A     -0.450515

  @DF-RHF Final Energy:  -756.23359830984009

   => Energetics <=

    Nuclear Repulsion Energy =            874.1125284220305502
    One-Electron Energy =               -2776.4178501939040871
    Two-Electron Energy =                1146.0717234620333329
    Total Energy =                       -756.2335983098400902
  Basis Set: (AUG-CC-PVTZ AUX)
    Blend: AUG-CC-PVTZ-RI
    Molecular point group: c1

    Geometry (in Angstrom), charge = 0, multiplicity = 1:

       Center              X                  Y                   Z               Mass
    ------------   -----------------  -----------------  -----------------  -----------------
         O           -0.300588961576     0.063214520282    -1.418233666789    15.994914619570
         O            1.186383038424     1.727263520282     1.386755333211    15.994914619570
         O            0.905698038424     2.369081520282    -0.776057666789    15.994914619570
         O            2.298434038424    -2.426606479718    -0.010458666789    15.994914619570
         O           -3.458984961576     0.071185520282    -0.546821666789    15.994914619570
         O            2.635398038424    -0.238685479718    -0.483838666789    15.994914619570
         O           -2.436736961576    -1.610893479718     0.571369333211    15.994914619570
         C           -0.232526061576     0.381603120282     0.003456633211    12.000000000000
         C            0.558317038424    -0.925721479718     0.561699333211    12.000000000000
         C           -1.471515961576     0.615602520282     0.623572333211    12.000000000000
         C            0.744614038424     1.559900520282     0.121908333211    12.000000000000
         C            1.922282038424    -1.125747479718    -0.042114666789    12.000000000000
         C           -2.477474961576    -0.438595479718     0.235050333211    12.000000000000
         H           -0.069508961576    -1.799445479718     0.379189333211     1.007825032230
         H            0.671999038424    -0.820654479718     1.646485333211     1.007825032230
         H           -1.821690961576     1.592170520282     0.278124333211     1.007825032230
         H           -1.373374961576     0.634353520282     1.713525333211     1.007825032230
         H           -0.041590961576     0.889797520282    -1.876227666789     1.007825032230
         H            1.696370038424     2.564602520282     1.388226333211     1.007825032230
         H            3.199858038424    -2.451797479718    -0.394746666789     1.007825032230
         H           -4.041904961576    -0.686109479718    -0.765903666789     1.007825032230

  Basis Set: AUG-CC-PVTZ
    Blend: AUG-CC-PVTZ
  Basis Set: (AUG-CC-PVTZ AUX)
    Blend: AUG-CC-PVTZ-JKFIT
	 Reference Energy          =    -756.2335983098400902 [Eh]
	 Singles Energy            =      -0.0000000000000000 [Eh]
	 Same-Spin Energy          =      -0.7316003067551624 [Eh]
	 Opposite-Spin Energy      =      -2.1643447501669328 [Eh]
	 Correlation Energy        =      -2.8959450569220953 [Eh]
	 Total Energy              =    -759.1295433667621637 [Eh]

	 ================> DF-SCS-MP2 Energies <==================
	-----------------------------------------------------------
	 SCS Same-Spin Scale       =       0.3333333333333333 [-]
	 SCS Opposite-Spin Scale   =       1.2000000000000000 [-]
	 SCS Same-Spin Energy      =      -0.2438667689183875 [Eh]
	 SCS Opposite-Spin Energy  =      -2.5972137002003195 [Eh]
	 SCS Correlation Energy    =      -2.8410804691187068 [Eh]
	 SCS Total Energy          =    -759.0746787789587415 [Eh]
	-----------------------------------------------------------

  Dipole Moment: [D]
     X:    -0.4904      Y:     0.8840      Z:     1.9734     Total:     2.2172

*** Psi4 exiting successfully. Buy a developer a beer!
