                               Psi4 1.3.2 release

  ==> Input File <==

--------------------------------------------------------------------------
#psi4
#
memory 32 gb

molecule  {
0 1
  O       -0.2992330     0.0680890    -1.4276520
  O        1.1877390     1.7321380     1.3773370
  O        0.9070540     2.3739560    -0.7854760
  O        2.2997900    -2.4217320    -0.0198770
  O       -3.4576290     0.0760600    -0.5562400
  O        2.6367540    -0.2338110    -0.4932570
  O       -2.4353810    -1.6060190     0.5619510
  C       -0.2725739     0.4114271     0.0068154
  C        0.5596730    -0.9208470     0.5522810
  C       -1.4701600     0.6204770     0.6141540
  C        0.7459700     1.5647750     0.1124900
  C        1.9236380    -1.1208730    -0.0515330
  C       -2.4761190    -0.4337210     0.2256320
  H       -0.0681530    -1.7945710     0.3697710
  H        0.6733550    -0.8157800     1.6370670
  H       -1.8203350     1.5970450     0.2687060
  H       -1.3720190     0.6392280     1.7041070
  H       -0.0402350     0.8946720    -1.8856460
  H        1.6977260     2.5694770     1.3788080
  H        3.2012140    -2.4469230    -0.4041650
  H       -4.0405490    -0.6812350    -0.7753220
units angstrom
no_reorient  #important for SAPT in psi4, default
symmetry c1  #important for SAPT in psi4, default
}

set PROPERTIES_ORIGIN ["COM"]
properties('MP2/aug-cc-pvtz', properties = ['dipole'])
--------------------------------------------------------------------------

    Molecular point group: c1
  Charge       = 0
  Multiplicity = 1
  Basis Set: AUG-CC-PVTZ
    Blend: AUG-CC-PVTZ
  Basis Set: (AUG-CC-PVTZ AUX)
    Blend: AUG-CC-PVTZ-JKFIT

    Orbital Energies [Eh]
    ---------------------

    Doubly Occupied:

       1A    -20.638308     2A    -20.630941     3A    -20.623277
       4A    -20.574562     5A    -20.571439     6A    -20.567594
       7A    -20.557256     8A    -11.413822     9A    -11.412389
      10A    -11.400743    11A    -11.341422    12A    -11.270470
      13A    -11.263247    14A     -1.485068    15A     -1.476901
      16A     -1.467585    17A     -1.389097    18A     -1.373625
      19A     -1.365424    20A     -1.359599    21A     -1.143795
      22A     -1.033244    23A     -0.951525    24A     -0.856969
      25A     -0.830862    26A     -0.792316    27A     -0.755658
      28A     -0.729759    29A     -0.721419    30A     -0.713185
      31A     -0.707351    32A     -0.691357    33A     -0.673698
      34A     -0.652938    35A     -0.644389    36A     -0.639426
      37A     -0.628798    38A     -0.610706    39A     -0.601597
      40A     -0.581778    41A     -0.563905    42A     -0.543952
      43A     -0.531414    44A     -0.503209    45A     -0.496208
      46A     -0.488425    47A     -0.484092    48A     -0.473471
      49A     -0.460558    50A     -0.445395

  @DF-RHF Final Energy:  -756.21382332929409

   => Energetics <=

    Nuclear Repulsion Energy =            873.9457055628569151
    One-Electron Energy =               -2776.0507169571956183
    Two-Electron Energy =                1145.8911880650448438
    Total Energy =                       -756.2138233292939731
  Basis Set: (AUG-CC-PVTZ AUX)
    Blend: AUG-CC-PVTZ-RI
    Molecular point group: c1

    Geometry (in Angstrom), charge = 0, multiplicity = 1:

       Center              X                  Y                   Z               Mass
    ------------   -----------------  -----------------  -----------------  -----------------
         O           -0.298001587960     0.061655395805    -1.419032123245    15.994914619570
         O            1.188970412040     1.725704395805     1.385956876755    15.994914619570
         O            0.908285412040     2.367522395805    -0.776856123245    15.994914619570
         O            2.301021412040    -2.428165604195    -0.011257123245    15.994914619570
         O           -3.456397587960     0.069626395805    -0.547620123245    15.994914619570
         O            2.637985412040    -0.240244604195    -0.484637123245    15.994914619570
         O           -2.434149587960    -1.612452604195     0.570570876755    15.994914619570
         C           -0.271342487960     0.404993495805     0.015435276755    12.000000000000
         C            0.560904412040    -0.927280604195     0.560900876755    12.000000000000
         C           -1.468928587960     0.614043395805     0.622773876755    12.000000000000
         C            0.747201412040     1.558341395805     0.121109876755    12.000000000000
         C            1.924869412040    -1.127306604195    -0.042913123245    12.000000000000
         C           -2.474887587960    -0.440154604195     0.234251876755    12.000000000000
         H           -0.066921587960    -1.801004604195     0.378390876755     1.007825032230
         H            0.674586412040    -0.822213604195     1.645686876755     1.007825032230
         H           -1.819103587960     1.590611395805     0.277325876755     1.007825032230
         H           -1.370787587960     0.632794395805     1.712726876755     1.007825032230
         H           -0.039003587960     0.888238395805    -1.877026123245     1.007825032230
         H            1.698957412040     2.563043395805     1.387427876755     1.007825032230
         H            3.202445412040    -2.453356604195    -0.395545123245     1.007825032230
         H           -4.039317587960    -0.687668604195    -0.766702123245     1.007825032230

  Basis Set: AUG-CC-PVTZ
    Blend: AUG-CC-PVTZ
  Basis Set: (AUG-CC-PVTZ AUX)
    Blend: AUG-CC-PVTZ-JKFIT
	 Reference Energy          =    -756.2138233292940868 [Eh]
	 Singles Energy            =      -0.0000000000000000 [Eh]
	 Same-Spin Energy          =      -0.7324969126986607 [Eh]
	 Opposite-Spin Energy      =      -2.1661825178166474 [Eh]
	 Correlation Energy        =      -2.8986794305153083 [Eh]
	 Total Energy              =    -759.1125027598094448 [Eh]

	 ================> DF-SCS-MP2 Energies <==================
	-----------------------------------------------------------
	 SCS Same-Spin Scale       =       0.3333333333333333 [-]
	 SCS Opposite-Spin Scale   =       1.2000000000000000 [-]
	 SCS Same-Spin Energy      =      -0.2441656375662202 [Eh]
	 SCS Opposite-Spin Energy  =      -2.5994190213799766 [Eh]
	 SCS Correlation Energy    =      -2.8435846589461971 [Eh]
	 SCS Total Energy          =    -759.0574079882402430 [Eh]
	-----------------------------------------------------------

  Dipole Moment: [D]
     X:    -0.6056      Y:     0.9313      Z:     2.0128     Total:     2.2990

*** Psi4 exiting successfully. Buy a developer a beer!
