                               Psi4 1.3.2 release

  ==> Input File <==

--------------------------------------------------------------------------
#psi4
#
memory 32 gb

molecule  {
0 1
  O       -0.2992330     0.0680890    -1.4276520
  O        1.1877390     1.7321380     1.3773370
  O        0.9070540     2.3739560    -0.7854760
  O        2.2997900    -2.4217320    -0.0198770
  O       -3.4576290     0.0760600    -0.5562400
  O        2.6367540    -0.2338110    -0.4932570
  O       -2.4353810    -1.6060190     0.5619510
  C       -0.1069590     0.3116290    -0.0442930
  C        0.6623001    -0.8878497     0.7778444
  C       -1.4701600     0.6204770     0.6141540
  C        0.7459700     1.5647750     0.1124900
  C        1.9236380    -1.1208730    -0.0515330
  C       -2.4761190    -0.4337210     0.2256320
  H       -0.0681530    -1.7945710     0.3697710
  H        0.6733550    -0.8157800     1.6370670
  H       -1.8203350     1.5970450     0.2687060
  H       -1.3720190     0.6392280     1.7041070
  H       -0.0402350     0.8946720    -1.8856460
  H        1.6977260     2.5694770     1.3788080
  H        3.2012140    -2.4469230    -0.4041650
  H       -4.0405490    -0.6812350    -0.7753220
units angstrom
no_reorient  #important for SAPT in psi4, default
symmetry c1  #important for SAPT in psi4, default
}

set PROPERTIES_ORIGIN ["COM"]
properties('MP2/aug-cc-pvtz', properties = ['dipole'])
--------------------------------------------------------------------------

    Molecular point group: c1
  Charge       = 0
  Multiplicity = 1
  Basis Set: AUG-CC-PVTZ
    Blend: AUG-CC-PVTZ
  Basis Set: (AUG-CC-PVTZ AUX)
    Blend: AUG-CC-PVTZ-JKFIT

    Orbital Energies [Eh]
    ---------------------

    Doubly Occupied:

       1A    -20.637033     2A    -20.626337     3A    -20.625527
       4A    -20.585304     5A    -20.568705     6A    -20.563428
       7A    -20.561735     8A    -11.407742     9A    -11.406955
      10A    -11.405333    11A    -11.347925    12A    -11.272354
      13A    -11.264146    14A     -1.484250    15A     -1.471719
      16A     -1.470759    17A     -1.399575    18A     -1.371359
      19A     -1.368406    20A     -1.367188    21A     -1.110475
      22A     -1.038806    23A     -0.951962    24A     -0.848815
      25A     -0.835153    26A     -0.809054    27A     -0.759713
      28A     -0.726640    29A     -0.724004    30A     -0.717287
      31A     -0.714608    32A     -0.690710    33A     -0.667821
      34A     -0.656269    35A     -0.643394    36A     -0.634907
      37A     -0.619268    38A     -0.613079    39A     -0.597538
      40A     -0.588397    41A     -0.560358    42A     -0.557685
      43A     -0.530231    44A     -0.505184    45A     -0.494870
      46A     -0.490901    47A     -0.478829    48A     -0.470683
      49A     -0.457065    50A     -0.443226

  @DF-RHF Final Energy:  -756.17153133620275

   => Energetics <=

    Nuclear Repulsion Energy =            872.2013203943181452
    One-Electron Energy =               -2772.4602737818308924
    Two-Electron Energy =                1144.0874220513101136
    Total Energy =                       -756.1715313362026336
  Basis Set: (AUG-CC-PVTZ AUX)
    Blend: AUG-CC-PVTZ-RI
    Molecular point group: c1

    Geometry (in Angstrom), charge = 0, multiplicity = 1:

       Center              X                  Y                   Z               Mass
    ------------   -----------------  -----------------  -----------------  -----------------
         O           -0.314764355470     0.065829858715    -1.429934027518    15.994914619570
         O            1.172207644530     1.729878858715     1.375054972482    15.994914619570
         O            0.891522644530     2.371696858715    -0.787758027518    15.994914619570
         O            2.284258644530    -2.423991141285    -0.022159027518    15.994914619570
         O           -3.473160355470     0.073800858715    -0.558522027518    15.994914619570
         O            2.621222644530    -0.236070141285    -0.495539027518    15.994914619570
         O           -2.450912355470    -1.608278141285     0.559668972482    15.994914619570
         C           -0.122490355470     0.309369858715    -0.046575027518    12.000000000000
         C            0.646768744530    -0.890108841285     0.775562372482    12.000000000000
         C           -1.485691355470     0.618217858715     0.611871972482    12.000000000000
         C            0.730438644530     1.562515858715     0.110207972482    12.000000000000
         C            1.908106644530    -1.123132141285    -0.053815027518    12.000000000000
         C           -2.491650355470    -0.435980141285     0.223349972482    12.000000000000
         H           -0.083684355470    -1.796830141285     0.367488972482     1.007825032230
         H            0.657823644530    -0.818039141285     1.634784972482     1.007825032230
         H           -1.835866355470     1.594785858715     0.266423972482     1.007825032230
         H           -1.387550355470     0.636968858715     1.701824972482     1.007825032230
         H           -0.055766355470     0.892412858715    -1.887928027518     1.007825032230
         H            1.682194644530     2.567217858715     1.376525972482     1.007825032230
         H            3.185682644530    -2.449182141285    -0.406447027518     1.007825032230
         H           -4.056080355470    -0.683494141285    -0.777604027518     1.007825032230

  Basis Set: AUG-CC-PVTZ
    Blend: AUG-CC-PVTZ
  Basis Set: (AUG-CC-PVTZ AUX)
    Blend: AUG-CC-PVTZ-JKFIT
	 Reference Energy          =    -756.1715313362027473 [Eh]
	 Singles Energy            =      -0.0000000000000000 [Eh]
	 Same-Spin Energy          =      -0.7313306120692946 [Eh]
	 Opposite-Spin Energy      =      -2.1651679701572690 [Eh]
	 Correlation Energy        =      -2.8964985822265636 [Eh]
	 Total Energy              =    -759.0680299184292608 [Eh]

	 ================> DF-SCS-MP2 Energies <==================
	-----------------------------------------------------------
	 SCS Same-Spin Scale       =       0.3333333333333333 [-]
	 SCS Opposite-Spin Scale   =       1.2000000000000000 [-]
	 SCS Same-Spin Energy      =      -0.2437768706897649 [Eh]
	 SCS Opposite-Spin Energy  =      -2.5982015641887228 [Eh]
	 SCS Correlation Energy    =      -2.8419784348784876 [Eh]
	 SCS Total Energy          =    -759.0135097710812033 [Eh]
	-----------------------------------------------------------

  Dipole Moment: [D]
     X:    -0.0894      Y:     0.7492      Z:     1.8119     Total:     1.9627

*** Psi4 exiting successfully. Buy a developer a beer!
