                               Psi4 1.3.2 release

  ==> Input File <==

--------------------------------------------------------------------------
#psi4
#
memory 32 gb

molecule  {
0 1
  O       -0.2992330     0.0680890    -1.4276520
  O        1.1877390     1.7321380     1.3773370
  O        0.9070540     2.3739560    -0.7854760
  O        2.2997900    -2.4217320    -0.0198770
  O       -3.4576290     0.0760600    -0.5562400
  O        2.6367540    -0.2338110    -0.4932570
  O       -2.4353810    -1.6060190     0.5619510
  C       -0.1069590     0.3116290    -0.0442930
  C        0.5596730    -0.9208470     0.5522810
  C       -1.5240176     0.6419146     0.6956389
  C        0.7459700     1.5647750     0.1124900
  C        1.9236380    -1.1208730    -0.0515330
  C       -2.4761190    -0.4337210     0.2256320
  H       -0.0681530    -1.7945710     0.3697710
  H        0.6733550    -0.8157800     1.6370670
  H       -1.8203350     1.5970450     0.2687060
  H       -1.3720190     0.6392280     1.7041070
  H       -0.0402350     0.8946720    -1.8856460
  H        1.6977260     2.5694770     1.3788080
  H        3.2012140    -2.4469230    -0.4041650
  H       -4.0405490    -0.6812350    -0.7753220
units angstrom
no_reorient  #important for SAPT in psi4, default
symmetry c1  #important for SAPT in psi4, default
}

set PROPERTIES_ORIGIN ["COM"]
properties('MP2/aug-cc-pvtz', properties = ['dipole'])
--------------------------------------------------------------------------

    Molecular point group: c1
  Charge       = 0
  Multiplicity = 1
  Basis Set: AUG-CC-PVTZ
    Blend: AUG-CC-PVTZ
  Basis Set: (AUG-CC-PVTZ AUX)
    Blend: AUG-CC-PVTZ-JKFIT

    Orbital Energies [Eh]
    ---------------------

    Doubly Occupied:

       1A    -20.637861     2A    -20.626649     3A    -20.624946
       4A    -20.581020     5A    -20.570799     6A    -20.562245
       7A    -20.560907     8A    -11.410996     9A    -11.406567
      10A    -11.402247    11A    -11.345229    12A    -11.271717
      13A    -11.262072    14A     -1.485165    15A     -1.472106
      16A     -1.470100    17A     -1.398856    18A     -1.371974
      19A     -1.368498    20A     -1.366332    21A     -1.110534
      22A     -1.038822    23A     -0.951600    24A     -0.851068
      25A     -0.832223    26A     -0.796774    27A     -0.758648
      28A     -0.727287    29A     -0.719319    30A     -0.715649
      31A     -0.703561    32A     -0.691783    33A     -0.672055
      34A     -0.653714    35A     -0.643185    36A     -0.637297
      37A     -0.626706    38A     -0.603608    39A     -0.593384
      40A     -0.582828    41A     -0.573644    42A     -0.556491
      43A     -0.547207    44A     -0.505623    45A     -0.495048
      46A     -0.490027    47A     -0.484244    48A     -0.468349
      49A     -0.464896    50A     -0.448091

  @DF-RHF Final Energy:  -756.24956623043374

   => Energetics <=

    Nuclear Repulsion Energy =            872.8626558730296665
    One-Electron Energy =               -2773.9445464555260514
    Two-Electron Energy =                1144.8323243520626420
    Total Energy =                       -756.2495662304336292
  Basis Set: (AUG-CC-PVTZ AUX)
    Blend: AUG-CC-PVTZ-RI
    Molecular point group: c1

    Geometry (in Angstrom), charge = 0, multiplicity = 1:

       Center              X                  Y                   Z               Mass
    ------------   -----------------  -----------------  -----------------  -----------------
         O           -0.304985437012     0.066552238370    -1.420930387526    15.994914619570
         O            1.181986562988     1.730601238370     1.384058612474    15.994914619570
         O            0.901301562988     2.372419238370    -0.778754387526    15.994914619570
         O            2.294037562988    -2.423268761630    -0.013155387526    15.994914619570
         O           -3.463381437012     0.074523238370    -0.549518387526    15.994914619570
         O            2.631001562988    -0.235347761630    -0.486535387526    15.994914619570
         O           -2.441133437012    -1.607555761630     0.568672612474    15.994914619570
         C           -0.112711437012     0.310092238370    -0.037571387526    12.000000000000
         C            0.553920562988    -0.922383761630     0.559002612474    12.000000000000
         C           -1.529770037012     0.640377838370     0.702360512474    12.000000000000
         C            0.740217562988     1.563238238370     0.119211612474    12.000000000000
         C            1.917885562988    -1.122409761630    -0.044811387526    12.000000000000
         C           -2.481871437012    -0.435257761630     0.232353612474    12.000000000000
         H           -0.073905437012    -1.796107761630     0.376492612474     1.007825032230
         H            0.667602562988    -0.817316761630     1.643788612474     1.007825032230
         H           -1.826087437012     1.595508238370     0.275427612474     1.007825032230
         H           -1.377771437012     0.637691238370     1.710828612474     1.007825032230
         H           -0.045987437012     0.893135238370    -1.878924387526     1.007825032230
         H            1.691973562988     2.567940238370     1.385529612474     1.007825032230
         H            3.195461562988    -2.448459761630    -0.397443387526     1.007825032230
         H           -4.046301437012    -0.682771761630    -0.768600387526     1.007825032230

  Basis Set: AUG-CC-PVTZ
    Blend: AUG-CC-PVTZ
  Basis Set: (AUG-CC-PVTZ AUX)
    Blend: AUG-CC-PVTZ-JKFIT
	 Reference Energy          =    -756.2495662304337429 [Eh]
	 Singles Energy            =      -0.0000000000000000 [Eh]
	 Same-Spin Energy          =      -0.7304662402639621 [Eh]
	 Opposite-Spin Energy      =      -2.1618494422491183 [Eh]
	 Correlation Energy        =      -2.8923156825130807 [Eh]
	 Total Energy              =    -759.1418819129468147 [Eh]

	 ================> DF-SCS-MP2 Energies <==================
	-----------------------------------------------------------
	 SCS Same-Spin Scale       =       0.3333333333333333 [-]
	 SCS Opposite-Spin Scale   =       1.2000000000000000 [-]
	 SCS Same-Spin Energy      =      -0.2434887467546540 [Eh]
	 SCS Opposite-Spin Energy  =      -2.5942193306989418 [Eh]
	 SCS Correlation Energy    =      -2.8377080774535957 [Eh]
	 SCS Total Energy          =    -759.0872743078873555 [Eh]
	-----------------------------------------------------------

  Dipole Moment: [D]
     X:    -0.1453      Y:     0.7217      Z:     1.8440     Total:     1.9855

*** Psi4 exiting successfully. Buy a developer a beer!
