                               Psi4 1.3.2 release

  ==> Input File <==

--------------------------------------------------------------------------
#psi4
#
memory 32 gb

molecule  {
0 1
  O       -0.2992330     0.0680890    -1.4276520
  O        1.1877390     1.7321380     1.3773370
  O        0.9070540     2.3739560    -0.7854760
  O        2.2997900    -2.4217320    -0.0198770
  O       -3.4576290     0.0760600    -0.5562400
  O        2.6367540    -0.2338110    -0.4932570
  O       -2.4353810    -1.6060190     0.5619510
  C       -0.3139776     0.4363766     0.0195924
  C        0.5596730    -0.9208470     0.5522810
  C       -1.4701600     0.6204770     0.6141540
  C        0.7459700     1.5647750     0.1124900
  C        1.9236380    -1.1208730    -0.0515330
  C       -2.4761190    -0.4337210     0.2256320
  H       -0.0681530    -1.7945710     0.3697710
  H        0.6733550    -0.8157800     1.6370670
  H       -1.8203350     1.5970450     0.2687060
  H       -1.3720190     0.6392280     1.7041070
  H       -0.0402350     0.8946720    -1.8856460
  H        1.6977260     2.5694770     1.3788080
  H        3.2012140    -2.4469230    -0.4041650
  H       -4.0405490    -0.6812350    -0.7753220
units angstrom
no_reorient  #important for SAPT in psi4, default
symmetry c1  #important for SAPT in psi4, default
}

set PROPERTIES_ORIGIN ["COM"]
properties('MP2/aug-cc-pvtz', properties = ['dipole'])
--------------------------------------------------------------------------

    Molecular point group: c1
  Charge       = 0
  Multiplicity = 1
  Basis Set: AUG-CC-PVTZ
    Blend: AUG-CC-PVTZ
  Basis Set: (AUG-CC-PVTZ AUX)
    Blend: AUG-CC-PVTZ-JKFIT

    Orbital Energies [Eh]
    ---------------------

    Doubly Occupied:

       1A    -20.638249     2A    -20.632101     3A    -20.622685
       4A    -20.573630     5A    -20.571391     6A    -20.568941
       7A    -20.556252     8A    -11.415007     9A    -11.414223
      10A    -11.400147    11A    -11.342198    12A    -11.269263
      13A    -11.263029    14A     -1.484845    15A     -1.478148
      16A     -1.466829    17A     -1.387436    18A     -1.374793
      19A     -1.364126    20A     -1.356186    21A     -1.155988
      22A     -1.030257    23A     -0.950611    24A     -0.860034
      25A     -0.829337    26A     -0.791653    27A     -0.755430
      28A     -0.730600    29A     -0.722190    30A     -0.713567
      31A     -0.708654    32A     -0.690547    33A     -0.674357
      34A     -0.653416    35A     -0.645555    36A     -0.639495
      37A     -0.630094    38A     -0.613232    39A     -0.603460
      40A     -0.581864    41A     -0.563302    42A     -0.539806
      43A     -0.528073    44A     -0.502370    45A     -0.497139
      46A     -0.489240    47A     -0.483583    48A     -0.470602
      49A     -0.459438    50A     -0.437627

  @DF-RHF Final Energy:  -756.18717024904959

   => Energetics <=

    Nuclear Repulsion Energy =            873.7921016766600815
    One-Electron Energy =               -2775.6965450915281508
    Two-Electron Energy =                1145.7172731658185967
    Total Energy =                       -756.1871702490495863
  Basis Set: (AUG-CC-PVTZ AUX)
    Blend: AUG-CC-PVTZ-RI
    Molecular point group: c1

    Geometry (in Angstrom), charge = 0, multiplicity = 1:

       Center              X                  Y                   Z               Mass
    ------------   -----------------  -----------------  -----------------  -----------------
         O           -0.295414220594     0.060096271328    -1.419830573452    15.994914619570
         O            1.191557779406     1.724145271328     1.385158426548    15.994914619570
         O            0.910872779406     2.365963271328    -0.777654573452    15.994914619570
         O            2.303608779406    -2.429724728672    -0.012055573452    15.994914619570
         O           -3.453810220594     0.068067271328    -0.548418573452    15.994914619570
         O            2.640572779406    -0.241803728672    -0.485435573452    15.994914619570
         O           -2.431562220594    -1.614011728672     0.569772426548    15.994914619570
         C           -0.310158820594     0.428383871328     0.027413826548    12.000000000000
         C            0.563491779406    -0.928839728672     0.560102426548    12.000000000000
         C           -1.466341220594     0.612484271328     0.621975426548    12.000000000000
         C            0.749788779406     1.556782271328     0.120311426548    12.000000000000
         C            1.927456779406    -1.128865728672    -0.043711573452    12.000000000000
         C           -2.472300220594    -0.441713728672     0.233453426548    12.000000000000
         H           -0.064334220594    -1.802563728672     0.377592426548     1.007825032230
         H            0.677173779406    -0.823772728672     1.644888426548     1.007825032230
         H           -1.816516220594     1.589052271328     0.276527426548     1.007825032230
         H           -1.368200220594     0.631235271328     1.711928426548     1.007825032230
         H           -0.036416220594     0.886679271328    -1.877824573452     1.007825032230
         H            1.701544779406     2.561484271328     1.386629426548     1.007825032230
         H            3.205032779406    -2.454915728672    -0.396343573452     1.007825032230
         H           -4.036730220594    -0.689227728672    -0.767500573452     1.007825032230

  Basis Set: AUG-CC-PVTZ
    Blend: AUG-CC-PVTZ
  Basis Set: (AUG-CC-PVTZ AUX)
    Blend: AUG-CC-PVTZ-JKFIT
	 Reference Energy          =    -756.1871702490495863 [Eh]
	 Singles Energy            =      -0.0000000000000000 [Eh]
	 Same-Spin Energy          =      -0.7336911026159225 [Eh]
	 Opposite-Spin Energy      =      -2.1685063588267988 [Eh]
	 Correlation Energy        =      -2.9021974614427215 [Eh]
	 Total Energy              =    -759.0893677104922972 [Eh]

	 ================> DF-SCS-MP2 Energies <==================
	-----------------------------------------------------------
	 SCS Same-Spin Scale       =       0.3333333333333333 [-]
	 SCS Opposite-Spin Scale   =       1.2000000000000000 [-]
	 SCS Same-Spin Energy      =      -0.2445637008719742 [Eh]
	 SCS Opposite-Spin Energy  =      -2.6022076305921584 [Eh]
	 SCS Correlation Energy    =      -2.8467713314641325 [Eh]
	 SCS Total Energy          =    -759.0339415805136696 [Eh]
	-----------------------------------------------------------

  Dipole Moment: [D]
     X:    -0.7303      Y:     0.9805      Z:     2.0545     Total:     2.3908

*** Psi4 exiting successfully. Buy a developer a beer!
