                               Psi4 1.3.2 release

  ==> Input File <==

--------------------------------------------------------------------------
#psi4
#
memory 32 gb

molecule  {
0 1
  O       -0.2992330     0.0680890    -1.4276520
  O        1.1877390     1.7321380     1.3773370
  O        0.9070540     2.3739560    -0.7854760
  O        2.2997900    -2.4217320    -0.0198770
  O       -3.4576290     0.0760600    -0.5562400
  O        2.6367540    -0.2338110    -0.4932570
  O       -2.4353810    -1.6060190     0.5619510
  C       -0.1069590     0.3116290    -0.0442930
  C        0.6212493    -0.9010486     0.6876191
  C       -1.4701600     0.6204770     0.6141540
  C        0.7459700     1.5647750     0.1124900
  C        1.9236380    -1.1208730    -0.0515330
  C       -2.4761190    -0.4337210     0.2256320
  H       -0.0681530    -1.7945710     0.3697710
  H        0.6733550    -0.8157800     1.6370670
  H       -1.8203350     1.5970450     0.2687060
  H       -1.3720190     0.6392280     1.7041070
  H       -0.0402350     0.8946720    -1.8856460
  H        1.6977260     2.5694770     1.3788080
  H        3.2012140    -2.4469230    -0.4041650
  H       -4.0405490    -0.6812350    -0.7753220
units angstrom
no_reorient  #important for SAPT in psi4, default
symmetry c1  #important for SAPT in psi4, default
}

set PROPERTIES_ORIGIN ["COM"]
properties('MP2/aug-cc-pvtz', properties = ['dipole'])
--------------------------------------------------------------------------

    Molecular point group: c1
  Charge       = 0
  Multiplicity = 1
  Basis Set: AUG-CC-PVTZ
    Blend: AUG-CC-PVTZ
  Basis Set: (AUG-CC-PVTZ AUX)
    Blend: AUG-CC-PVTZ-JKFIT

    Orbital Energies [Eh]
    ---------------------

    Doubly Occupied:

       1A    -20.637475     2A    -20.626557     3A    -20.625238
       4A    -20.582310     5A    -20.569569     6A    -20.562242
       7A    -20.562105     8A    -11.408960     9A    -11.405729
      10A    -11.403967    11A    -11.344625    12A    -11.272697
      13A    -11.261738    14A     -1.484727    15A     -1.472002
      16A     -1.470444    17A     -1.398988    18A     -1.371519
      19A     -1.368393    20A     -1.366857    21A     -1.112919
      22A     -1.038284    23A     -0.951917    24A     -0.848790
      25A     -0.830252    26A     -0.803646    27A     -0.759812
      28A     -0.726840    29A     -0.717723    30A     -0.716278
      31A     -0.712831    32A     -0.690769    33A     -0.669016
      34A     -0.654618    35A     -0.644311    36A     -0.635777
      37A     -0.619471    38A     -0.607567    39A     -0.597621
      40A     -0.584324    41A     -0.568371    42A     -0.558837
      43A     -0.536468    44A     -0.505516    45A     -0.495067
      46A     -0.490830    47A     -0.481209    48A     -0.471662
      49A     -0.461621    50A     -0.448619

  @DF-RHF Final Energy:  -756.23042471149699

   => Energetics <=

    Nuclear Repulsion Energy =            873.2276176786150472
    One-Electron Energy =               -2774.6418760048109107
    Two-Electron Energy =                1145.1838336146990969
    Total Energy =                       -756.2304247114968803
  Basis Set: (AUG-CC-PVTZ AUX)
    Blend: AUG-CC-PVTZ-RI
    Molecular point group: c1

    Geometry (in Angstrom), charge = 0, multiplicity = 1:

       Center              X                  Y                   Z               Mass
    ------------   -----------------  -----------------  -----------------  -----------------
         O           -0.312199041252     0.066654673964    -1.424295739228    15.994914619570
         O            1.174772958748     1.730703673964     1.380693260772    15.994914619570
         O            0.894087958748     2.372521673964    -0.782119739228    15.994914619570
         O            2.286823958748    -2.423166326036    -0.016520739228    15.994914619570
         O           -3.470595041252     0.074625673964    -0.552883739228    15.994914619570
         O            2.623787958748    -0.235245326036    -0.489900739228    15.994914619570
         O           -2.448347041252    -1.607453326036     0.565307260772    15.994914619570
         C           -0.119925041252     0.310194673964    -0.040936739228    12.000000000000
         C            0.608283258748    -0.902482926036     0.690975360772    12.000000000000
         C           -1.483126041252     0.619042673964     0.617510260772    12.000000000000
         C            0.733003958748     1.563340673964     0.115846260772    12.000000000000
         C            1.910671958748    -1.122307326036    -0.048176739228    12.000000000000
         C           -2.489085041252    -0.435155326036     0.228988260772    12.000000000000
         H           -0.081119041252    -1.796005326036     0.373127260772     1.007825032230
         H            0.660388958748    -0.817214326036     1.640423260772     1.007825032230
         H           -1.833301041252     1.595610673964     0.272062260772     1.007825032230
         H           -1.384985041252     0.637793673964     1.707463260772     1.007825032230
         H           -0.053201041252     0.893237673964    -1.882289739228     1.007825032230
         H            1.684759958748     2.568042673964     1.382164260772     1.007825032230
         H            3.188247958748    -2.448357326036    -0.400808739228     1.007825032230
         H           -4.053515041252    -0.682669326036    -0.771965739228     1.007825032230

  Basis Set: AUG-CC-PVTZ
    Blend: AUG-CC-PVTZ
  Basis Set: (AUG-CC-PVTZ AUX)
    Blend: AUG-CC-PVTZ-JKFIT
	 Reference Energy          =    -756.2304247114969940 [Eh]
	 Singles Energy            =      -0.0000000000000000 [Eh]
	 Same-Spin Energy          =      -0.7306472102116046 [Eh]
	 Opposite-Spin Energy      =      -2.1627055591223057 [Eh]
	 Correlation Energy        =      -2.8933527693339105 [Eh]
	 Total Energy              =    -759.1237774808308814 [Eh]

	 ================> DF-SCS-MP2 Energies <==================
	-----------------------------------------------------------
	 SCS Same-Spin Scale       =       0.3333333333333333 [-]
	 SCS Opposite-Spin Scale   =       1.2000000000000000 [-]
	 SCS Same-Spin Energy      =      -0.2435490700705349 [Eh]
	 SCS Opposite-Spin Energy  =      -2.5952466709467665 [Eh]
	 SCS Correlation Energy    =      -2.8387957410173015 [Eh]
	 SCS Total Energy          =    -759.0692204525142870 [Eh]
	-----------------------------------------------------------

  Dipole Moment: [D]
     X:    -0.1238      Y:     0.7345      Z:     1.8523     Total:     1.9964

*** Psi4 exiting successfully. Buy a developer a beer!
