                               Psi4 1.3.2 release

  ==> Input File <==

--------------------------------------------------------------------------
#psi4
#
memory 32 gb

molecule  {
0 1
  O       -0.2992330     0.0680890    -1.4276520
  O        1.1877390     1.7321380     1.3773370
  O        0.9070540     2.3739560    -0.7854760
  O        2.2997900    -2.4217320    -0.0198770
  O       -3.4576290     0.0760600    -0.5562400
  O        2.6367540    -0.2338110    -0.4932570
  O       -2.4353810    -1.6060190     0.5619510
  C       -0.1069590     0.3116290    -0.0442930
  C        0.6007238    -0.9076481     0.6425064
  C       -1.4701600     0.6204770     0.6141540
  C        0.7459700     1.5647750     0.1124900
  C        1.9236380    -1.1208730    -0.0515330
  C       -2.4761190    -0.4337210     0.2256320
  H       -0.0681530    -1.7945710     0.3697710
  H        0.6733550    -0.8157800     1.6370670
  H       -1.8203350     1.5970450     0.2687060
  H       -1.3720190     0.6392280     1.7041070
  H       -0.0402350     0.8946720    -1.8856460
  H        1.6977260     2.5694770     1.3788080
  H        3.2012140    -2.4469230    -0.4041650
  H       -4.0405490    -0.6812350    -0.7753220
units angstrom
no_reorient  #important for SAPT in psi4, default
symmetry c1  #important for SAPT in psi4, default
}

set PROPERTIES_ORIGIN ["COM"]
properties('MP2/aug-cc-pvtz', properties = ['dipole'])
--------------------------------------------------------------------------

    Molecular point group: c1
  Charge       = 0
  Multiplicity = 1
  Basis Set: AUG-CC-PVTZ
    Blend: AUG-CC-PVTZ
  Basis Set: (AUG-CC-PVTZ AUX)
    Blend: AUG-CC-PVTZ-JKFIT

    Orbital Energies [Eh]
    ---------------------

    Doubly Occupied:

       1A    -20.637709     2A    -20.626676     3A    -20.625156
       4A    -20.580894     5A    -20.570101     6A    -20.562295
       7A    -20.561784     8A    -11.409713     9A    -11.405933
      10A    -11.403084    11A    -11.343175    12A    -11.272905
      13A    -11.261371    14A     -1.485012    15A     -1.472153
      16A     -1.470350    17A     -1.398878    18A     -1.371711
      19A     -1.368492    20A     -1.366693    21A     -1.114277
      22A     -1.038424    23A     -0.952127    24A     -0.849950
      25A     -0.829697    26A     -0.800429    27A     -0.759883
      28A     -0.727205    29A     -0.717914    30A     -0.715687
      31A     -0.709638    32A     -0.690835    33A     -0.669257
      34A     -0.653799    35A     -0.644711    36A     -0.636424
      37A     -0.620516    38A     -0.605087    39A     -0.597056
      40A     -0.579760    41A     -0.572542    42A     -0.558952
      43A     -0.539764    44A     -0.505683    45A     -0.495138
      46A     -0.490797    47A     -0.482732    48A     -0.471939
      49A     -0.463350    50A     -0.450339

  @DF-RHF Final Energy:  -756.24654446024704

   => Energetics <=

    Nuclear Repulsion Energy =            873.7209891966282385
    One-Electron Energy =               -2775.6590733254379302
    Two-Electron Energy =                1145.6915396685626547
    Total Energy =                       -756.2465444602471507
  Basis Set: (AUG-CC-PVTZ AUX)
    Blend: AUG-CC-PVTZ-RI
    Molecular point group: c1

    Geometry (in Angstrom), charge = 0, multiplicity = 1:

       Center              X                  Y                   Z               Mass
    ------------   -----------------  -----------------  -----------------  -----------------
         O           -0.310916377894     0.067067084713    -1.421476591959    15.994914619570
         O            1.176055622106     1.731116084713     1.383512408041    15.994914619570
         O            0.895370622106     2.372934084713    -0.779300591959    15.994914619570
         O            2.288106622106    -2.422753915287    -0.013701591959    15.994914619570
         O           -3.469312377894     0.075038084713    -0.550064591959    15.994914619570
         O            2.625070622106    -0.234832915287    -0.487081591959    15.994914619570
         O           -2.447064377894    -1.607040915287     0.568126408041    15.994914619570
         C           -0.118642377894     0.310607084713    -0.038117591959    12.000000000000
         C            0.589040422106    -0.908670015287     0.648681808041    12.000000000000
         C           -1.481843377894     0.619455084713     0.620329408041    12.000000000000
         C            0.734286622106     1.563753084713     0.118665408041    12.000000000000
         C            1.911954622106    -1.121894915287    -0.045357591959    12.000000000000
         C           -2.487802377894    -0.434742915287     0.231807408041    12.000000000000
         H           -0.079836377894    -1.795592915287     0.375946408041     1.007825032230
         H            0.661671622106    -0.816801915287     1.643242408041     1.007825032230
         H           -1.832018377894     1.596023084713     0.274881408041     1.007825032230
         H           -1.383702377894     0.638206084713     1.710282408041     1.007825032230
         H           -0.051918377894     0.893650084713    -1.879470591959     1.007825032230
         H            1.686042622106     2.568455084713     1.384983408041     1.007825032230
         H            3.189530622106    -2.447944915287    -0.397989591959     1.007825032230
         H           -4.052232377894    -0.682256915287    -0.769146591959     1.007825032230

  Basis Set: AUG-CC-PVTZ
    Blend: AUG-CC-PVTZ
  Basis Set: (AUG-CC-PVTZ AUX)
    Blend: AUG-CC-PVTZ-JKFIT
	 Reference Energy          =    -756.2465444602470370 [Eh]
	 Singles Energy            =      -0.0000000000000000 [Eh]
	 Same-Spin Energy          =      -0.7304948606887846 [Eh]
	 Opposite-Spin Energy      =      -2.1620078782816368 [Eh]
	 Correlation Energy        =      -2.8925027389704212 [Eh]
	 Total Energy              =    -759.1390471992174298 [Eh]

	 ================> DF-SCS-MP2 Energies <==================
	-----------------------------------------------------------
	 SCS Same-Spin Scale       =       0.3333333333333333 [-]
	 SCS Opposite-Spin Scale   =       1.2000000000000000 [-]
	 SCS Same-Spin Energy      =      -0.2434982868962615 [Eh]
	 SCS Opposite-Spin Energy  =      -2.5944094539379638 [Eh]
	 SCS Correlation Energy    =      -2.8379077408342255 [Eh]
	 SCS Total Energy          =    -759.0844522010812625 [Eh]
	-----------------------------------------------------------

  Dipole Moment: [D]
     X:    -0.1389      Y:     0.7321      Z:     1.8622     Total:     2.0057

*** Psi4 exiting successfully. Buy a developer a beer!
