                               Psi4 1.3.2 release

  ==> Input File <==

--------------------------------------------------------------------------
#psi4
#
memory 32 gb

molecule  {
0 1
  O       -0.2992330     0.0680890    -1.4276520
  O        1.1877390     1.7321380     1.3773370
  O        0.9070540     2.3739560    -0.7854760
  O        2.2997900    -2.4217320    -0.0198770
  O       -3.4576290     0.0760600    -0.5562400
  O        2.6367540    -0.2338110    -0.4932570
  O       -2.4353810    -1.6060190     0.5619510
  C       -0.1069590     0.3116290    -0.0442930
  C        0.5596730    -0.9208470     0.5522810
  C       -1.4701600     0.6204770     0.6141540
  C        0.7459700     1.5647750     0.1124900
  C        1.9236380    -1.1208730    -0.0515330
  C       -2.4761190    -0.4337210     0.2256320
  H       -0.0681530    -1.7945710     0.3697710
  H        0.6733550    -0.8157800     1.6370670
  H       -1.8203350     1.5970450     0.2687060
  H       -1.3720190     0.6392280     1.7041070
  H       -0.0402350     0.8946720    -1.8856460
  H        1.6977260     2.5694770     1.3788080
  H        3.2012140    -2.4469230    -0.4041650
  H       -4.0405490    -0.6812350    -0.7753220
units angstrom
no_reorient  #important for SAPT in psi4, default
symmetry c1  #important for SAPT in psi4, default
}

set PROPERTIES_ORIGIN ["COM"]
properties('MP2/aug-cc-pvtz', properties = ['dipole'])
--------------------------------------------------------------------------

    Molecular point group: c1
  Charge       = 0
  Multiplicity = 1
  Basis Set: AUG-CC-PVTZ
    Blend: AUG-CC-PVTZ
  Basis Set: (AUG-CC-PVTZ AUX)
    Blend: AUG-CC-PVTZ-JKFIT

    Orbital Energies [Eh]
    ---------------------

    Doubly Occupied:

       1A    -20.638219     2A    -20.626952     3A    -20.625050
       4A    -20.578340     5A    -20.571362     6A    -20.562702
       7A    -20.561054     8A    -11.411501     9A    -11.406371
      10A    -11.402426    11A    -11.340818    12A    -11.273408
      13A    -11.262126    14A     -1.485685    15A     -1.472493
      16A     -1.470227    17A     -1.399115    18A     -1.372349
      19A     -1.368794    20A     -1.366472    21A     -1.117101
      22A     -1.039065    23A     -0.952820    24A     -0.853340
      25A     -0.830374    26A     -0.795560    27A     -0.760080
      28A     -0.728074    29A     -0.718509    30A     -0.716193
      31A     -0.705131    32A     -0.691161    33A     -0.669281
      34A     -0.653812    35A     -0.644570    36A     -0.637970
      37A     -0.622781    38A     -0.604623    39A     -0.595355
      40A     -0.580475    41A     -0.562256    42A     -0.559388
      43A     -0.545966    44A     -0.505901    45A     -0.495159
      46A     -0.490562    47A     -0.485922    48A     -0.472060
      49A     -0.465582    50A     -0.452646

  @DF-RHF Final Energy:  -756.25808173391385

   => Energetics <=

    Nuclear Repulsion Energy =            874.6496671425919658
    One-Electron Energy =               -2777.5211304196045603
    Two-Electron Energy =                1146.6133815430987397
    Total Energy =                       -756.2580817339137411
  Basis Set: (AUG-CC-PVTZ AUX)
    Blend: AUG-CC-PVTZ-RI
    Molecular point group: c1

    Geometry (in Angstrom), charge = 0, multiplicity = 1:

       Center              X                  Y                   Z               Mass
    ------------   -----------------  -----------------  -----------------  -----------------
         O           -0.308351063676     0.067891899962    -1.415838297420    15.994914619570
         O            1.178620936324     1.731940899962     1.389150702580    15.994914619570
         O            0.897935936324     2.373758899962    -0.773662297420    15.994914619570
         O            2.290671936324    -2.421929100038    -0.008063297420    15.994914619570
         O           -3.466747063676     0.075862899962    -0.544426297420    15.994914619570
         O            2.627635936324    -0.234008100038    -0.481443297420    15.994914619570
         O           -2.444499063676    -1.606216100038     0.573764702580    15.994914619570
         C           -0.116077063676     0.311431899962    -0.032479297420    12.000000000000
         C            0.550554936324    -0.921044100038     0.564094702580    12.000000000000
         C           -1.479278063676     0.620279899962     0.625967702580    12.000000000000
         C            0.736851936324     1.564577899962     0.124303702580    12.000000000000
         C            1.914519936324    -1.121070100038    -0.039719297420    12.000000000000
         C           -2.485237063676    -0.433918100038     0.237445702580    12.000000000000
         H           -0.077271063676    -1.794768100038     0.381584702580     1.007825032230
         H            0.664236936324    -0.815977100038     1.648880702580     1.007825032230
         H           -1.829453063676     1.596847899962     0.280519702580     1.007825032230
         H           -1.381137063676     0.639030899962     1.715920702580     1.007825032230
         H           -0.049353063676     0.894474899962    -1.873832297420     1.007825032230
         H            1.688607936324     2.569279899962     1.390621702580     1.007825032230
         H            3.192095936324    -2.447120100038    -0.392351297420     1.007825032230
         H           -4.049667063676    -0.681432100038    -0.763508297420     1.007825032230

  Basis Set: AUG-CC-PVTZ
    Blend: AUG-CC-PVTZ
  Basis Set: (AUG-CC-PVTZ AUX)
    Blend: AUG-CC-PVTZ-JKFIT
	 Reference Energy          =    -756.2580817339138548 [Eh]
	 Singles Energy            =      -0.0000000000000000 [Eh]
	 Same-Spin Energy          =      -0.7305500844338495 [Eh]
	 Opposite-Spin Energy      =      -2.1616019289161224 [Eh]
	 Correlation Energy        =      -2.8921520133499721 [Eh]
	 Total Energy              =    -759.1502337472638828 [Eh]

	 ================> DF-SCS-MP2 Energies <==================
	-----------------------------------------------------------
	 SCS Same-Spin Scale       =       0.3333333333333333 [-]
	 SCS Opposite-Spin Scale   =       1.2000000000000000 [-]
	 SCS Same-Spin Energy      =      -0.2435166948112832 [Eh]
	 SCS Opposite-Spin Energy  =      -2.5939223146993466 [Eh]
	 SCS Correlation Energy    =      -2.8374390095106299 [Eh]
	 SCS Total Energy          =    -759.0955207434244585 [Eh]
	-----------------------------------------------------------

  Dipole Moment: [D]
     X:    -0.1681      Y:     0.7386      Z:     1.8608     Total:     2.0090

*** Psi4 exiting successfully. Buy a developer a beer!
