                               Psi4 1.3.2 release

  ==> Input File <==

--------------------------------------------------------------------------
#psi4
#
memory 32 gb

molecule  {
0 1
  O       -0.2992330     0.0680890    -1.4276520
  O        1.1877390     1.7321380     1.3773370
  O        0.9070540     2.3739560    -0.7854760
  O        2.2997900    -2.4217320    -0.0198770
  O       -3.4576290     0.0760600    -0.5562400
  O        2.6367540    -0.2338110    -0.4932570
  O       -2.4353810    -1.6060190     0.5619510
  C       -0.1069590     0.3116290    -0.0442930
  C        0.6417747    -0.8944491     0.7327317
  C       -1.4701600     0.6204770     0.6141540
  C        0.7459700     1.5647750     0.1124900
  C        1.9236380    -1.1208730    -0.0515330
  C       -2.4761190    -0.4337210     0.2256320
  H       -0.0681530    -1.7945710     0.3697710
  H        0.6733550    -0.8157800     1.6370670
  H       -1.8203350     1.5970450     0.2687060
  H       -1.3720190     0.6392280     1.7041070
  H       -0.0402350     0.8946720    -1.8856460
  H        1.6977260     2.5694770     1.3788080
  H        3.2012140    -2.4469230    -0.4041650
  H       -4.0405490    -0.6812350    -0.7753220
units angstrom
no_reorient  #important for SAPT in psi4, default
symmetry c1  #important for SAPT in psi4, default
}

set PROPERTIES_ORIGIN ["COM"]
properties('MP2/aug-cc-pvtz', properties = ['dipole'])
--------------------------------------------------------------------------

    Molecular point group: c1
  Charge       = 0
  Multiplicity = 1
  Basis Set: AUG-CC-PVTZ
    Blend: AUG-CC-PVTZ
  Basis Set: (AUG-CC-PVTZ AUX)
    Blend: AUG-CC-PVTZ-JKFIT

    Orbital Energies [Eh]
    ---------------------

    Doubly Occupied:

       1A    -20.637251     2A    -20.626445     3A    -20.625356
       4A    -20.583788     5A    -20.569103     6A    -20.562783
       7A    -20.561919     8A    -11.408303     9A    -11.405530
      10A    -11.405249    11A    -11.346218    12A    -11.272514
      13A    -11.262635    14A     -1.484474    15A     -1.471859
      16A     -1.470575    17A     -1.399226    18A     -1.371402
      19A     -1.368350    20A     -1.367036    21A     -1.111639
      22A     -1.038372    23A     -0.951844    24A     -0.848219
      25A     -0.832027    26A     -0.806762    27A     -0.759758
      28A     -0.726553    29A     -0.719617    30A     -0.717420
      31A     -0.714283    32A     -0.690734    33A     -0.668526
      34A     -0.655520    35A     -0.643841    36A     -0.635266
      37A     -0.618781    38A     -0.610869    39A     -0.597698
      40A     -0.586931    41A     -0.563914    42A     -0.558717
      43A     -0.533257    44A     -0.505343    45A     -0.494974
      46A     -0.490858    47A     -0.479885    48A     -0.471239
      49A     -0.459497    50A     -0.446312

  @DF-RHF Final Energy:  -756.20589999308595

   => Energetics <=

    Nuclear Repulsion Energy =            872.7197493277676585
    One-Electron Energy =               -2773.5739535589941624
    Two-Electron Energy =                1144.6483042381405539
    Total Energy =                       -756.2058999930859500
  Basis Set: (AUG-CC-PVTZ AUX)
    Blend: AUG-CC-PVTZ-RI
    Molecular point group: c1

    Geometry (in Angstrom), charge = 0, multiplicity = 1:

       Center              X                  Y                   Z               Mass
    ------------   -----------------  -----------------  -----------------  -----------------
         O           -0.313481698361     0.066242263215    -1.427114880248    15.994914619570
         O            1.173490301639     1.730291263215     1.377874119752    15.994914619570
         O            0.892805301639     2.372109263215    -0.784938880248    15.994914619570
         O            2.285541301639    -2.423578736785    -0.019339880248    15.994914619570
         O           -3.471877698361     0.074213263215    -0.555702880248    15.994914619570
         O            2.622505301639    -0.235657736785    -0.492719880248    15.994914619570
         O           -2.449629698361    -1.607865736785     0.562488119752    15.994914619570
         C           -0.121207698361     0.309782263215    -0.043755880248    12.000000000000
         C            0.627526001639    -0.896295836785     0.733268819752    12.000000000000
         C           -1.484408698361     0.618630263215     0.614691119752    12.000000000000
         C            0.731721301639     1.562928263215     0.113027119752    12.000000000000
         C            1.909389301639    -1.122719736785    -0.050995880248    12.000000000000
         C           -2.490367698361    -0.435567736785     0.226169119752    12.000000000000
         H           -0.082401698361    -1.796417736785     0.370308119752     1.007825032230
         H            0.659106301639    -0.817626736785     1.637604119752     1.007825032230
         H           -1.834583698361     1.595198263215     0.269243119752     1.007825032230
         H           -1.386267698361     0.637381263215     1.704644119752     1.007825032230
         H           -0.054483698361     0.892825263215    -1.885108880248     1.007825032230
         H            1.683477301639     2.567630263215     1.379345119752     1.007825032230
         H            3.186965301639    -2.448769736785    -0.403627880248     1.007825032230
         H           -4.054797698361    -0.683081736785    -0.774784880248     1.007825032230

  Basis Set: AUG-CC-PVTZ
    Blend: AUG-CC-PVTZ
  Basis Set: (AUG-CC-PVTZ AUX)
    Blend: AUG-CC-PVTZ-JKFIT
	 Reference Energy          =    -756.2058999930859500 [Eh]
	 Singles Energy            =      -0.0000000000000000 [Eh]
	 Same-Spin Energy          =      -0.7309244907964706 [Eh]
	 Opposite-Spin Energy      =      -2.1637545811933823 [Eh]
	 Correlation Energy        =      -2.8946790719898527 [Eh]
	 Total Energy              =    -759.1005790650757490 [Eh]

	 ================> DF-SCS-MP2 Energies <==================
	-----------------------------------------------------------
	 SCS Same-Spin Scale       =       0.3333333333333333 [-]
	 SCS Opposite-Spin Scale   =       1.2000000000000000 [-]
	 SCS Same-Spin Energy      =      -0.2436414969321569 [Eh]
	 SCS Opposite-Spin Energy  =      -2.5965054974320587 [Eh]
	 SCS Correlation Energy    =      -2.8401469943642157 [Eh]
	 SCS Total Energy          =    -759.0460469874501541 [Eh]
	-----------------------------------------------------------

  Dipole Moment: [D]
     X:    -0.1076      Y:     0.7403      Z:     1.8355     Total:     1.9821

*** Psi4 exiting successfully. Buy a developer a beer!
