                               Psi4 1.3.2 release

  ==> Input File <==

--------------------------------------------------------------------------
#psi4
#
memory 32 gb

molecule  {
0 1
  O       -0.2992330     0.0680890    -1.4276520
  O        1.1877390     1.7321380     1.3773370
  O        0.9070540     2.3739560    -0.7854760
  O        2.2997900    -2.4217320    -0.0198770
  O       -3.4576290     0.0760600    -0.5562400
  O        2.6367540    -0.2338110    -0.4932570
  O       -2.4353810    -1.6060190     0.5619510
  C       -0.1069590     0.3116290    -0.0442930
  C        0.5596730    -0.9208470     0.5522810
  C       -1.5778753     0.6633522     0.7771237
  C        0.7459700     1.5647750     0.1124900
  C        1.9236380    -1.1208730    -0.0515330
  C       -2.4761190    -0.4337210     0.2256320
  H       -0.0681530    -1.7945710     0.3697710
  H        0.6733550    -0.8157800     1.6370670
  H       -1.8203350     1.5970450     0.2687060
  H       -1.3720190     0.6392280     1.7041070
  H       -0.0402350     0.8946720    -1.8856460
  H        1.6977260     2.5694770     1.3788080
  H        3.2012140    -2.4469230    -0.4041650
  H       -4.0405490    -0.6812350    -0.7753220
units angstrom
no_reorient  #important for SAPT in psi4, default
symmetry c1  #important for SAPT in psi4, default
}

set PROPERTIES_ORIGIN ["COM"]
properties('MP2/aug-cc-pvtz', properties = ['dipole'])
--------------------------------------------------------------------------

    Molecular point group: c1
  Charge       = 0
  Multiplicity = 1
  Basis Set: AUG-CC-PVTZ
    Blend: AUG-CC-PVTZ
  Basis Set: (AUG-CC-PVTZ AUX)
    Blend: AUG-CC-PVTZ-JKFIT

    Orbital Energies [Eh]
    ---------------------

    Doubly Occupied:

       1A    -20.637474     2A    -20.626535     3A    -20.624946
       4A    -20.583934     5A    -20.570362     6A    -20.561728
       7A    -20.560869     8A    -11.410754     9A    -11.407843
      10A    -11.402199    11A    -11.349068    12A    -11.272145
      13A    -11.262262    14A     -1.484719    15A     -1.471782
      16A     -1.470074    17A     -1.399173    18A     -1.371855
      19A     -1.368240    20A     -1.366358    21A     -1.105470
      22A     -1.038706    23A     -0.950586    24A     -0.849707
      25A     -0.837080    26A     -0.797346    27A     -0.757753
      28A     -0.726692    29A     -0.720607    30A     -0.715308
      31A     -0.702578    32A     -0.692828    33A     -0.676126
      34A     -0.653739    35A     -0.642732    36A     -0.636613
      37A     -0.632424    38A     -0.602858    39A     -0.592861
      40A     -0.588389    41A     -0.575816    42A     -0.552692
      43A     -0.546766    44A     -0.505406    45A     -0.495036
      46A     -0.489753    47A     -0.482663    48A     -0.467147
      49A     -0.462636    50A     -0.437834

  @DF-RHF Final Energy:  -756.22256606230519

   => Energetics <=

    Nuclear Repulsion Energy =            871.0666573457679078
    One-Electron Energy =               -2770.3014996509150478
    Two-Electron Energy =                1143.0122762428420629
    Total Energy =                       -756.2225660623050771
  Basis Set: (AUG-CC-PVTZ AUX)
    Blend: AUG-CC-PVTZ-RI
    Molecular point group: c1

    Geometry (in Angstrom), charge = 0, multiplicity = 1:

       Center              X                  Y                   Z               Mass
    ------------   -----------------  -----------------  -----------------  -----------------
         O           -0.301619804100     0.065212576779    -1.426022471383    15.994914619570
         O            1.185352195900     1.729261576779     1.378966528617    15.994914619570
         O            0.904667195900     2.371079576779    -0.783846471383    15.994914619570
         O            2.297403195900    -2.424608423221    -0.018247471383    15.994914619570
         O           -3.460015804100     0.073183576779    -0.554610471383    15.994914619570
         O            2.634367195900    -0.236687423221    -0.491627471383    15.994914619570
         O           -2.437767804100    -1.608895423221     0.563580528617    15.994914619570
         C           -0.109345804100     0.308752576779    -0.042663471383    12.000000000000
         C            0.557286195900    -0.923723423221     0.553910528617    12.000000000000
         C           -1.580262104100     0.660475776779     0.778753228617    12.000000000000
         C            0.743583195900     1.561898576779     0.114119528617    12.000000000000
         C            1.921251195900    -1.123749423221    -0.049903471383    12.000000000000
         C           -2.478505804100    -0.436597423221     0.227261528617    12.000000000000
         H           -0.070539804100    -1.797447423221     0.371400528617     1.007825032230
         H            0.670968195900    -0.818656423221     1.638696528617     1.007825032230
         H           -1.822721804100     1.594168576779     0.270335528617     1.007825032230
         H           -1.374405804100     0.636351576779     1.705736528617     1.007825032230
         H           -0.042621804100     0.891795576779    -1.884016471383     1.007825032230
         H            1.695339195900     2.566600576779     1.380437528617     1.007825032230
         H            3.198827195900    -2.449799423221    -0.402535471383     1.007825032230
         H           -4.042935804100    -0.684111423221    -0.773692471383     1.007825032230

  Basis Set: AUG-CC-PVTZ
    Blend: AUG-CC-PVTZ
  Basis Set: (AUG-CC-PVTZ AUX)
    Blend: AUG-CC-PVTZ-JKFIT
	 Reference Energy          =    -756.2225660623051908 [Eh]
	 Singles Energy            =      -0.0000000000000000 [Eh]
	 Same-Spin Energy          =      -0.7310154993914544 [Eh]
	 Opposite-Spin Energy      =      -2.1634457910321396 [Eh]
	 Correlation Energy        =      -2.8944612904235942 [Eh]
	 Total Energy              =    -759.1170273527287691 [Eh]

	 ================> DF-SCS-MP2 Energies <==================
	-----------------------------------------------------------
	 SCS Same-Spin Scale       =       0.3333333333333333 [-]
	 SCS Opposite-Spin Scale   =       1.2000000000000000 [-]
	 SCS Same-Spin Energy      =      -0.2436718331304848 [Eh]
	 SCS Opposite-Spin Energy  =      -2.5961349492385675 [Eh]
	 SCS Correlation Energy    =      -2.8398067823690525 [Eh]
	 SCS Total Energy          =    -759.0623728446742007 [Eh]
	-----------------------------------------------------------

  Dipole Moment: [D]
     X:    -0.1024      Y:     0.6941      Z:     1.8019     Total:     1.9337

*** Psi4 exiting successfully. Buy a developer a beer!
