                               Psi4 1.3.2 release

  ==> Input File <==

--------------------------------------------------------------------------
#psi4
#
memory 32 gb

molecule  {
0 1
  O       -0.2992330     0.0680890    -1.4276520
  O        1.1877390     1.7321380     1.3773370
  O        0.9070540     2.3739560    -0.7854760
  O        2.2997900    -2.4217320    -0.0198770
  O       -3.4576290     0.0760600    -0.5562400
  O        2.6367540    -0.2338110    -0.4932570
  O       -2.4353810    -1.6060190     0.5619510
  C       -0.1069590     0.3116290    -0.0442930
  C        0.5596730    -0.9208470     0.5522810
  C       -1.4970888     0.6311958     0.6548964
  C        0.7459700     1.5647750     0.1124900
  C        1.9236380    -1.1208730    -0.0515330
  C       -2.4761190    -0.4337210     0.2256320
  H       -0.0681530    -1.7945710     0.3697710
  H        0.6733550    -0.8157800     1.6370670
  H       -1.8203350     1.5970450     0.2687060
  H       -1.3720190     0.6392280     1.7041070
  H       -0.0402350     0.8946720    -1.8856460
  H        1.6977260     2.5694770     1.3788080
  H        3.2012140    -2.4469230    -0.4041650
  H       -4.0405490    -0.6812350    -0.7753220
units angstrom
no_reorient  #important for SAPT in psi4, default
symmetry c1  #important for SAPT in psi4, default
}

set PROPERTIES_ORIGIN ["COM"]
properties('MP2/aug-cc-pvtz', properties = ['dipole'])
--------------------------------------------------------------------------

    Molecular point group: c1
  Charge       = 0
  Multiplicity = 1
  Basis Set: AUG-CC-PVTZ
    Blend: AUG-CC-PVTZ
  Basis Set: (AUG-CC-PVTZ AUX)
    Blend: AUG-CC-PVTZ-JKFIT

    Orbital Energies [Eh]
    ---------------------

    Doubly Occupied:

       1A    -20.638045     2A    -20.626777     3A    -20.624986
       4A    -20.579639     5A    -20.571066     6A    -20.562481
       7A    -20.560968     8A    -11.411214     9A    -11.406331
      10A    -11.402323    11A    -11.343101    12A    -11.272309
      13A    -11.262069    14A     -1.485416    15A     -1.472292
      16A     -1.470152    17A     -1.398900    18A     -1.372125
      19A     -1.368641    20A     -1.366379    21A     -1.113613
      22A     -1.038932    23A     -0.952198    24A     -0.852074
      25A     -0.830934    26A     -0.796250    27A     -0.759293
      28A     -0.727662    29A     -0.718872    30A     -0.715889
      31A     -0.704284    32A     -0.691475    33A     -0.670428
      34A     -0.653748    35A     -0.643774    36A     -0.637638
      37A     -0.624373    38A     -0.603978    39A     -0.594388
      40A     -0.580864    41A     -0.568451    42A     -0.558948
      43A     -0.546863    44A     -0.505759    45A     -0.495088
      46A     -0.490255    47A     -0.485091    48A     -0.470030
      49A     -0.465424    50A     -0.451000

  @DF-RHF Final Energy:  -756.25614879729631

   => Energetics <=

    Nuclear Repulsion Energy =            873.7568364191909041
    One-Electron Energy =               -2775.7403928306812304
    Two-Electron Energy =                1145.7274076141941350
    Total Energy =                       -756.2561487972961913
  Basis Set: (AUG-CC-PVTZ AUX)
    Blend: AUG-CC-PVTZ-RI
    Molecular point group: c1

    Geometry (in Angstrom), charge = 0, multiplicity = 1:

       Center              X                  Y                   Z               Mass
    ------------   -----------------  -----------------  -----------------  -----------------
         O           -0.306668250344     0.067222069166    -1.418384339349    15.994914619570
         O            1.180303749656     1.731271069166     1.386604660651    15.994914619570
         O            0.899618749656     2.373089069166    -0.776208339349    15.994914619570
         O            2.292354749656    -2.422598930834    -0.010609339349    15.994914619570
         O           -3.465064250344     0.075193069166    -0.546972339349    15.994914619570
         O            2.629318749656    -0.234677930834    -0.483989339349    15.994914619570
         O           -2.442816250344    -1.606885930834     0.571218660651    15.994914619570
         C           -0.114394250344     0.310762069166    -0.035025339349    12.000000000000
         C            0.552237749656    -0.921713930834     0.561548660651    12.000000000000
         C           -1.504524050344     0.630328869166     0.664164060651    12.000000000000
         C            0.738534749656     1.563908069166     0.121757660651    12.000000000000
         C            1.916202749656    -1.121739930834    -0.042265339349    12.000000000000
         C           -2.483554250344    -0.434587930834     0.234899660651    12.000000000000
         H           -0.075588250344    -1.795437930834     0.379038660651     1.007825032230
         H            0.665919749656    -0.816646930834     1.646334660651     1.007825032230
         H           -1.827770250344     1.596178069166     0.277973660651     1.007825032230
         H           -1.379454250344     0.638361069166     1.713374660651     1.007825032230
         H           -0.047670250344     0.893805069166    -1.876378339349     1.007825032230
         H            1.690290749656     2.568610069166     1.388075660651     1.007825032230
         H            3.193778749656    -2.447789930834    -0.394897339349     1.007825032230
         H           -4.047984250344    -0.682101930834    -0.766054339349     1.007825032230

  Basis Set: AUG-CC-PVTZ
    Blend: AUG-CC-PVTZ
  Basis Set: (AUG-CC-PVTZ AUX)
    Blend: AUG-CC-PVTZ-JKFIT
	 Reference Energy          =    -756.2561487972963050 [Eh]
	 Singles Energy            =      -0.0000000000000000 [Eh]
	 Same-Spin Energy          =      -0.7304253935600276 [Eh]
	 Opposite-Spin Energy      =      -2.1615538140071653 [Eh]
	 Correlation Energy        =      -2.8919792075671928 [Eh]
	 Total Energy              =    -759.1481280048634517 [Eh]

	 ================> DF-SCS-MP2 Energies <==================
	-----------------------------------------------------------
	 SCS Same-Spin Scale       =       0.3333333333333333 [-]
	 SCS Opposite-Spin Scale   =       1.2000000000000000 [-]
	 SCS Same-Spin Energy      =      -0.2434751311866759 [Eh]
	 SCS Opposite-Spin Energy  =      -2.5938645768085982 [Eh]
	 SCS Correlation Energy    =      -2.8373397079952740 [Eh]
	 SCS Total Energy          =    -759.0934885052915888 [Eh]
	-----------------------------------------------------------

  Dipole Moment: [D]
     X:    -0.1590      Y:     0.7314      Z:     1.8556     Total:     2.0009

*** Psi4 exiting successfully. Buy a developer a beer!
