                               Psi4 1.3.2 release

  ==> Input File <==

--------------------------------------------------------------------------
#psi4
#
memory 32 gb

molecule  {
0 1
  O       -0.2992330     0.0680890    -1.4276520
  O        1.1877390     1.7321380     1.3773370
  O        0.9070540     2.3739560    -0.7854760
  O        2.2997900    -2.4217320    -0.0198770
  O       -3.4576290     0.0760600    -0.5562400
  O        2.6367540    -0.2338110    -0.4932570
  O       -2.4353810    -1.6060190     0.5619510
  C       -0.1069590     0.3116290    -0.0442930
  C        0.6828255    -0.8812502     0.8229571
  C       -1.4701600     0.6204770     0.6141540
  C        0.7459700     1.5647750     0.1124900
  C        1.9236380    -1.1208730    -0.0515330
  C       -2.4761190    -0.4337210     0.2256320
  H       -0.0681530    -1.7945710     0.3697710
  H        0.6733550    -0.8157800     1.6370670
  H       -1.8203350     1.5970450     0.2687060
  H       -1.3720190     0.6392280     1.7041070
  H       -0.0402350     0.8946720    -1.8856460
  H        1.6977260     2.5694770     1.3788080
  H        3.2012140    -2.4469230    -0.4041650
  H       -4.0405490    -0.6812350    -0.7753220
units angstrom
no_reorient  #important for SAPT in psi4, default
symmetry c1  #important for SAPT in psi4, default
}

set PROPERTIES_ORIGIN ["COM"]
properties('MP2/aug-cc-pvtz', properties = ['dipole'])
--------------------------------------------------------------------------

    Molecular point group: c1
  Charge       = 0
  Multiplicity = 1
  Basis Set: AUG-CC-PVTZ
    Blend: AUG-CC-PVTZ
  Basis Set: (AUG-CC-PVTZ AUX)
    Blend: AUG-CC-PVTZ-JKFIT

    Orbital Energies [Eh]
    ---------------------

    Doubly Occupied:

       1A    -20.636815     2A    -20.626231     3A    -20.625770
       4A    -20.586840     5A    -20.568372     6A    -20.564203
       7A    -20.561550     8A    -11.409114     9A    -11.407271
      10A    -11.405135    11A    -11.349715    12A    -11.272214
      13A    -11.266421    14A     -1.484052    15A     -1.471580
      16A     -1.471013    17A     -1.400017    18A     -1.371396
      19A     -1.368616    20A     -1.367257    21A     -1.109475
      22A     -1.039733    23A     -0.952330    24A     -0.851989
      25A     -0.838241    26A     -0.810198    27A     -0.759670
      28A     -0.729740    29A     -0.725451    30A     -0.717153
      31A     -0.714825    32A     -0.690685    33A     -0.667013
      34A     -0.656723    35A     -0.643001    36A     -0.634704
      37A     -0.621362    38A     -0.613230    39A     -0.597298
      40A     -0.589302    41A     -0.559725    42A     -0.553873
      43A     -0.527442    44A     -0.505051    45A     -0.494772
      46A     -0.490973    47A     -0.478044    48A     -0.470022
      49A     -0.454441    50A     -0.439217

  @DF-RHF Final Energy:  -756.12555634931630

   => Energetics <=

    Nuclear Repulsion Energy =            871.6765353953118165
    One-Electron Energy =               -2771.3056466571692908
    Two-Electron Energy =                1143.5035549125411762
    Total Energy =                       -756.1255563493161844
  Basis Set: (AUG-CC-PVTZ AUX)
    Blend: AUG-CC-PVTZ-RI
    Molecular point group: c1

    Geometry (in Angstrom), charge = 0, multiplicity = 1:

       Center              X                  Y                   Z               Mass
    ------------   -----------------  -----------------  -----------------  -----------------
         O           -0.316047012579     0.065417447966    -1.432753174787    15.994914619570
         O            1.170924987421     1.729466447966     1.372235825213    15.994914619570
         O            0.890239987421     2.371284447966    -0.790577174787    15.994914619570
         O            2.282975987421    -2.424403552034    -0.024978174787    15.994914619570
         O           -3.474443012579     0.073388447966    -0.561341174787    15.994914619570
         O            2.619939987421    -0.236482552034    -0.498358174787    15.994914619570
         O           -2.452195012579    -1.608690552034     0.556849825213    15.994914619570
         C           -0.123773012579     0.308957447966    -0.049394174787    12.000000000000
         C            0.666011487421    -0.883921752034     0.817855925213    12.000000000000
         C           -1.486974012579     0.617805447966     0.609052825213    12.000000000000
         C            0.729155987421     1.562103447966     0.107388825213    12.000000000000
         C            1.906823987421    -1.123544552034    -0.056634174787    12.000000000000
         C           -2.492933012579    -0.436392552034     0.220530825213    12.000000000000
         H           -0.084967012579    -1.797242552034     0.364669825213     1.007825032230
         H            0.656540987421    -0.818451552034     1.631965825213     1.007825032230
         H           -1.837149012579     1.594373447966     0.263604825213     1.007825032230
         H           -1.388833012579     0.636556447966     1.699005825213     1.007825032230
         H           -0.057049012579     0.892000447966    -1.890747174787     1.007825032230
         H            1.680911987421     2.566805447966     1.373706825213     1.007825032230
         H            3.184399987421    -2.449594552034    -0.409266174787     1.007825032230
         H           -4.057363012579    -0.683906552034    -0.780423174787     1.007825032230

  Basis Set: AUG-CC-PVTZ
    Blend: AUG-CC-PVTZ
  Basis Set: (AUG-CC-PVTZ AUX)
    Blend: AUG-CC-PVTZ-JKFIT
	 Reference Energy          =    -756.1255563493162981 [Eh]
	 Singles Energy            =      -0.0000000000000000 [Eh]
	 Same-Spin Energy          =      -0.7318708995284948 [Eh]
	 Opposite-Spin Energy      =      -2.1669551594247771 [Eh]
	 Correlation Energy        =      -2.8988260589532722 [Eh]
	 Total Energy              =    -759.0243824082696165 [Eh]

	 ================> DF-SCS-MP2 Energies <==================
	-----------------------------------------------------------
	 SCS Same-Spin Scale       =       0.3333333333333333 [-]
	 SCS Opposite-Spin Scale   =       1.2000000000000000 [-]
	 SCS Same-Spin Energy      =      -0.2439569665094983 [Eh]
	 SCS Opposite-Spin Energy  =      -2.6003461913097325 [Eh]
	 SCS Correlation Energy    =      -2.8443031578192306 [Eh]
	 SCS Total Energy          =    -758.9698595071355385 [Eh]
	-----------------------------------------------------------

  Dipole Moment: [D]
     X:    -0.0686      Y:     0.7607      Z:     1.7813     Total:     1.9381

*** Psi4 exiting successfully. Buy a developer a beer!
