                               Psi4 1.3.2 release

  ==> Input File <==

--------------------------------------------------------------------------
#psi4
#
memory 32 gb

molecule  {
0 1
  O       -0.2992330     0.0680890    -1.4276520
  O        1.1877390     1.7321380     1.3773370
  O        0.9070540     2.3739560    -0.7854760
  O        2.2997900    -2.4217320    -0.0198770
  O       -3.4576290     0.0760600    -0.5562400
  O        2.6367540    -0.2338110    -0.4932570
  O       -2.4353810    -1.6060190     0.5619510
  C       -0.1069590     0.3116290    -0.0442930
  C        0.5596730    -0.9208470     0.5522810
  C       -1.5509465     0.6526334     0.7363813
  C        0.7459700     1.5647750     0.1124900
  C        1.9236380    -1.1208730    -0.0515330
  C       -2.4761190    -0.4337210     0.2256320
  H       -0.0681530    -1.7945710     0.3697710
  H        0.6733550    -0.8157800     1.6370670
  H       -1.8203350     1.5970450     0.2687060
  H       -1.3720190     0.6392280     1.7041070
  H       -0.0402350     0.8946720    -1.8856460
  H        1.6977260     2.5694770     1.3788080
  H        3.2012140    -2.4469230    -0.4041650
  H       -4.0405490    -0.6812350    -0.7753220
units angstrom
no_reorient  #important for SAPT in psi4, default
symmetry c1  #important for SAPT in psi4, default
}

set PROPERTIES_ORIGIN ["COM"]
properties('MP2/aug-cc-pvtz', properties = ['dipole'])
--------------------------------------------------------------------------

    Molecular point group: c1
  Charge       = 0
  Multiplicity = 1
  Basis Set: AUG-CC-PVTZ
    Blend: AUG-CC-PVTZ
  Basis Set: (AUG-CC-PVTZ AUX)
    Blend: AUG-CC-PVTZ-JKFIT

    Orbital Energies [Eh]
    ---------------------

    Doubly Occupied:

       1A    -20.637669     2A    -20.626569     3A    -20.624931
       4A    -20.582458     5A    -20.570563     6A    -20.561994
       7A    -20.560872     8A    -11.410842     9A    -11.407075
      10A    -11.402203    11A    -11.347212    12A    -11.271657
      13A    -11.262135    14A     -1.484931    15A     -1.471937
      16A     -1.470073    17A     -1.398954    18A     -1.371887
      19A     -1.368365    20A     -1.366325    21A     -1.107829
      22A     -1.038741    23A     -0.951054    24A     -0.850285
      25A     -0.834278    26A     -0.797133    27A     -0.758137
      28A     -0.726958    29A     -0.719884    30A     -0.715458
      31A     -0.702984    32A     -0.692171    33A     -0.674075
      34A     -0.653710    35A     -0.642834    36A     -0.636950
      37A     -0.629547    38A     -0.603272    39A     -0.592645
      40A     -0.586206    41A     -0.575424    42A     -0.554267
      43A     -0.547208    44A     -0.505503    45A     -0.495031
      46A     -0.489862    47A     -0.483427    48A     -0.467473
      49A     -0.463854    50A     -0.443685

  @DF-RHF Final Energy:  -756.23836861879784

   => Energetics <=

    Nuclear Repulsion Energy =            871.9661912342322694
    One-Electron Energy =               -2772.1320476162859450
    Two-Electron Energy =                1143.9274877632558400
    Total Energy =                       -756.2383686187979492
  Basis Set: (AUG-CC-PVTZ AUX)
    Blend: AUG-CC-PVTZ-RI
    Molecular point group: c1

    Geometry (in Angstrom), charge = 0, multiplicity = 1:

       Center              X                  Y                   Z               Mass
    ------------   -----------------  -----------------  -----------------  -----------------
         O           -0.303302617432     0.065882407574    -1.423476429455    15.994914619570
         O            1.183669382568     1.729931407574     1.381512570545    15.994914619570
         O            0.902984382568     2.371749407574    -0.781300429455    15.994914619570
         O            2.295720382568    -2.423938592426    -0.015701429455    15.994914619570
         O           -3.461698617432     0.073853407574    -0.552064429455    15.994914619570
         O            2.632684382568    -0.236017592426    -0.489081429455    15.994914619570
         O           -2.439450617432    -1.608225592426     0.566126570545    15.994914619570
         C           -0.111028617432     0.309422407574    -0.040117429455    12.000000000000
         C            0.555603382568    -0.923053592426     0.556456570545    12.000000000000
         C           -1.555016117432     0.650426807574     0.740556870545    12.000000000000
         C            0.741900382568     1.562568407574     0.116665570545    12.000000000000
         C            1.919568382568    -1.123079592426    -0.047357429455    12.000000000000
         C           -2.480188617432    -0.435927592426     0.229807570545    12.000000000000
         H           -0.072222617432    -1.796777592426     0.373946570545     1.007825032230
         H            0.669285382568    -0.817986592426     1.641242570545     1.007825032230
         H           -1.824404617432     1.594838407574     0.272881570545     1.007825032230
         H           -1.376088617432     0.637021407574     1.708282570545     1.007825032230
         H           -0.044304617432     0.892465407574    -1.881470429455     1.007825032230
         H            1.693656382568     2.567270407574     1.382983570545     1.007825032230
         H            3.197144382568    -2.449129592426    -0.399989429455     1.007825032230
         H           -4.044618617432    -0.683441592426    -0.771146429455     1.007825032230

  Basis Set: AUG-CC-PVTZ
    Blend: AUG-CC-PVTZ
  Basis Set: (AUG-CC-PVTZ AUX)
    Blend: AUG-CC-PVTZ-JKFIT
	 Reference Energy          =    -756.2383686187978356 [Eh]
	 Singles Energy            =      -0.0000000000000000 [Eh]
	 Same-Spin Energy          =      -0.7306652142442565 [Eh]
	 Opposite-Spin Energy      =      -2.1624819269873354 [Eh]
	 Correlation Energy        =      -2.8931471412315917 [Eh]
	 Total Energy              =    -759.1315157600294015 [Eh]

	 ================> DF-SCS-MP2 Energies <==================
	-----------------------------------------------------------
	 SCS Same-Spin Scale       =       0.3333333333333333 [-]
	 SCS Opposite-Spin Scale   =       1.2000000000000000 [-]
	 SCS Same-Spin Energy      =      -0.2435550714147521 [Eh]
	 SCS Opposite-Spin Energy  =      -2.5949783123848023 [Eh]
	 SCS Correlation Energy    =      -2.8385333837995543 [Eh]
	 SCS Total Energy          =    -759.0769020025974214 [Eh]
	-----------------------------------------------------------

  Dipole Moment: [D]
     X:    -0.1268      Y:     0.7093      Z:     1.8261     Total:     1.9631

*** Psi4 exiting successfully. Buy a developer a beer!
