                               Psi4 1.4a3.dev225

  ==> Input File <==

--------------------------------------------------------------------------
#psi4
#
memory 32 gb

molecule  {
0 1
  O        0.3130990     2.3704440    -1.0483590
  N        1.7883250     1.2487180     0.2800910
  C        1.5287440    -1.3320340    -0.8115580
  C        2.5082430    -1.1273300     0.3546920
  C        0.0936770    -1.0844130    -0.4156830
  C       -0.3593510     0.2288580    -0.1728470
  C        2.1500350     0.1348000     1.1432270
  C       -1.6973100     0.4876920     0.1815770
  C        0.5874820     1.3794060    -0.3635620
  C       -0.8057180    -2.1460500    -0.2745700
  C       -2.5635920    -0.6025190     0.3218070
  C       -2.1916620    -1.7212080     0.1245679
  C       -2.2005820     1.8899870     0.4130340
  H        1.6305660    -2.3487650    -1.2074160
  H        1.8022820    -0.6509930    -1.6251500
  H        2.4785080    -1.9866810     1.0363320
  H        3.5296620    -1.0584230    -0.0385230
  H        1.3070990    -0.0748920     1.8087120
  H        2.9845300     0.4555350     1.7739000
  H        2.4430930     2.0063180     0.1171350
  H       -0.4670580    -3.1628320    -0.4675050
  H       -3.5988730    -0.4222000     0.6058720
  H       -2.8229980    -2.7393000     0.2003190
  H       -1.5534710     2.4410460     1.1016880
  H       -2.2209110     2.4548110    -0.5213210
  H       -3.2087000     1.8617690     0.8360960
units angstrom
no_reorient  #important for SAPT in psi4, default
symmetry c1  #important for SAPT in psi4, default
}

set PROPERTIES_ORIGIN ["COM"]
properties('MP2/aug-cc-pvtz', properties = ['dipole'])
--------------------------------------------------------------------------

    Molecular point group: c1
  Charge       = 0
  Multiplicity = 1
  Basis Set: AUG-CC-PVTZ
    Blend: AUG-CC-PVTZ
  Basis Set: (AUG-CC-PVTZ AUX)
    Blend: AUG-CC-PVTZ-JKFIT

    Orbital Energies [Eh]
    ---------------------

    Doubly Occupied:

       1A    -20.512127     2A    -15.582368     3A    -11.349783
       4A    -11.274634     5A    -11.258542     6A    -11.251435
       7A    -11.241047     8A    -11.239451     9A    -11.237414
      10A    -11.236762    11A    -11.236128    12A    -11.218072
      13A    -11.208918    14A     -1.367033    15A     -1.234960
      16A     -1.177635    17A     -1.093245    18A     -1.049809
      19A     -1.031485    20A     -0.944073    21A     -0.940119
      22A     -0.860418    23A     -0.836842    24A     -0.776501
      25A     -0.771331    26A     -0.697139    27A     -0.685543
      28A     -0.661766    29A     -0.653254    30A     -0.621018
      31A     -0.612181    32A     -0.595320    33A     -0.585692
      34A     -0.572920    35A     -0.558587    36A     -0.552977
      37A     -0.534385    38A     -0.531603    39A     -0.517018
      40A     -0.496054    41A     -0.491399    42A     -0.488818
      43A     -0.450204    44A     -0.415404    45A     -0.386368
      46A     -0.362207    47A     -0.315346

  @DF-RHF Final Energy:  -553.58124749925071

   => Energetics <=

    Nuclear Repulsion Energy =            798.3892483535149722
    One-Electron Energy =               -2336.5103213840729950
    Two-Electron Energy =                 984.5398255313072013
    Total Energy =                       -553.5812474992507077
  Basis Set: (AUG-CC-PVTZ AUX)
    Blend: AUG-CC-PVTZ-RI
    Molecular point group: c1

    Geometry (in Angstrom), charge = 0, multiplicity = 1:

       Center              X                  Y                   Z               Mass
    ------------   -----------------  -----------------  -----------------  -----------------
         O            0.330395505431     2.339391017811    -1.030143138211    15.994914619570
         N            1.805621505431     1.217665017811     0.298306861789    14.003074004430
         C            1.546040505431    -1.363086982189    -0.793342138211    12.000000000000
         C            2.525539505431    -1.158382982189     0.372907861789    12.000000000000
         C            0.110973505431    -1.115465982189    -0.397467138211    12.000000000000
         C           -0.342054494569     0.197805017811    -0.154631138211    12.000000000000
         C            2.167331505431     0.103747017811     1.161442861789    12.000000000000
         C           -1.680013494569     0.456639017811     0.199792861789    12.000000000000
         C            0.604778505431     1.348353017811    -0.345346138211    12.000000000000
         C           -0.788421494569    -2.177102982189    -0.256354138211    12.000000000000
         C           -2.546295494569    -0.633571982189     0.340022861789    12.000000000000
         C           -2.174365494569    -1.752260982189     0.142783761789    12.000000000000
         C           -2.183285494569     1.858934017811     0.431249861789    12.000000000000
         H            1.647862505431    -2.379817982189    -1.189200138211     1.007825032230
         H            1.819578505431    -0.682045982189    -1.606934138211     1.007825032230
         H            2.495804505431    -2.017733982189     1.054547861789     1.007825032230
         H            3.546958505431    -1.089475982189    -0.020307138211     1.007825032230
         H            1.324395505431    -0.105944982189     1.826927861789     1.007825032230
         H            3.001826505431     0.424482017811     1.792115861789     1.007825032230
         H            2.460389505431     1.975265017811     0.135350861789     1.007825032230
         H           -0.449761494569    -3.193884982189    -0.449289138211     1.007825032230
         H           -3.581576494569    -0.453252982189     0.624087861789     1.007825032230
         H           -2.805701494569    -2.770352982189     0.218534861789     1.007825032230
         H           -1.536174494569     2.409993017811     1.119903861789     1.007825032230
         H           -2.203614494569     2.423758017811    -0.503105138211     1.007825032230
         H           -3.191403494569     1.830716017811     0.854311861789     1.007825032230

  Basis Set: AUG-CC-PVTZ
    Blend: AUG-CC-PVTZ
  Basis Set: (AUG-CC-PVTZ AUX)
    Blend: AUG-CC-PVTZ-JKFIT
	 Reference Energy          =    -553.5812474992507077 [Eh]
	 Singles Energy            =      -0.0000000000000000 [Eh]
	 Same-Spin Energy          =      -0.6034508258431399 [Eh]
	 Opposite-Spin Energy      =      -1.9041366111124836 [Eh]
	 Correlation Energy        =      -2.5075874369556237 [Eh]
	 Total Energy              =    -556.0888349362063536 [Eh]

	 ================> DF-SCS-MP2 Energies <==================
	-----------------------------------------------------------
	 SCS Same-Spin Scale       =       0.3333333333333333 [-]
	 SCS Opposite-Spin Scale   =       1.2000000000000000 [-]
	 SCS Same-Spin Energy      =      -0.2011502752810466 [Eh]
	 SCS Opposite-Spin Energy  =      -2.2849639333349803 [Eh]
	 SCS Correlation Energy    =      -2.4861142086160268 [Eh]
	 SCS Total Energy          =    -556.0673617078667803 [Eh]
	-----------------------------------------------------------

  Dipole Moment: [D]
     X:     1.7658      Y:    -2.4794      Z:     2.1957     Total:     3.7533

*** Psi4 exiting successfully. Buy a developer a beer!
