                               Psi4 1.4a3.dev225

  ==> Input File <==

--------------------------------------------------------------------------
#psi4
#
memory 32 gb

molecule  {
0 1
  O        0.3130990     2.3704440    -1.0483590
  N        1.7883250     1.2487180     0.2800910
  C        1.5287440    -1.3320340    -0.8115580
  C        2.5082430    -1.1273300     0.3546920
  C        0.0936770    -1.0844130    -0.4156830
  C       -0.3593510     0.2288580    -0.1728470
  C        2.1500350     0.1348000     1.1432270
  C       -1.6973100     0.4876920     0.1815770
  C        0.5874820     1.3794060    -0.3635620
  C       -0.8057180    -2.1460500    -0.2745700
  C       -2.5635920    -0.6025190     0.3218070
  C       -2.1294290    -1.9083920     0.0915650
  C       -2.2005820     1.8899870     0.4130340
  H        1.6305660    -2.3487650    -1.2074160
  H        1.8022820    -0.6509930    -1.6251500
  H        2.4785080    -1.9866810     1.0363320
  H        3.5296620    -1.0584230    -0.0385230
  H        1.2916924    -0.0787246     1.8208753
  H        2.9845300     0.4555350     1.7739000
  H        2.4430930     2.0063180     0.1171350
  H       -0.4670580    -3.1628320    -0.4675050
  H       -3.5988730    -0.4222000     0.6058720
  H       -2.8229980    -2.7393000     0.2003190
  H       -1.5534710     2.4410460     1.1016880
  H       -2.2209110     2.4548110    -0.5213210
  H       -3.2087000     1.8617690     0.8360960
units angstrom
no_reorient  #important for SAPT in psi4, default
symmetry c1  #important for SAPT in psi4, default
}

set PROPERTIES_ORIGIN ["COM"]
properties('MP2/aug-cc-pvtz', properties = ['dipole'])
--------------------------------------------------------------------------

    Molecular point group: c1
  Charge       = 0
  Multiplicity = 1
  Basis Set: AUG-CC-PVTZ
    Blend: AUG-CC-PVTZ
  Basis Set: (AUG-CC-PVTZ AUX)
    Blend: AUG-CC-PVTZ-JKFIT

    Orbital Energies [Eh]
    ---------------------

    Doubly Occupied:

       1A    -20.512802     2A    -15.583285     3A    -11.350390
       4A    -11.277232     5A    -11.254285     6A    -11.253457
       7A    -11.244373     8A    -11.241977     9A    -11.238333
      10A    -11.237581    11A    -11.235248    12A    -11.232669
      13A    -11.215886    14A     -1.367680    15A     -1.235316
      16A     -1.163677    17A     -1.084588    18A     -1.044713
      19A     -1.028437    20A     -0.942660    21A     -0.932858
      22A     -0.873629    23A     -0.829534    24A     -0.784926
      25A     -0.769409    26A     -0.693757    27A     -0.682008
      28A     -0.659981    29A     -0.658846    30A     -0.619434
      31A     -0.615219    32A     -0.590958    33A     -0.583660
      34A     -0.570023    35A     -0.565663    36A     -0.553064
      37A     -0.531490    38A     -0.529673    39A     -0.513685
      40A     -0.505217    41A     -0.488817    42A     -0.479198
      43A     -0.473603    44A     -0.417540    45A     -0.385976
      46A     -0.336342    47A     -0.327493

  @DF-RHF Final Energy:  -553.64260740329587

   => Energetics <=

    Nuclear Repulsion Energy =            795.8927070707535449
    One-Electron Energy =               -2331.6374467319865289
    Two-Electron Energy =                 982.1021322579370008
    Total Energy =                       -553.6426074032958695
  Basis Set: (AUG-CC-PVTZ AUX)
    Blend: AUG-CC-PVTZ-RI
    Molecular point group: c1

    Geometry (in Angstrom), charge = 0, multiplicity = 1:

       Center              X                  Y                   Z               Mass
    ------------   -----------------  -----------------  -----------------  -----------------
         O            0.326219205961     2.352241242054    -1.027951379510    15.994914619570
         N            1.801445205961     1.230515242054     0.300498620490    14.003074004430
         C            1.541864205961    -1.350236757946    -0.791150379510    12.000000000000
         C            2.521363205961    -1.145532757946     0.375099620490    12.000000000000
         C            0.106797205961    -1.102615757946    -0.395275379510    12.000000000000
         C           -0.346230794039     0.210655242054    -0.152439379510    12.000000000000
         C            2.163155205961     0.116597242054     1.163634620490    12.000000000000
         C           -1.684189794039     0.469489242054     0.201984620490    12.000000000000
         C            0.600602205961     1.361203242054    -0.343154379510    12.000000000000
         C           -0.792597794039    -2.164252757946    -0.254162379510    12.000000000000
         C           -2.550471794039    -0.620721757946     0.342214620490    12.000000000000
         C           -2.116308794039    -1.926594757946     0.111972620490    12.000000000000
         C           -2.187461794039     1.871784242054     0.433441620490    12.000000000000
         H            1.643686205961    -2.366967757946    -1.187008379510     1.007825032230
         H            1.815402205961    -0.669195757946    -1.604742379510     1.007825032230
         H            2.491628205961    -2.004883757946     1.056739620490     1.007825032230
         H            3.542782205961    -1.076625757946    -0.018115379510     1.007825032230
         H            1.304812605961    -0.096927357946     1.841282920490     1.007825032230
         H            2.997650205961     0.437332242054     1.794307620490     1.007825032230
         H            2.456213205961     1.988115242054     0.137542620490     1.007825032230
         H           -0.453937794039    -3.181034757946    -0.447097379510     1.007825032230
         H           -3.585752794039    -0.440402757946     0.626279620490     1.007825032230
         H           -2.809877794039    -2.757502757946     0.220726620490     1.007825032230
         H           -1.540350794039     2.422843242054     1.122095620490     1.007825032230
         H           -2.207790794039     2.436608242054    -0.500913379510     1.007825032230
         H           -3.195579794039     1.843566242054     0.856503620490     1.007825032230

  Basis Set: AUG-CC-PVTZ
    Blend: AUG-CC-PVTZ
  Basis Set: (AUG-CC-PVTZ AUX)
    Blend: AUG-CC-PVTZ-JKFIT
	 Reference Energy          =    -553.6426074032958695 [Eh]
	 Singles Energy            =      -0.0000000000000000 [Eh]
	 Same-Spin Energy          =      -0.6042341216047686 [Eh]
	 Opposite-Spin Energy      =      -1.9032635764706165 [Eh]
	 Correlation Energy        =      -2.5074976980753849 [Eh]
	 Total Energy              =    -556.1501051013713095 [Eh]

	 ================> DF-SCS-MP2 Energies <==================
	-----------------------------------------------------------
	 SCS Same-Spin Scale       =       0.3333333333333333 [-]
	 SCS Opposite-Spin Scale   =       1.2000000000000000 [-]
	 SCS Same-Spin Energy      =      -0.2014113738682562 [Eh]
	 SCS Opposite-Spin Energy  =      -2.2839162917647395 [Eh]
	 SCS Correlation Energy    =      -2.4853276656329957 [Eh]
	 SCS Total Energy          =    -556.1279350689288776 [Eh]
	-----------------------------------------------------------

  Dipole Moment: [D]
     X:     1.7313      Y:    -2.5368      Z:     2.1957     Total:     3.7754

*** Psi4 exiting successfully. Buy a developer a beer!
