                               Psi4 1.4a3.dev225

  ==> Input File <==

--------------------------------------------------------------------------
#psi4
#
memory 32 gb

molecule  {
0 1
  O        0.3130990     2.3704440    -1.0483590
  N        1.7883250     1.2487180     0.2800910
  C        1.5287440    -1.3320340    -0.8115580
  C        2.5082430    -1.1273300     0.3546920
  C        0.0936770    -1.0844130    -0.4156830
  C       -0.3593510     0.2288580    -0.1728470
  C        2.1500350     0.1348000     1.1432270
  C       -1.6973100     0.4876920     0.1815770
  C        0.5874820     1.3794060    -0.3635620
  C       -0.8057180    -2.1460500    -0.2745700
  C       -2.5635920    -0.6025190     0.3218070
  C       -2.1193534    -1.8608530     0.0939021
  C       -2.2005820     1.8899870     0.4130340
  H        1.6305660    -2.3487650    -1.2074160
  H        1.8022820    -0.6509930    -1.6251500
  H        2.4785080    -1.9866810     1.0363320
  H        3.5296620    -1.0584230    -0.0385230
  H        1.3070990    -0.0748920     1.8087120
  H        2.9845300     0.4555350     1.7739000
  H        2.4430930     2.0063180     0.1171350
  H       -0.4670580    -3.1628320    -0.4675050
  H       -3.5988730    -0.4222000     0.6058720
  H       -2.8229980    -2.7393000     0.2003190
  H       -1.5534710     2.4410460     1.1016880
  H       -2.2209110     2.4548110    -0.5213210
  H       -3.2087000     1.8617690     0.8360960
units angstrom
no_reorient  #important for SAPT in psi4, default
symmetry c1  #important for SAPT in psi4, default
}

set PROPERTIES_ORIGIN ["COM"]
properties('MP2/aug-cc-pvtz', properties = ['dipole'])
--------------------------------------------------------------------------

    Molecular point group: c1
  Charge       = 0
  Multiplicity = 1
  Basis Set: AUG-CC-PVTZ
    Blend: AUG-CC-PVTZ
  Basis Set: (AUG-CC-PVTZ AUX)
    Blend: AUG-CC-PVTZ-JKFIT

    Orbital Energies [Eh]
    ---------------------

    Doubly Occupied:

       1A    -20.512450     2A    -15.582872     3A    -11.350103
       4A    -11.274876     5A    -11.254259     6A    -11.253997
       7A    -11.243045     8A    -11.240955     9A    -11.238028
      10A    -11.237324    11A    -11.234472    12A    -11.228217
      13A    -11.216195    14A     -1.367372    15A     -1.235242
      16A     -1.167160    17A     -1.085870    18A     -1.045153
      19A     -1.030623    20A     -0.943375    21A     -0.936220
      22A     -0.871019    23A     -0.830584    24A     -0.783507
      25A     -0.769893    26A     -0.695188    27A     -0.683588
      28A     -0.660211    29A     -0.656363    30A     -0.619994
      31A     -0.613889    32A     -0.589141    33A     -0.584706
      34A     -0.569827    35A     -0.566916    36A     -0.553443
      37A     -0.531829    38A     -0.531705    39A     -0.514993
      40A     -0.501526    41A     -0.487984    42A     -0.482252
      43A     -0.473088    44A     -0.417012    45A     -0.386001
      46A     -0.339776    47A     -0.327236

  @DF-RHF Final Energy:  -553.64065079494856

   => Energetics <=

    Nuclear Repulsion Energy =            796.9203884755492027
    One-Electron Energy =               -2333.6831147188145223
    Two-Electron Energy =                 983.1220754483166502
    Total Energy =                       -553.6406507949485558
  Basis Set: (AUG-CC-PVTZ AUX)
    Blend: AUG-CC-PVTZ-RI
    Molecular point group: c1

    Geometry (in Angstrom), charge = 0, multiplicity = 1:

       Center              X                  Y                   Z               Mass
    ------------   -----------------  -----------------  -----------------  -----------------
         O            0.325440025036     2.348961221904    -1.028041537977    15.994914619570
         N            1.800666025036     1.227235221904     0.300408462023    14.003074004430
         C            1.541085025036    -1.353516778096    -0.791240537977    12.000000000000
         C            2.520584025036    -1.148812778096     0.375009462023    12.000000000000
         C            0.106018025036    -1.105895778096    -0.395365537977    12.000000000000
         C           -0.347009974964     0.207375221904    -0.152529537977    12.000000000000
         C            2.162376025036     0.113317221904     1.163544462023    12.000000000000
         C           -1.684968974964     0.466209221904     0.201894462023    12.000000000000
         C            0.599823025036     1.357923221904    -0.343244537977    12.000000000000
         C           -0.793376974964    -2.167532778096    -0.254252537977    12.000000000000
         C           -2.551250974964    -0.624001778096     0.342124462023    12.000000000000
         C           -2.107012374964    -1.882335778096     0.114219562023    12.000000000000
         C           -2.188240974964     1.868504221904     0.433351462023    12.000000000000
         H            1.642907025036    -2.370247778096    -1.187098537977     1.007825032230
         H            1.814623025036    -0.672475778096    -1.604832537977     1.007825032230
         H            2.490849025036    -2.008163778096     1.056649462023     1.007825032230
         H            3.542003025036    -1.079905778096    -0.018205537977     1.007825032230
         H            1.319440025036    -0.096374778096     1.829029462023     1.007825032230
         H            2.996871025036     0.434052221904     1.794217462023     1.007825032230
         H            2.455434025036     1.984835221904     0.137452462023     1.007825032230
         H           -0.454716974964    -3.184314778096    -0.447187537977     1.007825032230
         H           -3.586531974964    -0.443682778096     0.626189462023     1.007825032230
         H           -2.810656974964    -2.760782778096     0.220636462023     1.007825032230
         H           -1.541129974964     2.419563221904     1.122005462023     1.007825032230
         H           -2.208569974964     2.433328221904    -0.501003537977     1.007825032230
         H           -3.196358974964     1.840286221904     0.856413462023     1.007825032230

  Basis Set: AUG-CC-PVTZ
    Blend: AUG-CC-PVTZ
  Basis Set: (AUG-CC-PVTZ AUX)
    Blend: AUG-CC-PVTZ-JKFIT
	 Reference Energy          =    -553.6406507949485558 [Eh]
	 Singles Energy            =      -0.0000000000000000 [Eh]
	 Same-Spin Energy          =      -0.6041527836231073 [Eh]
	 Opposite-Spin Energy      =      -1.9028229528221212 [Eh]
	 Correlation Energy        =      -2.5069757364452285 [Eh]
	 Total Energy              =    -556.1476265313938256 [Eh]

	 ================> DF-SCS-MP2 Energies <==================
	-----------------------------------------------------------
	 SCS Same-Spin Scale       =       0.3333333333333333 [-]
	 SCS Opposite-Spin Scale   =       1.2000000000000000 [-]
	 SCS Same-Spin Energy      =      -0.2013842612077024 [Eh]
	 SCS Opposite-Spin Energy  =      -2.2833875433865454 [Eh]
	 SCS Correlation Energy    =      -2.4847718045942480 [Eh]
	 SCS Total Energy          =    -556.1254225995428442 [Eh]
	-----------------------------------------------------------

  Dipole Moment: [D]
     X:     1.7401      Y:    -2.5247      Z:     2.2011     Total:     3.7745

*** Psi4 exiting successfully. Buy a developer a beer!
