                               Psi4 1.4a3.dev225

  ==> Input File <==

--------------------------------------------------------------------------
#psi4
#
memory 32 gb

molecule  {
0 1
  O        0.3130990     2.3704440    -1.0483590
  N        1.7883250     1.2487180     0.2800910
  C        1.5287440    -1.3320340    -0.8115580
  C        2.4763729    -1.1339905     0.3167455
  C        0.0936770    -1.0844130    -0.4156830
  C       -0.3593510     0.2288580    -0.1728470
  C        2.1500350     0.1348000     1.1432270
  C       -1.6973100     0.4876920     0.1815770
  C        0.5874820     1.3794060    -0.3635620
  C       -0.8057180    -2.1460500    -0.2745700
  C       -2.5635920    -0.6025190     0.3218070
  C       -2.1294290    -1.9083920     0.0915650
  C       -2.2005820     1.8899870     0.4130340
  H        1.6305660    -2.3487650    -1.2074160
  H        1.8022820    -0.6509930    -1.6251500
  H        2.4785080    -1.9866810     1.0363320
  H        3.5296620    -1.0584230    -0.0385230
  H        1.3070990    -0.0748920     1.8087120
  H        2.9845300     0.4555350     1.7739000
  H        2.4430930     2.0063180     0.1171350
  H       -0.4670580    -3.1628320    -0.4675050
  H       -3.5988730    -0.4222000     0.6058720
  H       -2.8229980    -2.7393000     0.2003190
  H       -1.5534710     2.4410460     1.1016880
  H       -2.2209110     2.4548110    -0.5213210
  H       -3.2087000     1.8617690     0.8360960
units angstrom
no_reorient  #important for SAPT in psi4, default
symmetry c1  #important for SAPT in psi4, default
}

set PROPERTIES_ORIGIN ["COM"]
properties('MP2/aug-cc-pvtz', properties = ['dipole'])
--------------------------------------------------------------------------

    Molecular point group: c1
  Charge       = 0
  Multiplicity = 1
  Basis Set: AUG-CC-PVTZ
    Blend: AUG-CC-PVTZ
  Basis Set: (AUG-CC-PVTZ AUX)
    Blend: AUG-CC-PVTZ-JKFIT

    Orbital Energies [Eh]
    ---------------------

    Doubly Occupied:

       1A    -20.512588     2A    -15.582648     3A    -11.350262
       4A    -11.275650     5A    -11.254552     6A    -11.253665
       7A    -11.244580     8A    -11.242349     9A    -11.238972
      10A    -11.236323    11A    -11.235611    12A    -11.232973
      13A    -11.216012    14A     -1.367525    15A     -1.235356
      16A     -1.164334    17A     -1.089364    18A     -1.045269
      19A     -1.027449    20A     -0.943728    21A     -0.934878
      22A     -0.873235    23A     -0.828548    24A     -0.784899
      25A     -0.769633    26A     -0.694220    27A     -0.682938
      28A     -0.660531    29A     -0.658899    30A     -0.620013
      31A     -0.615420    32A     -0.590559    33A     -0.585292
      34A     -0.570163    35A     -0.566704    36A     -0.552157
      37A     -0.535009    38A     -0.530724    39A     -0.514599
      40A     -0.504156    41A     -0.488814    42A     -0.479790
      43A     -0.470862    44A     -0.417332    45A     -0.384152
      46A     -0.336864    47A     -0.328188

  @DF-RHF Final Energy:  -553.64031767778545

   => Energetics <=

    Nuclear Repulsion Energy =            796.6204825793962527
    One-Electron Energy =               -2333.0660270769712952
    Two-Electron Energy =                 982.8052268197897092
    Total Energy =                       -553.6403176777854469
  Basis Set: (AUG-CC-PVTZ AUX)
    Blend: AUG-CC-PVTZ-RI
    Molecular point group: c1

    Geometry (in Angstrom), charge = 0, multiplicity = 1:

       Center              X                  Y                   Z               Mass
    ------------   -----------------  -----------------  -----------------  -----------------
         O            0.328314663655     2.352675642590    -1.025280807026    15.994914619570
         N            1.803540663655     1.230949642590     0.303169192974    14.003074004430
         C            1.543959663655    -1.349802357410    -0.788479807026    12.000000000000
         C            2.491588563655    -1.151758857410     0.339823692974    12.000000000000
         C            0.108892663655    -1.102181357410    -0.392604807026    12.000000000000
         C           -0.344135336345     0.211089642590    -0.149768807026    12.000000000000
         C            2.165250663655     0.117031642590     1.166305192974    12.000000000000
         C           -1.682094336345     0.469923642590     0.204655192974    12.000000000000
         C            0.602697663655     1.361637642590    -0.340483807026    12.000000000000
         C           -0.790502336345    -2.163818357410    -0.251491807026    12.000000000000
         C           -2.548376336345    -0.620287357410     0.344885192974    12.000000000000
         C           -2.114213336345    -1.926160357410     0.114643192974    12.000000000000
         C           -2.185366336345     1.872218642590     0.436112192974    12.000000000000
         H            1.645781663655    -2.366533357410    -1.184337807026     1.007825032230
         H            1.817497663655    -0.668761357410    -1.602071807026     1.007825032230
         H            2.493723663655    -2.004449357410     1.059410192974     1.007825032230
         H            3.544877663655    -1.076191357410    -0.015444807026     1.007825032230
         H            1.322314663655    -0.092660357410     1.831790192974     1.007825032230
         H            2.999745663655     0.437766642590     1.796978192974     1.007825032230
         H            2.458308663655     1.988549642590     0.140213192974     1.007825032230
         H           -0.451842336345    -3.180600357410    -0.444426807026     1.007825032230
         H           -3.583657336345    -0.439968357410     0.628950192974     1.007825032230
         H           -2.807782336345    -2.757068357410     0.223397192974     1.007825032230
         H           -1.538255336345     2.423277642590     1.124766192974     1.007825032230
         H           -2.205695336345     2.437042642590    -0.498242807026     1.007825032230
         H           -3.193484336345     1.844000642590     0.859174192974     1.007825032230

  Basis Set: AUG-CC-PVTZ
    Blend: AUG-CC-PVTZ
  Basis Set: (AUG-CC-PVTZ AUX)
    Blend: AUG-CC-PVTZ-JKFIT
	 Reference Energy          =    -553.6403176777854469 [Eh]
	 Singles Energy            =      -0.0000000000000000 [Eh]
	 Same-Spin Energy          =      -0.6044800553340927 [Eh]
	 Opposite-Spin Energy      =      -1.9034810181500443 [Eh]
	 Correlation Energy        =      -2.5079610734841369 [Eh]
	 Total Energy              =    -556.1482787512695722 [Eh]

	 ================> DF-SCS-MP2 Energies <==================
	-----------------------------------------------------------
	 SCS Same-Spin Scale       =       0.3333333333333333 [-]
	 SCS Opposite-Spin Scale   =       1.2000000000000000 [-]
	 SCS Same-Spin Energy      =      -0.2014933517780309 [Eh]
	 SCS Opposite-Spin Energy  =      -2.2841772217800531 [Eh]
	 SCS Correlation Energy    =      -2.4856705735580840 [Eh]
	 SCS Total Energy          =    -556.1259882513435286 [Eh]
	-----------------------------------------------------------

  Dipole Moment: [D]
     X:     1.7035      Y:    -2.5277      Z:     2.2013     Total:     3.7599

*** Psi4 exiting successfully. Buy a developer a beer!
