                               Psi4 1.4a3.dev225

  ==> Input File <==

--------------------------------------------------------------------------
#psi4
#
memory 32 gb

molecule  {
0 1
  O        0.3130990     2.3704440    -1.0483590
  N        1.7883250     1.2487180     0.2800910
  C        1.5287440    -1.3320340    -0.8115580
  C        2.5082430    -1.1273300     0.3546920
  C        0.0936770    -1.0844130    -0.4156830
  C       -0.3593510     0.2288580    -0.1728470
  C        2.1272640     0.1244004     1.1389749
  C       -1.6973100     0.4876920     0.1815770
  C        0.5874820     1.3794060    -0.3635620
  C       -0.8057180    -2.1460500    -0.2745700
  C       -2.5635920    -0.6025190     0.3218070
  C       -2.1294290    -1.9083920     0.0915650
  C       -2.2005820     1.8899870     0.4130340
  H        1.6305660    -2.3487650    -1.2074160
  H        1.8022820    -0.6509930    -1.6251500
  H        2.4785080    -1.9866810     1.0363320
  H        3.5296620    -1.0584230    -0.0385230
  H        1.3070990    -0.0748920     1.8087120
  H        2.9845300     0.4555350     1.7739000
  H        2.4430930     2.0063180     0.1171350
  H       -0.4670580    -3.1628320    -0.4675050
  H       -3.5988730    -0.4222000     0.6058720
  H       -2.8229980    -2.7393000     0.2003190
  H       -1.5534710     2.4410460     1.1016880
  H       -2.2209110     2.4548110    -0.5213210
  H       -3.2087000     1.8617690     0.8360960
units angstrom
no_reorient  #important for SAPT in psi4, default
symmetry c1  #important for SAPT in psi4, default
}

set PROPERTIES_ORIGIN ["COM"]
properties('MP2/aug-cc-pvtz', properties = ['dipole'])
--------------------------------------------------------------------------

    Molecular point group: c1
  Charge       = 0
  Multiplicity = 1
  Basis Set: AUG-CC-PVTZ
    Blend: AUG-CC-PVTZ
  Basis Set: (AUG-CC-PVTZ AUX)
    Blend: AUG-CC-PVTZ-JKFIT

    Orbital Energies [Eh]
    ---------------------

    Doubly Occupied:

       1A    -20.512546     2A    -15.583133     3A    -11.349815
       4A    -11.275137     5A    -11.254361     6A    -11.253577
       7A    -11.244484     8A    -11.242080     9A    -11.238025
      10A    -11.237310    11A    -11.235392    12A    -11.232808
      13A    -11.215969    14A     -1.367534    15A     -1.235751
      16A     -1.163774    17A     -1.085195    18A     -1.044909
      19A     -1.028782    20A     -0.943260    21A     -0.932862
      22A     -0.873177    23A     -0.830888    24A     -0.784697
      25A     -0.770484    26A     -0.693972    27A     -0.683722
      28A     -0.660003    29A     -0.657590    30A     -0.620340
      31A     -0.614520    32A     -0.592005    33A     -0.583581
      34A     -0.569824    35A     -0.566574    36A     -0.553211
      37A     -0.531395    38A     -0.530806    39A     -0.514027
      40A     -0.505574    41A     -0.486998    42A     -0.479417
      43A     -0.474248    44A     -0.417136    45A     -0.386895
      46A     -0.336556    47A     -0.327616

  @DF-RHF Final Energy:  -553.64227332610596

   => Energetics <=

    Nuclear Repulsion Energy =            796.3312551904816701
    One-Electron Energy =               -2332.5031312991050072
    Two-Electron Energy =                 982.5296027825173724
    Total Energy =                       -553.6422733261059648
  Basis Set: (AUG-CC-PVTZ AUX)
    Blend: AUG-CC-PVTZ-RI
    Molecular point group: c1

    Geometry (in Angstrom), charge = 0, multiplicity = 1:

       Center              X                  Y                   Z               Mass
    ------------   -----------------  -----------------  -----------------  -----------------
         O            0.327691080683     2.352931892009    -1.027589964424    15.994914619570
         N            1.802917080683     1.231205892009     0.300860035576    14.003074004430
         C            1.543336080683    -1.349546107991    -0.790788964424    12.000000000000
         C            2.522835080683    -1.144842107991     0.375461035576    12.000000000000
         C            0.108269080683    -1.101925107991    -0.394913964424    12.000000000000
         C           -0.344758919317     0.211345892009    -0.152077964424    12.000000000000
         C            2.141856080683     0.106888292009     1.159743935576    12.000000000000
         C           -1.682717919317     0.470179892009     0.202346035576    12.000000000000
         C            0.602074080683     1.361893892009    -0.342792964424    12.000000000000
         C           -0.791125919317    -2.163562107991    -0.253800964424    12.000000000000
         C           -2.548999919317    -0.620031107991     0.342576035576    12.000000000000
         C           -2.114836919317    -1.925904107991     0.112334035576    12.000000000000
         C           -2.185989919317     1.872474892009     0.433803035576    12.000000000000
         H            1.645158080683    -2.366277107991    -1.186646964424     1.007825032230
         H            1.816874080683    -0.668505107991    -1.604380964424     1.007825032230
         H            2.493100080683    -2.004193107991     1.057101035576     1.007825032230
         H            3.544254080683    -1.075935107991    -0.017753964424     1.007825032230
         H            1.321691080683    -0.092404107991     1.829481035576     1.007825032230
         H            2.999122080683     0.438022892009     1.794669035576     1.007825032230
         H            2.457685080683     1.988805892009     0.137904035576     1.007825032230
         H           -0.452465919317    -3.180344107991    -0.446735964424     1.007825032230
         H           -3.584280919317    -0.439712107991     0.626641035576     1.007825032230
         H           -2.808405919317    -2.756812107991     0.221088035576     1.007825032230
         H           -1.538878919317     2.423533892009     1.122457035576     1.007825032230
         H           -2.206318919317     2.437298892009    -0.500551964424     1.007825032230
         H           -3.194107919317     1.844256892009     0.856865035576     1.007825032230

  Basis Set: AUG-CC-PVTZ
    Blend: AUG-CC-PVTZ
  Basis Set: (AUG-CC-PVTZ AUX)
    Blend: AUG-CC-PVTZ-JKFIT
	 Reference Energy          =    -553.6422733261059648 [Eh]
	 Singles Energy            =      -0.0000000000000000 [Eh]
	 Same-Spin Energy          =      -0.6042830546891353 [Eh]
	 Opposite-Spin Energy      =      -1.9032296140637794 [Eh]
	 Correlation Energy        =      -2.5075126687529146 [Eh]
	 Total Energy              =    -556.1497859948589166 [Eh]

	 ================> DF-SCS-MP2 Energies <==================
	-----------------------------------------------------------
	 SCS Same-Spin Scale       =       0.3333333333333333 [-]
	 SCS Opposite-Spin Scale   =       1.2000000000000000 [-]
	 SCS Same-Spin Energy      =      -0.2014276848963784 [Eh]
	 SCS Opposite-Spin Energy  =      -2.2838755368765353 [Eh]
	 SCS Correlation Energy    =      -2.4853032217729139 [Eh]
	 SCS Total Energy          =    -556.1275765478789026 [Eh]
	-----------------------------------------------------------

  Dipole Moment: [D]
     X:     1.7123      Y:    -2.5500      Z:     2.2017     Total:     3.7791

*** Psi4 exiting successfully. Buy a developer a beer!
