                               Psi4 1.4a3.dev225

  ==> Input File <==

--------------------------------------------------------------------------
#psi4
#
memory 32 gb

molecule  {
0 1
  O        0.3130990     2.3704440    -1.0483590
  N        1.8013677     1.2912260     0.2626154
  C        1.5287440    -1.3320340    -0.8115580
  C        2.5082430    -1.1273300     0.3546920
  C        0.0936770    -1.0844130    -0.4156830
  C       -0.3593510     0.2288580    -0.1728470
  C        2.1500350     0.1348000     1.1432270
  C       -1.6973100     0.4876920     0.1815770
  C        0.5874820     1.3794060    -0.3635620
  C       -0.8057180    -2.1460500    -0.2745700
  C       -2.5635920    -0.6025190     0.3218070
  C       -2.1294290    -1.9083920     0.0915650
  C       -2.2005820     1.8899870     0.4130340
  H        1.6305660    -2.3487650    -1.2074160
  H        1.8022820    -0.6509930    -1.6251500
  H        2.4785080    -1.9866810     1.0363320
  H        3.5296620    -1.0584230    -0.0385230
  H        1.3070990    -0.0748920     1.8087120
  H        2.9845300     0.4555350     1.7739000
  H        2.4430930     2.0063180     0.1171350
  H       -0.4670580    -3.1628320    -0.4675050
  H       -3.5988730    -0.4222000     0.6058720
  H       -2.8229980    -2.7393000     0.2003190
  H       -1.5534710     2.4410460     1.1016880
  H       -2.2209110     2.4548110    -0.5213210
  H       -3.2087000     1.8617690     0.8360960
units angstrom
no_reorient  #important for SAPT in psi4, default
symmetry c1  #important for SAPT in psi4, default
}

set PROPERTIES_ORIGIN ["COM"]
properties('MP2/aug-cc-pvtz', properties = ['dipole'])
--------------------------------------------------------------------------

    Molecular point group: c1
  Charge       = 0
  Multiplicity = 1
  Basis Set: AUG-CC-PVTZ
    Blend: AUG-CC-PVTZ
  Basis Set: (AUG-CC-PVTZ AUX)
    Blend: AUG-CC-PVTZ-JKFIT

    Orbital Energies [Eh]
    ---------------------

    Doubly Occupied:

       1A    -20.509948     2A    -15.579121     3A    -11.349073
       4A    -11.277308     5A    -11.254920     6A    -11.254290
       7A    -11.244993     8A    -11.243487     9A    -11.239062
      10A    -11.238415    11A    -11.235732    12A    -11.233199
      13A    -11.215996    14A     -1.366728    15A     -1.228344
      16A     -1.164483    17A     -1.085768    18A     -1.045796
      19A     -1.027733    20A     -0.944726    21A     -0.932051
      22A     -0.873150    23A     -0.831541    24A     -0.785705
      25A     -0.774191    26A     -0.696912    27A     -0.679201
      28A     -0.660412    29A     -0.655693    30A     -0.619146
      31A     -0.617320    32A     -0.590607    33A     -0.582171
      34A     -0.569597    35A     -0.566468    36A     -0.552728
      37A     -0.531613    38A     -0.530572    39A     -0.514099
      40A     -0.505653    41A     -0.489460    42A     -0.479563
      43A     -0.474113    44A     -0.416292    45A     -0.386533
      46A     -0.336982    47A     -0.328026

  @DF-RHF Final Energy:  -553.64159601014092

   => Energetics <=

    Nuclear Repulsion Energy =            795.1744776590251149
    One-Electron Energy =               -2330.1943113993233965
    Two-Electron Energy =                 981.3782377301573661
    Total Energy =                       -553.6415960101409155
  Basis Set: (AUG-CC-PVTZ AUX)
    Blend: AUG-CC-PVTZ-RI
    Molecular point group: c1

    Geometry (in Angstrom), charge = 0, multiplicity = 1:

       Center              X                  Y                   Z               Mass
    ------------   -----------------  -----------------  -----------------  -----------------
         O            0.325087479096     2.348819732982    -1.026483812303    15.994914619570
         N            1.813356179096     1.269601732982     0.284490587697    14.003074004430
         C            1.540732479096    -1.353658267018    -0.789682812303    12.000000000000
         C            2.520231479096    -1.148954267018     0.376567187697    12.000000000000
         C            0.105665479096    -1.106037267018    -0.393807812303    12.000000000000
         C           -0.347362520904     0.207233732982    -0.150971812303    12.000000000000
         C            2.162023479096     0.113175732982     1.165102187697    12.000000000000
         C           -1.685321520904     0.466067732982     0.203452187697    12.000000000000
         C            0.599470479096     1.357781732982    -0.341686812303    12.000000000000
         C           -0.793729520904    -2.167674267018    -0.252694812303    12.000000000000
         C           -2.551603520904    -0.624143267018     0.343682187697    12.000000000000
         C           -2.117440520904    -1.930016267018     0.113440187697    12.000000000000
         C           -2.188593520904     1.868362732982     0.434909187697    12.000000000000
         H            1.642554479096    -2.370389267018    -1.185540812303     1.007825032230
         H            1.814270479096    -0.672617267018    -1.603274812303     1.007825032230
         H            2.490496479096    -2.008305267018     1.058207187697     1.007825032230
         H            3.541650479096    -1.080047267018    -0.016647812303     1.007825032230
         H            1.319087479096    -0.096516267018     1.830587187697     1.007825032230
         H            2.996518479096     0.433910732982     1.795775187697     1.007825032230
         H            2.455081479096     1.984693732982     0.139010187697     1.007825032230
         H           -0.455069520904    -3.184456267018    -0.445629812303     1.007825032230
         H           -3.586884520904    -0.443824267018     0.627747187697     1.007825032230
         H           -2.811009520904    -2.760924267018     0.222194187697     1.007825032230
         H           -1.541482520904     2.419421732982     1.123563187697     1.007825032230
         H           -2.208922520904     2.433186732982    -0.499445812303     1.007825032230
         H           -3.196711520904     1.840144732982     0.857971187697     1.007825032230

  Basis Set: AUG-CC-PVTZ
    Blend: AUG-CC-PVTZ
  Basis Set: (AUG-CC-PVTZ AUX)
    Blend: AUG-CC-PVTZ-JKFIT
	 Reference Energy          =    -553.6415960101409155 [Eh]
	 Singles Energy            =      -0.0000000000000000 [Eh]
	 Same-Spin Energy          =      -0.6034951574488029 [Eh]
	 Opposite-Spin Energy      =      -1.9023793920598862 [Eh]
	 Correlation Energy        =      -2.5058745495086892 [Eh]
	 Total Energy              =    -556.1474705596496051 [Eh]

	 ================> DF-SCS-MP2 Energies <==================
	-----------------------------------------------------------
	 SCS Same-Spin Scale       =       0.3333333333333333 [-]
	 SCS Opposite-Spin Scale   =       1.2000000000000000 [-]
	 SCS Same-Spin Energy      =      -0.2011650524829343 [Eh]
	 SCS Opposite-Spin Energy  =      -2.2828552704718632 [Eh]
	 SCS Correlation Energy    =      -2.4840203229547977 [Eh]
	 SCS Total Energy          =    -556.1256163330957634 [Eh]
	-----------------------------------------------------------

  Dipole Moment: [D]
     X:     1.6918      Y:    -2.6291      Z:     2.2219     Total:     3.8355

*** Psi4 exiting successfully. Buy a developer a beer!
