                               Psi4 1.4a3.dev225

  ==> Input File <==

--------------------------------------------------------------------------
#psi4
#
memory 32 gb

molecule  {
0 1
  O        0.3130990     2.3704440    -1.0483590
  N        1.7883250     1.2487180     0.2800910
  C        1.5287440    -1.3320340    -0.8115580
  C        2.5082430    -1.1273300     0.3546920
  C        0.0936770    -1.0844130    -0.4156830
  C       -0.3593510     0.2288580    -0.1728470
  C        2.1500350     0.1348000     1.1432270
  C       -1.6973100     0.4876920     0.1815770
  C        0.5874820     1.3794060    -0.3635620
  C       -0.8057180    -2.1460500    -0.2745700
  C       -2.5635920    -0.6025190     0.3218070
  C       -2.1294290    -1.9083920     0.0915650
  C       -2.2005820     1.8899870     0.4130340
  H        1.6305660    -2.3487650    -1.2074160
  H        1.8022820    -0.6509930    -1.6251500
  H        2.4785080    -1.9866810     1.0363320
  H        3.5296620    -1.0584230    -0.0385230
  H        1.3070990    -0.0748920     1.8087120
  H        2.9845300     0.4555350     1.7739000
  H        2.4430930     2.0063180     0.1171350
  H       -0.4670580    -3.1628320    -0.4675050
  H       -3.5988730    -0.4222000     0.6058720
  H       -2.8357500    -2.7545771     0.2023186
  H       -1.5534710     2.4410460     1.1016880
  H       -2.2209110     2.4548110    -0.5213210
  H       -3.2087000     1.8617690     0.8360960
units angstrom
no_reorient  #important for SAPT in psi4, default
symmetry c1  #important for SAPT in psi4, default
}

set PROPERTIES_ORIGIN ["COM"]
properties('MP2/aug-cc-pvtz', properties = ['dipole'])
--------------------------------------------------------------------------

    Molecular point group: c1
  Charge       = 0
  Multiplicity = 1
  Basis Set: AUG-CC-PVTZ
    Blend: AUG-CC-PVTZ
  Basis Set: (AUG-CC-PVTZ AUX)
    Blend: AUG-CC-PVTZ-JKFIT

    Orbital Energies [Eh]
    ---------------------

    Doubly Occupied:

       1A    -20.512752     2A    -15.583104     3A    -11.350374
       4A    -11.274954     5A    -11.254440     6A    -11.253619
       7A    -11.246706     8A    -11.242065     9A    -11.238337
      10A    -11.237460    11A    -11.235461    12A    -11.232876
      13A    -11.215977    14A     -1.367644    15A     -1.235414
      16A     -1.163725    17A     -1.084674    18A     -1.044388
      19A     -1.028652    20A     -0.943221    21A     -0.933312
      22A     -0.873018    23A     -0.829742    24A     -0.784617
      25A     -0.769635    26A     -0.693988    27A     -0.682889
      28A     -0.659479    29A     -0.657645    30A     -0.619552
      31A     -0.614824    32A     -0.590148    33A     -0.583846
      34A     -0.570010    35A     -0.566154    36A     -0.553161
      37A     -0.531613    38A     -0.530489    39A     -0.513933
      40A     -0.504680    41A     -0.488709    42A     -0.479404
      43A     -0.473825    44A     -0.417487    45A     -0.386095
      46A     -0.336530    47A     -0.327632

  @DF-RHF Final Energy:  -553.64256515339491

   => Energetics <=

    Nuclear Repulsion Energy =            795.8667811506254566
    One-Electron Energy =               -2331.5821727480147274
    Two-Electron Energy =                 982.0728264439943587
    Total Energy =                       -553.6425651533949122
  Basis Set: (AUG-CC-PVTZ AUX)
    Blend: AUG-CC-PVTZ-RI
    Molecular point group: c1

    Geometry (in Angstrom), charge = 0, multiplicity = 1:

       Center              X                  Y                   Z               Mass
    ------------   -----------------  -----------------  -----------------  -----------------
         O            0.326203926825     2.352307113398    -1.027892880092    15.994914619570
         N            1.801429926825     1.230581113398     0.300557119908    14.003074004430
         C            1.541848926825    -1.350170886602    -0.791091880092    12.000000000000
         C            2.521347926825    -1.145466886602     0.375158119908    12.000000000000
         C            0.106781926825    -1.102549886602    -0.395216880092    12.000000000000
         C           -0.346246073175     0.210721113398    -0.152380880092    12.000000000000
         C            2.163139926825     0.116663113398     1.163693119908    12.000000000000
         C           -1.684205073175     0.469555113398     0.202043119908    12.000000000000
         C            0.600586926825     1.361269113398    -0.343095880092    12.000000000000
         C           -0.792613073175    -2.164186886602    -0.254103880092    12.000000000000
         C           -2.550487073175    -0.620655886602     0.342273119908    12.000000000000
         C           -2.116324073175    -1.926528886602     0.112031119908    12.000000000000
         C           -2.187477073175     1.871850113398     0.433500119908    12.000000000000
         H            1.643670926825    -2.366901886602    -1.186949880092     1.007825032230
         H            1.815386926825    -0.669129886602    -1.604683880092     1.007825032230
         H            2.491612926825    -2.004817886602     1.056798119908     1.007825032230
         H            3.542766926825    -1.076559886602    -0.018056880092     1.007825032230
         H            1.320203926825    -0.093028886602     1.829178119908     1.007825032230
         H            2.997634926825     0.437398113398     1.794366119908     1.007825032230
         H            2.456197926825     1.988181113398     0.137601119908     1.007825032230
         H           -0.453953073175    -3.180968886602    -0.447038880092     1.007825032230
         H           -3.585768073175    -0.440336886602     0.626338119908     1.007825032230
         H           -2.822645073175    -2.772713986602     0.222784719908     1.007825032230
         H           -1.540366073175     2.422909113398     1.122154119908     1.007825032230
         H           -2.207806073175     2.436674113398    -0.500854880092     1.007825032230
         H           -3.195595073175     1.843632113398     0.856562119908     1.007825032230

  Basis Set: AUG-CC-PVTZ
    Blend: AUG-CC-PVTZ
  Basis Set: (AUG-CC-PVTZ AUX)
    Blend: AUG-CC-PVTZ-JKFIT
	 Reference Energy          =    -553.6425651533949122 [Eh]
	 Singles Energy            =      -0.0000000000000000 [Eh]
	 Same-Spin Energy          =      -0.6042235460600979 [Eh]
	 Opposite-Spin Energy      =      -1.9032586947757226 [Eh]
	 Correlation Energy        =      -2.5074822408358206 [Eh]
	 Total Energy              =    -556.1500473942306826 [Eh]

	 ================> DF-SCS-MP2 Energies <==================
	-----------------------------------------------------------
	 SCS Same-Spin Scale       =       0.3333333333333333 [-]
	 SCS Opposite-Spin Scale   =       1.2000000000000000 [-]
	 SCS Same-Spin Energy      =      -0.2014078486866993 [Eh]
	 SCS Opposite-Spin Energy  =      -2.2839104337308669 [Eh]
	 SCS Correlation Energy    =      -2.4853182824175661 [Eh]
	 SCS Total Energy          =    -556.1278834358124641 [Eh]
	-----------------------------------------------------------

  Dipole Moment: [D]
     X:     1.7343      Y:    -2.5321      Z:     2.2042     Total:     3.7786

*** Psi4 exiting successfully. Buy a developer a beer!
