                               Psi4 1.4a3.dev225

  ==> Input File <==

--------------------------------------------------------------------------
#psi4
#
memory 32 gb

molecule  {
0 1
  O        0.3130990     2.3704440    -1.0483590
  N        1.7883250     1.2487180     0.2800910
  C        1.5287440    -1.3320340    -0.8115580
  C        2.5082430    -1.1273300     0.3546920
  C        0.0936770    -1.0844130    -0.4156830
  C       -0.3593510     0.2288580    -0.1728470
  C        2.1952397     0.1566138     1.1509412
  C       -1.6973100     0.4876920     0.1815770
  C        0.5874820     1.3794060    -0.3635620
  C       -0.8057180    -2.1460500    -0.2745700
  C       -2.5635920    -0.6025190     0.3218070
  C       -2.1294290    -1.9083920     0.0915650
  C       -2.2005820     1.8899870     0.4130340
  H        1.6305660    -2.3487650    -1.2074160
  H        1.8022820    -0.6509930    -1.6251500
  H        2.4785080    -1.9866810     1.0363320
  H        3.5296620    -1.0584230    -0.0385230
  H        1.3070990    -0.0748920     1.8087120
  H        2.9845300     0.4555350     1.7739000
  H        2.4430930     2.0063180     0.1171350
  H       -0.4670580    -3.1628320    -0.4675050
  H       -3.5988730    -0.4222000     0.6058720
  H       -2.8229980    -2.7393000     0.2003190
  H       -1.5534710     2.4410460     1.1016880
  H       -2.2209110     2.4548110    -0.5213210
  H       -3.2087000     1.8617690     0.8360960
units angstrom
no_reorient  #important for SAPT in psi4, default
symmetry c1  #important for SAPT in psi4, default
}

set PROPERTIES_ORIGIN ["COM"]
properties('MP2/aug-cc-pvtz', properties = ['dipole'])
--------------------------------------------------------------------------

    Molecular point group: c1
  Charge       = 0
  Multiplicity = 1
  Basis Set: AUG-CC-PVTZ
    Blend: AUG-CC-PVTZ
  Basis Set: (AUG-CC-PVTZ AUX)
    Blend: AUG-CC-PVTZ-JKFIT

    Orbital Energies [Eh]
    ---------------------

    Doubly Occupied:

       1A    -20.513104     2A    -15.583171     3A    -11.351459
       4A    -11.274980     5A    -11.254270     6A    -11.253367
       7A    -11.244291     8A    -11.241913     9A    -11.238859
      10A    -11.237866    11A    -11.235103    12A    -11.232520
      13A    -11.215796    14A     -1.367823    15A     -1.234786
      16A     -1.163607    17A     -1.083561    18A     -1.044466
      19A     -1.028597    20A     -0.943241    21A     -0.934178
      22A     -0.874602    23A     -0.828934    24A     -0.785277
      25A     -0.768748    26A     -0.694585    27A     -0.682880
      28A     -0.663462    29A     -0.658000    30A     -0.619348
      31A     -0.615755    32A     -0.589088    33A     -0.584067
      34A     -0.570598    35A     -0.565047    36A     -0.552852
      37A     -0.533208    38A     -0.529709    39A     -0.512495
      40A     -0.504520    41A     -0.491707    42A     -0.479021
      43A     -0.472342    44A     -0.418170    45A     -0.383997
      46A     -0.336273    47A     -0.327374

  @DF-RHF Final Energy:  -553.64031757480132

   => Energetics <=

    Nuclear Repulsion Energy =            795.2723116537712258
    One-Electron Energy =               -2330.3872299138247399
    Two-Electron Energy =                 981.4746006852520850
    Total Energy =                       -553.6403175748013155
  Basis Set: (AUG-CC-PVTZ AUX)
    Blend: AUG-CC-PVTZ-RI
    Molecular point group: c1

    Geometry (in Angstrom), charge = 0, multiplicity = 1:

       Center              X                  Y                   Z               Mass
    ------------   -----------------  -----------------  -----------------  -----------------
         O            0.323032544234     2.350724231065    -1.028410043433    15.994914619570
         N            1.798258544234     1.228998231065     0.300039956567    14.003074004430
         C            1.538677544234    -1.351753768935    -0.791609043433    12.000000000000
         C            2.518176544234    -1.147049768935     0.374640956567    12.000000000000
         C            0.103610544234    -1.104132768935    -0.395734043433    12.000000000000
         C           -0.349417455766     0.209138231065    -0.152898043433    12.000000000000
         C            2.205173244234     0.136894031065     1.170890156567    12.000000000000
         C           -1.687376455766     0.467972231065     0.201525956567    12.000000000000
         C            0.597415544234     1.359686231065    -0.343613043433    12.000000000000
         C           -0.795784455766    -2.165769768935    -0.254621043433    12.000000000000
         C           -2.553658455766    -0.622238768935     0.341755956567    12.000000000000
         C           -2.119495455766    -1.928111768935     0.111513956567    12.000000000000
         C           -2.190648455766     1.870267231065     0.432982956567    12.000000000000
         H            1.640499544234    -2.368484768935    -1.187467043433     1.007825032230
         H            1.812215544234    -0.670712768935    -1.605201043433     1.007825032230
         H            2.488441544234    -2.006400768935     1.056280956567     1.007825032230
         H            3.539595544234    -1.078142768935    -0.018574043433     1.007825032230
         H            1.317032544234    -0.094611768935     1.828660956567     1.007825032230
         H            2.994463544234     0.435815231065     1.793848956567     1.007825032230
         H            2.453026544234     1.986598231065     0.137083956567     1.007825032230
         H           -0.457124455766    -3.182551768935    -0.447556043433     1.007825032230
         H           -3.588939455766    -0.441919768935     0.625820956567     1.007825032230
         H           -2.813064455766    -2.759019768935     0.220267956567     1.007825032230
         H           -1.543537455766     2.421326231065     1.121636956567     1.007825032230
         H           -2.210977455766     2.435091231065    -0.501372043433     1.007825032230
         H           -3.198766455766     1.842049231065     0.856044956567     1.007825032230

  Basis Set: AUG-CC-PVTZ
    Blend: AUG-CC-PVTZ
  Basis Set: (AUG-CC-PVTZ AUX)
    Blend: AUG-CC-PVTZ-JKFIT
	 Reference Energy          =    -553.6403175748013155 [Eh]
	 Singles Energy            =      -0.0000000000000000 [Eh]
	 Same-Spin Energy          =      -0.6040918667991149 [Eh]
	 Opposite-Spin Energy      =      -1.9030670976968671 [Eh]
	 Correlation Energy        =      -2.5071589644959822 [Eh]
	 Total Energy              =    -556.1474765392972586 [Eh]

	 ================> DF-SCS-MP2 Energies <==================
	-----------------------------------------------------------
	 SCS Same-Spin Scale       =       0.3333333333333333 [-]
	 SCS Opposite-Spin Scale   =       1.2000000000000000 [-]
	 SCS Same-Spin Energy      =      -0.2013639555997049 [Eh]
	 SCS Opposite-Spin Energy  =      -2.2836805172362404 [Eh]
	 SCS Correlation Energy    =      -2.4850444728359453 [Eh]
	 SCS Total Energy          =    -556.1253620476372816 [Eh]
	-----------------------------------------------------------

  Dipole Moment: [D]
     X:     1.7529      Y:    -2.5176      Z:     2.2018     Total:     3.7761

*** Psi4 exiting successfully. Buy a developer a beer!
