                               Psi4 1.4a3.dev225

  ==> Input File <==

--------------------------------------------------------------------------
#psi4
#
memory 32 gb

molecule  {
0 1
  O        0.3130990     2.3704440    -1.0483590
  N        1.7883250     1.2487180     0.2800910
  C        1.5287440    -1.3320340    -0.8115580
  C        2.5082430    -1.1273300     0.3546920
  C        0.0936770    -1.0844130    -0.4156830
  C       -0.3593510     0.2288580    -0.1728470
  C        2.1500350     0.1348000     1.1432270
  C       -1.6973100     0.4876920     0.1815770
  C        0.5874820     1.3794060    -0.3635620
  C       -0.8700278    -2.2219607    -0.2644799
  C       -2.5635920    -0.6025190     0.3218070
  C       -2.1294290    -1.9083920     0.0915650
  C       -2.2005820     1.8899870     0.4130340
  H        1.6305660    -2.3487650    -1.2074160
  H        1.8022820    -0.6509930    -1.6251500
  H        2.4785080    -1.9866810     1.0363320
  H        3.5296620    -1.0584230    -0.0385230
  H        1.3070990    -0.0748920     1.8087120
  H        2.9845300     0.4555350     1.7739000
  H        2.4430930     2.0063180     0.1171350
  H       -0.4670580    -3.1628320    -0.4675050
  H       -3.5988730    -0.4222000     0.6058720
  H       -2.8229980    -2.7393000     0.2003190
  H       -1.5534710     2.4410460     1.1016880
  H       -2.2209110     2.4548110    -0.5213210
  H       -3.2087000     1.8617690     0.8360960
units angstrom
no_reorient  #important for SAPT in psi4, default
symmetry c1  #important for SAPT in psi4, default
}

set PROPERTIES_ORIGIN ["COM"]
properties('MP2/aug-cc-pvtz', properties = ['dipole'])
--------------------------------------------------------------------------

    Molecular point group: c1
  Charge       = 0
  Multiplicity = 1
  Basis Set: AUG-CC-PVTZ
    Blend: AUG-CC-PVTZ
  Basis Set: (AUG-CC-PVTZ AUX)
    Blend: AUG-CC-PVTZ-JKFIT

    Orbital Energies [Eh]
    ---------------------

    Doubly Occupied:

       1A    -20.513066     2A    -15.583580     3A    -11.350811
       4A    -11.275197     5A    -11.264899     6A    -11.253597
       7A    -11.242338     8A    -11.239885     9A    -11.238971
      10A    -11.238508    11A    -11.236246    12A    -11.231022
      13A    -11.215753    14A     -1.368005    15A     -1.235626
      16A     -1.159265    17A     -1.083163    18A     -1.050642
      19A     -1.025677    20A     -0.943112    21A     -0.931752
      22A     -0.873844    23A     -0.829330    24A     -0.782868
      25A     -0.772245    26A     -0.697088    27A     -0.683880
      28A     -0.660571    29A     -0.657485    30A     -0.619929
      31A     -0.616709    32A     -0.593194    33A     -0.584278
      34A     -0.573567    35A     -0.565328    36A     -0.551917
      37A     -0.532396    38A     -0.530464    39A     -0.514950
      40A     -0.501775    41A     -0.485315    42A     -0.478777
      43A     -0.475572    44A     -0.416118    45A     -0.386514
      46A     -0.344125    47A     -0.318018

  @DF-RHF Final Energy:  -553.63178548713472

   => Energetics <=

    Nuclear Repulsion Energy =            794.3514913185275645
    One-Electron Energy =               -2328.5118109814306990
    Two-Electron Energy =                 980.5285341757683000
    Total Energy =                       -553.6317854871347208
  Basis Set: (AUG-CC-PVTZ AUX)
    Blend: AUG-CC-PVTZ-RI
    Molecular point group: c1

    Geometry (in Angstrom), charge = 0, multiplicity = 1:

       Center              X                  Y                   Z               Mass
    ------------   -----------------  -----------------  -----------------  -----------------
         O            0.330537833476     2.357421523556    -1.028572869513    15.994914619570
         N            1.805763833476     1.235695523556     0.299877130487    14.003074004430
         C            1.546182833476    -1.345056476444    -0.791771869513    12.000000000000
         C            2.525681833476    -1.140352476444     0.374478130487    12.000000000000
         C            0.111115833476    -1.097435476444    -0.395896869513    12.000000000000
         C           -0.341912166524     0.215835523556    -0.153060869513    12.000000000000
         C            2.167473833476     0.121777523556     1.163013130487    12.000000000000
         C           -1.679871166524     0.474669523556     0.201363130487    12.000000000000
         C            0.604920833476     1.366383523556    -0.343775869513    12.000000000000
         C           -0.852588966524    -2.234983176444    -0.244693769513    12.000000000000
         C           -2.546153166524    -0.615541476444     0.341593130487    12.000000000000
         C           -2.111990166524    -1.921414476444     0.111351130487    12.000000000000
         C           -2.183143166524     1.876964523556     0.432820130487    12.000000000000
         H            1.648004833476    -2.361787476444    -1.187629869513     1.007825032230
         H            1.819720833476    -0.664015476444    -1.605363869513     1.007825032230
         H            2.495946833476    -1.999703476444     1.056118130487     1.007825032230
         H            3.547100833476    -1.071445476444    -0.018736869513     1.007825032230
         H            1.324537833476    -0.087914476444     1.828498130487     1.007825032230
         H            3.001968833476     0.442512523556     1.793686130487     1.007825032230
         H            2.460531833476     1.993295523556     0.136921130487     1.007825032230
         H           -0.449619166524    -3.175854476444    -0.447718869513     1.007825032230
         H           -3.581434166524    -0.435222476444     0.625658130487     1.007825032230
         H           -2.805559166524    -2.752322476444     0.220105130487     1.007825032230
         H           -1.536032166524     2.428023523556     1.121474130487     1.007825032230
         H           -2.203472166524     2.441788523556    -0.501534869513     1.007825032230
         H           -3.191261166524     1.848746523556     0.855882130487     1.007825032230

  Basis Set: AUG-CC-PVTZ
    Blend: AUG-CC-PVTZ
  Basis Set: (AUG-CC-PVTZ AUX)
    Blend: AUG-CC-PVTZ-JKFIT
	 Reference Energy          =    -553.6317854871347208 [Eh]
	 Singles Energy            =      -0.0000000000000000 [Eh]
	 Same-Spin Energy          =      -0.6039484261947937 [Eh]
	 Opposite-Spin Energy      =      -1.9035128045548764 [Eh]
	 Correlation Energy        =      -2.5074612307496702 [Eh]
	 Total Energy              =    -556.1392467178843617 [Eh]

	 ================> DF-SCS-MP2 Energies <==================
	-----------------------------------------------------------
	 SCS Same-Spin Scale       =       0.3333333333333333 [-]
	 SCS Opposite-Spin Scale   =       1.2000000000000000 [-]
	 SCS Same-Spin Energy      =      -0.2013161420649312 [Eh]
	 SCS Opposite-Spin Energy  =      -2.2842153654658515 [Eh]
	 SCS Correlation Energy    =      -2.4855315075307827 [Eh]
	 SCS Total Energy          =    -556.1173169946655435 [Eh]
	-----------------------------------------------------------

  Dipole Moment: [D]
     X:     1.7758      Y:    -2.5492      Z:     2.1922     Total:     3.8023

*** Psi4 exiting successfully. Buy a developer a beer!
