                               Psi4 1.4a3.dev225

  ==> Input File <==

--------------------------------------------------------------------------
#psi4
#
memory 32 gb

molecule  {
0 1
  O        0.3130990     2.3704440    -1.0483590
  N        1.7883250     1.2487180     0.2800910
  C        1.5287440    -1.3320340    -0.8115580
  C        2.5082430    -1.1273300     0.3546920
  C        0.0936770    -1.0844130    -0.4156830
  C       -0.3593510     0.2288580    -0.1728470
  C        2.1500350     0.1348000     1.1432270
  C       -1.6973100     0.4876920     0.1815770
  C        0.5874820     1.3794060    -0.3635620
  C       -0.8057180    -2.1460500    -0.2745700
  C       -2.5635920    -0.6025190     0.3218070
  C       -2.1294290    -1.9083920     0.0915650
  C       -2.2005820     1.8899870     0.4130340
  H        1.6305660    -2.3487650    -1.2074160
  H        1.8022820    -0.6509930    -1.6251500
  H        2.4785080    -1.9866810     1.0363320
  H        3.5296620    -1.0584230    -0.0385230
  H        1.3290585    -0.0652985     1.8384538
  H        2.9845300     0.4555350     1.7739000
  H        2.4430930     2.0063180     0.1171350
  H       -0.4670580    -3.1628320    -0.4675050
  H       -3.5988730    -0.4222000     0.6058720
  H       -2.8229980    -2.7393000     0.2003190
  H       -1.5534710     2.4410460     1.1016880
  H       -2.2209110     2.4548110    -0.5213210
  H       -3.2087000     1.8617690     0.8360960
units angstrom
no_reorient  #important for SAPT in psi4, default
symmetry c1  #important for SAPT in psi4, default
}

set PROPERTIES_ORIGIN ["COM"]
properties('MP2/aug-cc-pvtz', properties = ['dipole'])
--------------------------------------------------------------------------

    Molecular point group: c1
  Charge       = 0
  Multiplicity = 1
  Basis Set: AUG-CC-PVTZ
    Blend: AUG-CC-PVTZ
  Basis Set: (AUG-CC-PVTZ AUX)
    Blend: AUG-CC-PVTZ-JKFIT

    Orbital Energies [Eh]
    ---------------------

    Doubly Occupied:

       1A    -20.512796     2A    -15.583303     3A    -11.350341
       4A    -11.274924     5A    -11.254195     6A    -11.253363
       7A    -11.244272     8A    -11.241916     9A    -11.238299
      10A    -11.237646    11A    -11.235164    12A    -11.232586
      13A    -11.215843    14A     -1.367649    15A     -1.235268
      16A     -1.163573    17A     -1.084524    18A     -1.044625
      19A     -1.028692    20A     -0.943129    21A     -0.933305
      22A     -0.873651    23A     -0.830089    24A     -0.784800
      25A     -0.769796    26A     -0.693482    27A     -0.684000
      28A     -0.659598    29A     -0.658965    30A     -0.619961
      31A     -0.614956    32A     -0.590948    33A     -0.583438
      34A     -0.569925    35A     -0.565924    36A     -0.552993
      37A     -0.531415    38A     -0.529987    39A     -0.514389
      40A     -0.505164    41A     -0.488291    42A     -0.479331
      43A     -0.473632    44A     -0.417472    45A     -0.386648
      46A     -0.336347    47A     -0.327409

  @DF-RHF Final Energy:  -553.64317902784092

   => Energetics <=

    Nuclear Repulsion Energy =            795.8622094608994075
    One-Electron Energy =               -2331.5747297693083055
    Two-Electron Energy =                 982.0693412805678690
    Total Energy =                       -553.6431790278409153
  Basis Set: (AUG-CC-PVTZ AUX)
    Blend: AUG-CC-PVTZ-RI
    Molecular point group: c1

    Geometry (in Angstrom), charge = 0, multiplicity = 1:

       Center              X                  Y                   Z               Mass
    ------------   -----------------  -----------------  -----------------  -----------------
         O            0.326004137130     2.352163965173    -1.028052556445    15.994914619570
         N            1.801230137130     1.230437965173     0.300397443555    14.003074004430
         C            1.541649137130    -1.350314034827    -0.791251556445    12.000000000000
         C            2.521148137130    -1.145610034827     0.374998443555    12.000000000000
         C            0.106582137130    -1.102693034827    -0.395376556445    12.000000000000
         C           -0.346445862870     0.210577965173    -0.152540556445    12.000000000000
         C            2.162940137130     0.116519965173     1.163533443555    12.000000000000
         C           -1.684404862870     0.469411965173     0.201883443555    12.000000000000
         C            0.600387137130     1.361125965173    -0.343255556445    12.000000000000
         C           -0.792812862870    -2.164330034827    -0.254263556445    12.000000000000
         C           -2.550686862870    -0.620799034827     0.342113443555    12.000000000000
         C           -2.116523862870    -1.926672034827     0.111871443555    12.000000000000
         C           -2.187676862870     1.871706965173     0.433340443555    12.000000000000
         H            1.643471137130    -2.367045034827    -1.187109556445     1.007825032230
         H            1.815187137130    -0.669273034827    -1.604843556445     1.007825032230
         H            2.491413137130    -2.004961034827     1.056638443555     1.007825032230
         H            3.542567137130    -1.076703034827    -0.018216556445     1.007825032230
         H            1.341963637130    -0.083578534827     1.858760243555     1.007825032230
         H            2.997435137130     0.437254965173     1.794206443555     1.007825032230
         H            2.455998137130     1.988037965173     0.137441443555     1.007825032230
         H           -0.454152862870    -3.181112034827    -0.447198556445     1.007825032230
         H           -3.585967862870    -0.440480034827     0.626178443555     1.007825032230
         H           -2.810092862870    -2.757580034827     0.220625443555     1.007825032230
         H           -1.540565862870     2.422765965173     1.121994443555     1.007825032230
         H           -2.208005862870     2.436530965173    -0.501014556445     1.007825032230
         H           -3.195794862870     1.843488965173     0.856402443555     1.007825032230

  Basis Set: AUG-CC-PVTZ
    Blend: AUG-CC-PVTZ
  Basis Set: (AUG-CC-PVTZ AUX)
    Blend: AUG-CC-PVTZ-JKFIT
	 Reference Energy          =    -553.6431790278409153 [Eh]
	 Singles Energy            =      -0.0000000000000000 [Eh]
	 Same-Spin Energy          =      -0.6041155842644439 [Eh]
	 Opposite-Spin Energy      =      -1.9029865260932972 [Eh]
	 Correlation Energy        =      -2.5071021103577413 [Eh]
	 Total Energy              =    -556.1502811381986930 [Eh]

	 ================> DF-SCS-MP2 Energies <==================
	-----------------------------------------------------------
	 SCS Same-Spin Scale       =       0.3333333333333333 [-]
	 SCS Opposite-Spin Scale   =       1.2000000000000000 [-]
	 SCS Same-Spin Energy      =      -0.2013718614214813 [Eh]
	 SCS Opposite-Spin Energy  =      -2.2835838313119567 [Eh]
	 SCS Correlation Energy    =      -2.4849556927334380 [Eh]
	 SCS Total Energy          =    -556.1281347205743941 [Eh]
	-----------------------------------------------------------

  Dipole Moment: [D]
     X:     1.7359      Y:    -2.5343      Z:     2.2171     Total:     3.7884

*** Psi4 exiting successfully. Buy a developer a beer!
