                               Psi4 1.4a3.dev225

  ==> Input File <==

--------------------------------------------------------------------------
#psi4
#
memory 32 gb

molecule  {
0 1
  O        0.3130990     2.3704440    -1.0483590
  N        1.7883250     1.2487180     0.2800910
  C        1.5287440    -1.3320340    -0.8115580
  C        2.5082430    -1.1273300     0.3546920
  C        0.0936770    -1.0844130    -0.4156830
  C       -0.3593510     0.2288580    -0.1728470
  C        2.1500350     0.1348000     1.1432270
  C       -1.6973100     0.4876920     0.1815770
  C        0.5874820     1.3794060    -0.3635620
  C       -0.8057180    -2.1460500    -0.2745700
  C       -2.5635920    -0.6025190     0.3218070
  C       -2.0344593    -1.9254428     0.0652966
  C       -2.2005820     1.8899870     0.4130340
  H        1.6305660    -2.3487650    -1.2074160
  H        1.8022820    -0.6509930    -1.6251500
  H        2.4785080    -1.9866810     1.0363320
  H        3.5296620    -1.0584230    -0.0385230
  H        1.3070990    -0.0748920     1.8087120
  H        2.9845300     0.4555350     1.7739000
  H        2.4430930     2.0063180     0.1171350
  H       -0.4670580    -3.1628320    -0.4675050
  H       -3.5988730    -0.4222000     0.6058720
  H       -2.8229980    -2.7393000     0.2003190
  H       -1.5534710     2.4410460     1.1016880
  H       -2.2209110     2.4548110    -0.5213210
  H       -3.2087000     1.8617690     0.8360960
units angstrom
no_reorient  #important for SAPT in psi4, default
symmetry c1  #important for SAPT in psi4, default
}

set PROPERTIES_ORIGIN ["COM"]
properties('MP2/aug-cc-pvtz', properties = ['dipole'])
--------------------------------------------------------------------------

    Molecular point group: c1
  Charge       = 0
  Multiplicity = 1
  Basis Set: AUG-CC-PVTZ
    Blend: AUG-CC-PVTZ
  Basis Set: (AUG-CC-PVTZ AUX)
    Blend: AUG-CC-PVTZ-JKFIT

    Orbital Energies [Eh]
    ---------------------

    Doubly Occupied:

       1A    -20.512682     2A    -15.583301     3A    -11.350420
       4A    -11.275198     5A    -11.256187     6A    -11.251440
       7A    -11.241766     8A    -11.241710     9A    -11.239073
      10A    -11.238234    11A    -11.235513    12A    -11.224509
      13A    -11.214866    14A     -1.367649    15A     -1.235577
      16A     -1.169216    17A     -1.083750    18A     -1.056251
      19A     -1.025385    20A     -0.943297    21A     -0.932373
      22A     -0.877328    23A     -0.825658    24A     -0.786962
      25A     -0.767313    26A     -0.696069    27A     -0.683675
      28A     -0.661568    29A     -0.654898    30A     -0.621805
      31A     -0.616919    32A     -0.585518    33A     -0.580836
      34A     -0.574243    35A     -0.566741    36A     -0.553160
      37A     -0.535395    38A     -0.532173    39A     -0.515016
      40A     -0.496872    41A     -0.484244    42A     -0.480765
      43A     -0.476814    44A     -0.416723    45A     -0.386209
      46A     -0.345524    47A     -0.323308

  @DF-RHF Final Energy:  -553.62965033664591

   => Energetics <=

    Nuclear Repulsion Energy =            797.2510669354167021
    One-Electron Energy =               -2334.3131665615383099
    Two-Electron Energy =                 983.4324492894756986
    Total Energy =                       -553.6296503366459092
  Basis Set: (AUG-CC-PVTZ AUX)
    Blend: AUG-CC-PVTZ-RI
    Molecular point group: c1

    Geometry (in Angstrom), charge = 0, multiplicity = 1:

       Center              X                  Y                   Z               Mass
    ------------   -----------------  -----------------  -----------------  -----------------
         O            0.319622030384     2.353387714570    -1.026081135004    15.994914619570
         N            1.794848030384     1.231661714570     0.302368864996    14.003074004430
         C            1.535267030384    -1.349090285430    -0.789280135004    12.000000000000
         C            2.514766030384    -1.144386285430     0.376969864996    12.000000000000
         C            0.100200030384    -1.101469285430    -0.393405135004    12.000000000000
         C           -0.352827969616     0.211801714570    -0.150569135004    12.000000000000
         C            2.156558030384     0.117743714570     1.165504864996    12.000000000000
         C           -1.690786969616     0.470635714570     0.203854864996    12.000000000000
         C            0.594005030384     1.362349714570    -0.341284135004    12.000000000000
         C           -0.799194969616    -2.163106285430    -0.252292135004    12.000000000000
         C           -2.557068969616    -0.619575285430     0.344084864996    12.000000000000
         C           -2.027936269616    -1.942499085430     0.087574464996    12.000000000000
         C           -2.194058969616     1.872930714570     0.435311864996    12.000000000000
         H            1.637089030384    -2.365821285430    -1.185138135004     1.007825032230
         H            1.808805030384    -0.668049285430    -1.602872135004     1.007825032230
         H            2.485031030384    -2.003737285430     1.058609864996     1.007825032230
         H            3.536185030384    -1.075479285430    -0.016245135004     1.007825032230
         H            1.313622030384    -0.091948285430     1.830989864996     1.007825032230
         H            2.991053030384     0.438478714570     1.796177864996     1.007825032230
         H            2.449616030384     1.989261714570     0.139412864996     1.007825032230
         H           -0.460534969616    -3.179888285430    -0.445227135004     1.007825032230
         H           -3.592349969616    -0.439256285430     0.628149864996     1.007825032230
         H           -2.816474969616    -2.756356285430     0.222596864996     1.007825032230
         H           -1.546947969616     2.423989714570     1.123965864996     1.007825032230
         H           -2.214387969616     2.437754714570    -0.499043135004     1.007825032230
         H           -3.202176969616     1.844712714570     0.858373864996     1.007825032230

  Basis Set: AUG-CC-PVTZ
    Blend: AUG-CC-PVTZ
  Basis Set: (AUG-CC-PVTZ AUX)
    Blend: AUG-CC-PVTZ-JKFIT
	 Reference Energy          =    -553.6296503366459092 [Eh]
	 Singles Energy            =      -0.0000000000000000 [Eh]
	 Same-Spin Energy          =      -0.6040457696977434 [Eh]
	 Opposite-Spin Energy      =      -1.9032923251597269 [Eh]
	 Correlation Energy        =      -2.5073380948574702 [Eh]
	 Total Energy              =    -556.1369884315033687 [Eh]

	 ================> DF-SCS-MP2 Energies <==================
	-----------------------------------------------------------
	 SCS Same-Spin Scale       =       0.3333333333333333 [-]
	 SCS Opposite-Spin Scale   =       1.2000000000000000 [-]
	 SCS Same-Spin Energy      =      -0.2013485898992478 [Eh]
	 SCS Opposite-Spin Energy  =      -2.2839507901916720 [Eh]
	 SCS Correlation Energy    =      -2.4852993800909200 [Eh]
	 SCS Total Energy          =    -556.1149497167368736 [Eh]
	-----------------------------------------------------------

  Dipole Moment: [D]
     X:     1.7416      Y:    -2.5173      Z:     2.2029     Total:     3.7714

*** Psi4 exiting successfully. Buy a developer a beer!
