                               Psi4 1.4a3.dev225

  ==> Input File <==

--------------------------------------------------------------------------
#psi4
#
memory 32 gb

molecule  {
0 1
  O        0.3130990     2.3704440    -1.0483590
  N        1.7883250     1.2487180     0.2800910
  C        1.5373733    -1.2801216    -0.8092430
  C        2.5082430    -1.1273300     0.3546920
  C        0.0936770    -1.0844130    -0.4156830
  C       -0.3593510     0.2288580    -0.1728470
  C        2.1500350     0.1348000     1.1432270
  C       -1.6973100     0.4876920     0.1815770
  C        0.5874820     1.3794060    -0.3635620
  C       -0.8057180    -2.1460500    -0.2745700
  C       -2.5635920    -0.6025190     0.3218070
  C       -2.1294290    -1.9083920     0.0915650
  C       -2.2005820     1.8899870     0.4130340
  H        1.6305660    -2.3487650    -1.2074160
  H        1.8022820    -0.6509930    -1.6251500
  H        2.4785080    -1.9866810     1.0363320
  H        3.5296620    -1.0584230    -0.0385230
  H        1.3070990    -0.0748920     1.8087120
  H        2.9845300     0.4555350     1.7739000
  H        2.4430930     2.0063180     0.1171350
  H       -0.4670580    -3.1628320    -0.4675050
  H       -3.5988730    -0.4222000     0.6058720
  H       -2.8229980    -2.7393000     0.2003190
  H       -1.5534710     2.4410460     1.1016880
  H       -2.2209110     2.4548110    -0.5213210
  H       -3.2087000     1.8617690     0.8360960
units angstrom
no_reorient  #important for SAPT in psi4, default
symmetry c1  #important for SAPT in psi4, default
}

set PROPERTIES_ORIGIN ["COM"]
properties('MP2/aug-cc-pvtz', properties = ['dipole'])
--------------------------------------------------------------------------

    Molecular point group: c1
  Charge       = 0
  Multiplicity = 1
  Basis Set: AUG-CC-PVTZ
    Blend: AUG-CC-PVTZ
  Basis Set: (AUG-CC-PVTZ AUX)
    Blend: AUG-CC-PVTZ-JKFIT

    Orbital Energies [Eh]
    ---------------------

    Doubly Occupied:

       1A    -20.512988     2A    -15.583225     3A    -11.350532
       4A    -11.274267     5A    -11.254318     6A    -11.253202
       7A    -11.244740     8A    -11.241477     9A    -11.238914
      10A    -11.237212    11A    -11.236210    12A    -11.232994
      13A    -11.215811    14A     -1.367897    15A     -1.236007
      16A     -1.163809    17A     -1.085759    18A     -1.045196
      19A     -1.029483    20A     -0.941835    21A     -0.933874
      22A     -0.873591    23A     -0.831532    24A     -0.784894
      25A     -0.769009    26A     -0.694455    27A     -0.682335
      28A     -0.662851    29A     -0.658844    30A     -0.618616
      31A     -0.615861    32A     -0.591728    33A     -0.584818
      34A     -0.569311    35A     -0.566403    36A     -0.550863
      37A     -0.535608    38A     -0.529445    39A     -0.515020
      40A     -0.504948    41A     -0.484448    42A     -0.479646
      43A     -0.472708    44A     -0.417838    45A     -0.386260
      46A     -0.336811    47A     -0.328033

  @DF-RHF Final Energy:  -553.63956067839615

   => Energetics <=

    Nuclear Repulsion Energy =            796.5248551905301611
    One-Electron Energy =               -2332.8775810951560743
    Two-Electron Energy =                 982.7131652262297621
    Total Energy =                       -553.6395606783961512
  Basis Set: (AUG-CC-PVTZ AUX)
    Blend: AUG-CC-PVTZ-RI
    Molecular point group: c1

    Geometry (in Angstrom), charge = 0, multiplicity = 1:

       Center              X                  Y                   Z               Mass
    ------------   -----------------  -----------------  -----------------  -----------------
         O            0.325539143416     2.348661502397    -1.028040023411    15.994914619570
         N            1.800765143416     1.226935502397     0.300409976589    14.003074004430
         C            1.549813443416    -1.301904097603    -0.788924023411    12.000000000000
         C            2.520683143416    -1.149112497603     0.375010976589    12.000000000000
         C            0.106117143416    -1.106195497603    -0.395364023411    12.000000000000
         C           -0.346910856584     0.207075502397    -0.152528023411    12.000000000000
         C            2.162475143416     0.113017502397     1.163545976589    12.000000000000
         C           -1.684869856584     0.465909502397     0.201895976589    12.000000000000
         C            0.599922143416     1.357623502397    -0.343243023411    12.000000000000
         C           -0.793277856584    -2.167832497603    -0.254251023411    12.000000000000
         C           -2.551151856584    -0.624301497603     0.342125976589    12.000000000000
         C           -2.116988856584    -1.930174497603     0.111883976589    12.000000000000
         C           -2.188141856584     1.868204502397     0.433352976589    12.000000000000
         H            1.643006143416    -2.370547497603    -1.187097023411     1.007825032230
         H            1.814722143416    -0.672775497603    -1.604831023411     1.007825032230
         H            2.490948143416    -2.008463497603     1.056650976589     1.007825032230
         H            3.542102143416    -1.080205497603    -0.018204023411     1.007825032230
         H            1.319539143416    -0.096674497603     1.829030976589     1.007825032230
         H            2.996970143416     0.433752502397     1.794218976589     1.007825032230
         H            2.455533143416     1.984535502397     0.137453976589     1.007825032230
         H           -0.454617856584    -3.184614497603    -0.447186023411     1.007825032230
         H           -3.586432856584    -0.443982497603     0.626190976589     1.007825032230
         H           -2.810557856584    -2.761082497603     0.220637976589     1.007825032230
         H           -1.541030856584     2.419263502397     1.122006976589     1.007825032230
         H           -2.208470856584     2.433028502397    -0.501002023411     1.007825032230
         H           -3.196259856584     1.839986502397     0.856414976589     1.007825032230

  Basis Set: AUG-CC-PVTZ
    Blend: AUG-CC-PVTZ
  Basis Set: (AUG-CC-PVTZ AUX)
    Blend: AUG-CC-PVTZ-JKFIT
	 Reference Energy          =    -553.6395606783961512 [Eh]
	 Singles Energy            =      -0.0000000000000000 [Eh]
	 Same-Spin Energy          =      -0.6044613990943571 [Eh]
	 Opposite-Spin Energy      =      -1.9035259446381496 [Eh]
	 Correlation Energy        =      -2.5079873437325069 [Eh]
	 Total Energy              =    -556.1475480221286034 [Eh]

	 ================> DF-SCS-MP2 Energies <==================
	-----------------------------------------------------------
	 SCS Same-Spin Scale       =       0.3333333333333333 [-]
	 SCS Opposite-Spin Scale   =       1.2000000000000000 [-]
	 SCS Same-Spin Energy      =      -0.2014871330314524 [Eh]
	 SCS Opposite-Spin Energy  =      -2.2842311335657794 [Eh]
	 SCS Correlation Energy    =      -2.4857182665972317 [Eh]
	 SCS Total Energy          =    -556.1252789449933971 [Eh]
	-----------------------------------------------------------

  Dipole Moment: [D]
     X:     1.7185      Y:    -2.5107      Z:     2.2110     Total:     3.7611

*** Psi4 exiting successfully. Buy a developer a beer!
