                               Psi4 1.4a3.dev225

  ==> Input File <==

--------------------------------------------------------------------------
#psi4
#
memory 32 gb

molecule  {
0 1
  O        0.3130990     2.3704440    -1.0483590
  N        1.7883250     1.2487180     0.2800910
  C        1.5287440    -1.3320340    -0.8115580
  C        2.5082430    -1.1273300     0.3546920
  C        0.0936770    -1.0844130    -0.4156830
  C       -0.3593510     0.2288580    -0.1728470
  C        2.1500350     0.1348000     1.1432270
  C       -1.6973100     0.4876920     0.1815770
  C        0.5874820     1.3794060    -0.3635620
  C       -0.8057180    -2.1460500    -0.2745700
  C       -2.5635920    -0.6025190     0.3218070
  C       -2.0412320    -1.8719951     0.0720399
  C       -2.2005820     1.8899870     0.4130340
  H        1.6305660    -2.3487650    -1.2074160
  H        1.8022820    -0.6509930    -1.6251500
  H        2.4785080    -1.9866810     1.0363320
  H        3.5296620    -1.0584230    -0.0385230
  H        1.3070990    -0.0748920     1.8087120
  H        2.9845300     0.4555350     1.7739000
  H        2.4430930     2.0063180     0.1171350
  H       -0.4670580    -3.1628320    -0.4675050
  H       -3.5988730    -0.4222000     0.6058720
  H       -2.8229980    -2.7393000     0.2003190
  H       -1.5534710     2.4410460     1.1016880
  H       -2.2209110     2.4548110    -0.5213210
  H       -3.2087000     1.8617690     0.8360960
units angstrom
no_reorient  #important for SAPT in psi4, default
symmetry c1  #important for SAPT in psi4, default
}

set PROPERTIES_ORIGIN ["COM"]
properties('MP2/aug-cc-pvtz', properties = ['dipole'])
--------------------------------------------------------------------------

    Molecular point group: c1
  Charge       = 0
  Multiplicity = 1
  Basis Set: AUG-CC-PVTZ
    Blend: AUG-CC-PVTZ
  Basis Set: (AUG-CC-PVTZ AUX)
    Blend: AUG-CC-PVTZ-JKFIT

    Orbital Energies [Eh]
    ---------------------

    Doubly Occupied:

       1A    -20.512474     2A    -15.583121     3A    -11.350235
       4A    -11.275166     5A    -11.255707     6A    -11.252720
       7A    -11.241742     8A    -11.240749     9A    -11.238780
      10A    -11.238080    11A    -11.231402    12A    -11.226243
      13A    -11.215421    14A     -1.367461    15A     -1.235475
      16A     -1.171656    17A     -1.085092    18A     -1.053685
      19A     -1.027883    20A     -0.943606    21A     -0.936440
      22A     -0.874443    23A     -0.826977    24A     -0.785607
      25A     -0.768118    26A     -0.697000    27A     -0.684432
      28A     -0.661663    29A     -0.653590    30A     -0.621381
      31A     -0.615850    32A     -0.585526    33A     -0.582092
      34A     -0.572229    35A     -0.568416    36A     -0.553688
      37A     -0.535366    38A     -0.532294    39A     -0.515584
      40A     -0.496329    41A     -0.485855    42A     -0.480739
      43A     -0.475852    44A     -0.416416    45A     -0.386155
      46A     -0.342439    47A     -0.327804

  @DF-RHF Final Energy:  -553.63136141745792

   => Energetics <=

    Nuclear Repulsion Energy =            797.9927153924871845
    One-Electron Energy =               -2335.7901895735903963
    Two-Electron Energy =                 984.1661127636451738
    Total Energy =                       -553.6313614174579243
  Basis Set: (AUG-CC-PVTZ AUX)
    Blend: AUG-CC-PVTZ-RI
    Molecular point group: c1

    Geometry (in Angstrom), charge = 0, multiplicity = 1:

       Center              X                  Y                   Z               Mass
    ------------   -----------------  -----------------  -----------------  -----------------
         O            0.320086179628     2.349724816526    -1.026543269396    15.994914619570
         N            1.795312179628     1.227998816526     0.301906730604    14.003074004430
         C            1.535731179628    -1.352753183474    -0.789742269396    12.000000000000
         C            2.515230179628    -1.148049183474     0.376507730604    12.000000000000
         C            0.100664179628    -1.105132183474    -0.393867269396    12.000000000000
         C           -0.352363820372     0.208138816526    -0.151031269396    12.000000000000
         C            2.157022179628     0.114080816526     1.165042730604    12.000000000000
         C           -1.690322820372     0.466972816526     0.203392730604    12.000000000000
         C            0.594469179628     1.358686816526    -0.341746269396    12.000000000000
         C           -0.798730820372    -2.166769183474    -0.252754269396    12.000000000000
         C           -2.556604820372    -0.623238183474     0.343622730604    12.000000000000
         C           -2.034244820372    -1.892714283474     0.093855630604    12.000000000000
         C           -2.193594820372     1.869267816526     0.434849730604    12.000000000000
         H            1.637553179628    -2.369484183474    -1.185600269396     1.007825032230
         H            1.809269179628    -0.671712183474    -1.603334269396     1.007825032230
         H            2.485495179628    -2.007400183474     1.058147730604     1.007825032230
         H            3.536649179628    -1.079142183474    -0.016707269396     1.007825032230
         H            1.314086179628    -0.095611183474     1.830527730604     1.007825032230
         H            2.991517179628     0.434815816526     1.795715730604     1.007825032230
         H            2.450080179628     1.985598816526     0.138950730604     1.007825032230
         H           -0.460070820372    -3.183551183474    -0.445689269396     1.007825032230
         H           -3.591885820372    -0.442919183474     0.627687730604     1.007825032230
         H           -2.816010820372    -2.760019183474     0.222134730604     1.007825032230
         H           -1.546483820372     2.420326816526     1.123503730604     1.007825032230
         H           -2.213923820372     2.434091816526    -0.499505269396     1.007825032230
         H           -3.201712820372     1.841049816526     0.857911730604     1.007825032230

  Basis Set: AUG-CC-PVTZ
    Blend: AUG-CC-PVTZ
  Basis Set: (AUG-CC-PVTZ AUX)
    Blend: AUG-CC-PVTZ-JKFIT
	 Reference Energy          =    -553.6313614174579243 [Eh]
	 Singles Energy            =      -0.0000000000000000 [Eh]
	 Same-Spin Energy          =      -0.6042688554871780 [Eh]
	 Opposite-Spin Energy      =      -1.9030131154615080 [Eh]
	 Correlation Energy        =      -2.5072819709486858 [Eh]
	 Total Energy              =    -556.1386433884066491 [Eh]

	 ================> DF-SCS-MP2 Energies <==================
	-----------------------------------------------------------
	 SCS Same-Spin Scale       =       0.3333333333333333 [-]
	 SCS Opposite-Spin Scale   =       1.2000000000000000 [-]
	 SCS Same-Spin Energy      =      -0.2014229518290593 [Eh]
	 SCS Opposite-Spin Energy  =      -2.2836157385538094 [Eh]
	 SCS Correlation Energy    =      -2.4850386903828685 [Eh]
	 SCS Total Energy          =    -556.1164001078408319 [Eh]
	-----------------------------------------------------------

  Dipole Moment: [D]
     X:     1.7612      Y:    -2.4934      Z:     2.1987     Total:     3.7620

*** Psi4 exiting successfully. Buy a developer a beer!
