                               Psi4 1.4a3.dev225

  ==> Input File <==

--------------------------------------------------------------------------
#psi4
#
memory 32 gb

molecule  {
0 1
  O        0.3130990     2.3704440    -1.0483590
  N        1.7883250     1.2487180     0.2800910
  C        1.5287440    -1.3320340    -0.8115580
  C        2.5082430    -1.1273300     0.3546920
  C        0.0746584    -1.0811313    -0.4104366
  C       -0.3593510     0.2288580    -0.1728470
  C        2.1500350     0.1348000     1.1432270
  C       -1.6973100     0.4876920     0.1815770
  C        0.5874820     1.3794060    -0.3635620
  C       -0.8057180    -2.1460500    -0.2745700
  C       -2.5635920    -0.6025190     0.3218070
  C       -2.1294290    -1.9083920     0.0915650
  C       -2.2005820     1.8899870     0.4130340
  H        1.6305660    -2.3487650    -1.2074160
  H        1.8022820    -0.6509930    -1.6251500
  H        2.4785080    -1.9866810     1.0363320
  H        3.5296620    -1.0584230    -0.0385230
  H        1.3070990    -0.0748920     1.8087120
  H        2.9845300     0.4555350     1.7739000
  H        2.4430930     2.0063180     0.1171350
  H       -0.4670580    -3.1628320    -0.4675050
  H       -3.5988730    -0.4222000     0.6058720
  H       -2.8229980    -2.7393000     0.2003190
  H       -1.5534710     2.4410460     1.1016880
  H       -2.2209110     2.4548110    -0.5213210
  H       -3.2087000     1.8617690     0.8360960
units angstrom
no_reorient  #important for SAPT in psi4, default
symmetry c1  #important for SAPT in psi4, default
}

set PROPERTIES_ORIGIN ["COM"]
properties('MP2/aug-cc-pvtz', properties = ['dipole'])
--------------------------------------------------------------------------

    Molecular point group: c1
  Charge       = 0
  Multiplicity = 1
  Basis Set: AUG-CC-PVTZ
    Blend: AUG-CC-PVTZ
  Basis Set: (AUG-CC-PVTZ AUX)
    Blend: AUG-CC-PVTZ-JKFIT

    Orbital Energies [Eh]
    ---------------------

    Doubly Occupied:

       1A    -20.513025     2A    -15.583117     3A    -11.350843
       4A    -11.274783     5A    -11.253523     6A    -11.252876
       7A    -11.244438     8A    -11.241024     9A    -11.238628
      10A    -11.237015    11A    -11.234131    12A    -11.232486
      13A    -11.215865    14A     -1.367862    15A     -1.235342
      16A     -1.165130    17A     -1.082507    18A     -1.045448
      19A     -1.029086    20A     -0.942713    21A     -0.933524
      22A     -0.873292    23A     -0.829385    24A     -0.784949
      25A     -0.771231    26A     -0.694173    27A     -0.682488
      28A     -0.659847    29A     -0.659057    30A     -0.619410
      31A     -0.614930    32A     -0.591185    33A     -0.583449
      34A     -0.570226    35A     -0.566371    36A     -0.552489
      37A     -0.531469    38A     -0.530442    39A     -0.513580
      40A     -0.505301    41A     -0.489588    42A     -0.480351
      43A     -0.470410    44A     -0.418194    45A     -0.386036
      46A     -0.337352    47A     -0.328558

  @DF-RHF Final Energy:  -553.64336619600738

   => Energetics <=

    Nuclear Repulsion Energy =            796.0753709397530429
    One-Electron Energy =               -2332.0032197381628976
    Two-Electron Energy =                 982.2844826024023632
    Total Energy =                       -553.6433661960073778
  Basis Set: (AUG-CC-PVTZ AUX)
    Blend: AUG-CC-PVTZ-RI
    Molecular point group: c1

    Geometry (in Angstrom), charge = 0, multiplicity = 1:

       Center              X                  Y                   Z               Mass
    ------------   -----------------  -----------------  -----------------  -----------------
         O            0.327433919783     2.351994279970    -1.028240919228    15.994914619570
         N            1.802659919783     1.230268279970     0.300209080772    14.003074004430
         C            1.543078919783    -1.350483720030    -0.791439919228    12.000000000000
         C            2.522577919783    -1.145779720030     0.374810080772    12.000000000000
         C            0.088993319783    -1.099581020030    -0.390318519228    12.000000000000
         C           -0.345016080217     0.210408279970    -0.152728919228    12.000000000000
         C            2.164369919783     0.116350279970     1.163345080772    12.000000000000
         C           -1.682975080217     0.469242279970     0.201695080772    12.000000000000
         C            0.601816919783     1.360956279970    -0.343443919228    12.000000000000
         C           -0.791383080217    -2.164499720030    -0.254451919228    12.000000000000
         C           -2.549257080217    -0.620968720030     0.341925080772    12.000000000000
         C           -2.115094080217    -1.926841720030     0.111683080772    12.000000000000
         C           -2.186247080217     1.871537279970     0.433152080772    12.000000000000
         H            1.644900919783    -2.367214720030    -1.187297919228     1.007825032230
         H            1.816616919783    -0.669442720030    -1.605031919228     1.007825032230
         H            2.492842919783    -2.005130720030     1.056450080772     1.007825032230
         H            3.543996919783    -1.076872720030    -0.018404919228     1.007825032230
         H            1.321433919783    -0.093341720030     1.828830080772     1.007825032230
         H            2.998864919783     0.437085279970     1.794018080772     1.007825032230
         H            2.457427919783     1.987868279970     0.137253080772     1.007825032230
         H           -0.452723080217    -3.181281720030    -0.447386919228     1.007825032230
         H           -3.584538080217    -0.440649720030     0.625990080772     1.007825032230
         H           -2.808663080217    -2.757749720030     0.220437080772     1.007825032230
         H           -1.539136080217     2.422596279970     1.121806080772     1.007825032230
         H           -2.206576080217     2.436361279970    -0.501202919228     1.007825032230
         H           -3.194365080217     1.843319279970     0.856214080772     1.007825032230

  Basis Set: AUG-CC-PVTZ
    Blend: AUG-CC-PVTZ
  Basis Set: (AUG-CC-PVTZ AUX)
    Blend: AUG-CC-PVTZ-JKFIT
	 Reference Energy          =    -553.6433661960073778 [Eh]
	 Singles Energy            =      -0.0000000000000000 [Eh]
	 Same-Spin Energy          =      -0.6039534445030462 [Eh]
	 Opposite-Spin Energy      =      -1.9027733802270936 [Eh]
	 Correlation Energy        =      -2.5067268247301397 [Eh]
	 Total Energy              =    -556.1500930207374722 [Eh]

	 ================> DF-SCS-MP2 Energies <==================
	-----------------------------------------------------------
	 SCS Same-Spin Scale       =       0.3333333333333333 [-]
	 SCS Opposite-Spin Scale   =       1.2000000000000000 [-]
	 SCS Same-Spin Energy      =      -0.2013178148343487 [Eh]
	 SCS Opposite-Spin Energy  =      -2.2833280562725125 [Eh]
	 SCS Correlation Energy    =      -2.4846458711068613 [Eh]
	 SCS Total Energy          =    -556.1280120671142413 [Eh]
	-----------------------------------------------------------

  Dipole Moment: [D]
     X:     1.7138      Y:    -2.5360      Z:     2.2065     Total:     3.7731

*** Psi4 exiting successfully. Buy a developer a beer!
