                               Psi4 1.4a3.dev225

  ==> Input File <==

--------------------------------------------------------------------------
#psi4
#
memory 32 gb

molecule  {
0 1
  O        0.2364926     2.3343036    -1.0645373
  N        1.7883250     1.2487180     0.2800910
  C        1.5287440    -1.3320340    -0.8115580
  C        2.5082430    -1.1273300     0.3546920
  C        0.0936770    -1.0844130    -0.4156830
  C       -0.3593510     0.2288580    -0.1728470
  C        2.1500350     0.1348000     1.1432270
  C       -1.6973100     0.4876920     0.1815770
  C        0.5874820     1.3794060    -0.3635620
  C       -0.8057180    -2.1460500    -0.2745700
  C       -2.5635920    -0.6025190     0.3218070
  C       -2.1294290    -1.9083920     0.0915650
  C       -2.2005820     1.8899870     0.4130340
  H        1.6305660    -2.3487650    -1.2074160
  H        1.8022820    -0.6509930    -1.6251500
  H        2.4785080    -1.9866810     1.0363320
  H        3.5296620    -1.0584230    -0.0385230
  H        1.3070990    -0.0748920     1.8087120
  H        2.9845300     0.4555350     1.7739000
  H        2.4430930     2.0063180     0.1171350
  H       -0.4670580    -3.1628320    -0.4675050
  H       -3.5988730    -0.4222000     0.6058720
  H       -2.8229980    -2.7393000     0.2003190
  H       -1.5534710     2.4410460     1.1016880
  H       -2.2209110     2.4548110    -0.5213210
  H       -3.2087000     1.8617690     0.8360960
units angstrom
no_reorient  #important for SAPT in psi4, default
symmetry c1  #important for SAPT in psi4, default
}

set PROPERTIES_ORIGIN ["COM"]
properties('MP2/aug-cc-pvtz', properties = ['dipole'])
--------------------------------------------------------------------------

    Molecular point group: c1
  Charge       = 0
  Multiplicity = 1
  Basis Set: AUG-CC-PVTZ
    Blend: AUG-CC-PVTZ
  Basis Set: (AUG-CC-PVTZ AUX)
    Blend: AUG-CC-PVTZ-JKFIT

    Orbital Energies [Eh]
    ---------------------

    Doubly Occupied:

       1A    -20.514428     2A    -15.587775     3A    -11.351257
       4A    -11.277298     5A    -11.251835     6A    -11.251070
       7A    -11.242245     8A    -11.239111     9A    -11.238385
      10A    -11.237660    11A    -11.233701    12A    -11.231113
      13A    -11.213867    14A     -1.367934    15A     -1.240085
      16A     -1.161843    17A     -1.084330    18A     -1.042742
      19A     -1.028202    20A     -0.942818    21A     -0.932548
      22A     -0.872705    23A     -0.829953    24A     -0.784518
      25A     -0.769529    26A     -0.694554    27A     -0.683621
      28A     -0.660309    29A     -0.658183    30A     -0.619532
      31A     -0.616059    32A     -0.591028    33A     -0.583946
      34A     -0.568351    35A     -0.565303    36A     -0.552792
      37A     -0.531266    38A     -0.529451    39A     -0.513508
      40A     -0.504976    41A     -0.488726    42A     -0.478018
      43A     -0.472766    44A     -0.416967    45A     -0.389817
      46A     -0.333521    47A     -0.325827

  @DF-RHF Final Energy:  -553.64144997313895

   => Energetics <=

    Nuclear Repulsion Energy =            796.5989691066183696
    One-Electron Energy =               -2333.0698962944593404
    Two-Electron Energy =                 982.8294772147020240
    Total Energy =                       -553.6414499731389469
  Basis Set: (AUG-CC-PVTZ AUX)
    Blend: AUG-CC-PVTZ-RI
    Molecular point group: c1

    Geometry (in Angstrom), charge = 0, multiplicity = 1:

       Center              X                  Y                   Z               Mass
    ------------   -----------------  -----------------  -----------------  -----------------
         O            0.256521930153     2.319380116524    -1.042581824296    15.994914619570
         N            1.808354330153     1.233794516524     0.302046475704    14.003074004430
         C            1.548773330153    -1.346957483476    -0.789602524296    12.000000000000
         C            2.528272330153    -1.142253483476     0.376647475704    12.000000000000
         C            0.113706330153    -1.099336483476    -0.393727524296    12.000000000000
         C           -0.339321669847     0.213934516524    -0.150891524296    12.000000000000
         C            2.170064330153     0.119876516524     1.165182475704    12.000000000000
         C           -1.677280669847     0.472768516524     0.203532475704    12.000000000000
         C            0.607511330153     1.364482516524    -0.341606524296    12.000000000000
         C           -0.785688669847    -2.160973483476    -0.252614524296    12.000000000000
         C           -2.543562669847    -0.617442483476     0.343762475704    12.000000000000
         C           -2.109399669847    -1.923315483476     0.113520475704    12.000000000000
         C           -2.180552669847     1.875063516524     0.434989475704    12.000000000000
         H            1.650595330153    -2.363688483476    -1.185460524296     1.007825032230
         H            1.822311330153    -0.665916483476    -1.603194524296     1.007825032230
         H            2.498537330153    -2.001604483476     1.058287475704     1.007825032230
         H            3.549691330153    -1.073346483476    -0.016567524296     1.007825032230
         H            1.327128330153    -0.089815483476     1.830667475704     1.007825032230
         H            3.004559330153     0.440611516524     1.795855475704     1.007825032230
         H            2.463122330153     1.991394516524     0.139090475704     1.007825032230
         H           -0.447028669847    -3.177755483476    -0.445549524296     1.007825032230
         H           -3.578843669847    -0.437123483476     0.627827475704     1.007825032230
         H           -2.802968669847    -2.754223483476     0.222274475704     1.007825032230
         H           -1.533441669847     2.426122516524     1.123643475704     1.007825032230
         H           -2.200881669847     2.439887516524    -0.499365524296     1.007825032230
         H           -3.188670669847     1.846845516524     0.858051475704     1.007825032230

  Basis Set: AUG-CC-PVTZ
    Blend: AUG-CC-PVTZ
  Basis Set: (AUG-CC-PVTZ AUX)
    Blend: AUG-CC-PVTZ-JKFIT
	 Reference Energy          =    -553.6414499731389469 [Eh]
	 Singles Energy            =      -0.0000000000000000 [Eh]
	 Same-Spin Energy          =      -0.6044281106461182 [Eh]
	 Opposite-Spin Energy      =      -1.9035118852474457 [Eh]
	 Correlation Energy        =      -2.5079399958935640 [Eh]
	 Total Energy              =    -556.1493899690325406 [Eh]

	 ================> DF-SCS-MP2 Energies <==================
	-----------------------------------------------------------
	 SCS Same-Spin Scale       =       0.3333333333333333 [-]
	 SCS Opposite-Spin Scale   =       1.2000000000000000 [-]
	 SCS Same-Spin Energy      =      -0.2014760368820394 [Eh]
	 SCS Opposite-Spin Energy  =      -2.2842142622969348 [Eh]
	 SCS Correlation Energy    =      -2.4856902991789740 [Eh]
	 SCS Total Energy          =    -556.1271402723178880 [Eh]
	-----------------------------------------------------------

  Dipole Moment: [D]
     X:     1.9793      Y:    -2.3926      Z:     2.2269     Total:     3.8211

*** Psi4 exiting successfully. Buy a developer a beer!
