                               Psi4 1.4a3.dev225

  ==> Input File <==

--------------------------------------------------------------------------
#psi4
#
memory 32 gb

molecule  {
0 1
  O        0.3130990     2.3704440    -1.0483590
  N        1.7883250     1.2487180     0.2800910
  C        1.5287440    -1.3320340    -0.8115580
  C        2.5082430    -1.1273300     0.3546920
  C        0.0936770    -1.0844130    -0.4156830
  C       -0.3593510     0.2288580    -0.1728470
  C        2.2400272     0.1796539     1.1574269
  C       -1.6973100     0.4876920     0.1815770
  C        0.5874820     1.3794060    -0.3635620
  C       -0.8057180    -2.1460500    -0.2745700
  C       -2.5635920    -0.6025190     0.3218070
  C       -2.1294290    -1.9083920     0.0915650
  C       -2.2005820     1.8899870     0.4130340
  H        1.6305660    -2.3487650    -1.2074160
  H        1.8022820    -0.6509930    -1.6251500
  H        2.4785080    -1.9866810     1.0363320
  H        3.5296620    -1.0584230    -0.0385230
  H        1.3070990    -0.0748920     1.8087120
  H        2.9845300     0.4555350     1.7739000
  H        2.4430930     2.0063180     0.1171350
  H       -0.4670580    -3.1628320    -0.4675050
  H       -3.5988730    -0.4222000     0.6058720
  H       -2.8229980    -2.7393000     0.2003190
  H       -1.5534710     2.4410460     1.1016880
  H       -2.2209110     2.4548110    -0.5213210
  H       -3.2087000     1.8617690     0.8360960
units angstrom
no_reorient  #important for SAPT in psi4, default
symmetry c1  #important for SAPT in psi4, default
}

set PROPERTIES_ORIGIN ["COM"]
properties('MP2/aug-cc-pvtz', properties = ['dipole'])
--------------------------------------------------------------------------

    Molecular point group: c1
  Charge       = 0
  Multiplicity = 1
  Basis Set: AUG-CC-PVTZ
    Blend: AUG-CC-PVTZ
  Basis Set: (AUG-CC-PVTZ AUX)
    Blend: AUG-CC-PVTZ-JKFIT

    Orbital Energies [Eh]
    ---------------------

    Doubly Occupied:

       1A    -20.513607     2A    -15.583626     3A    -11.352740
       4A    -11.275727     5A    -11.254311     6A    -11.253321
       7A    -11.244250     8A    -11.241925     9A    -11.239566
      10A    -11.238692    11A    -11.235002    12A    -11.232416
      13A    -11.215743    14A     -1.368176    15A     -1.234448
      16A     -1.163613    17A     -1.082651    18A     -1.044297
      19A     -1.028560    20A     -0.943889    21A     -0.935244
      22A     -0.875631    23A     -0.828336    24A     -0.785613
      25A     -0.767978    26A     -0.697061    27A     -0.685247
      28A     -0.665792    29A     -0.657010    30A     -0.620420
      31A     -0.615124    32A     -0.587136    33A     -0.583967
      34A     -0.571029    35A     -0.563897    36A     -0.552483
      37A     -0.535501    38A     -0.529121    39A     -0.510693
      40A     -0.502712    41A     -0.493509    42A     -0.478729
      43A     -0.470365    44A     -0.418941    45A     -0.381434
      46A     -0.336159    47A     -0.327295

  @DF-RHF Final Energy:  -553.63065870143657

   => Energetics <=

    Nuclear Repulsion Energy =            794.5839632804501207
    One-Electron Energy =               -2328.9832728997243976
    Two-Electron Energy =                 980.7686509178378174
    Total Energy =                       -553.6306587014365732
  Basis Set: (AUG-CC-PVTZ AUX)
    Blend: AUG-CC-PVTZ-RI
    Molecular point group: c1

    Geometry (in Angstrom), charge = 0, multiplicity = 1:

       Center              X                  Y                   Z               Mass
    ------------   -----------------  -----------------  -----------------  -----------------
         O            0.319963150301     2.349145238196    -1.028854523885    15.994914619570
         N            1.795189150301     1.227419238196     0.299595476115    14.003074004430
         C            1.535608150301    -1.353332761804    -0.792053523885    12.000000000000
         C            2.515107150301    -1.148628761804     0.374196476115    12.000000000000
         C            0.100541150301    -1.105711761804    -0.396178523885    12.000000000000
         C           -0.352486849699     0.207559238196    -0.153342523885    12.000000000000
         C            2.246891350301     0.158355138196     1.176931376115    12.000000000000
         C           -1.690445849699     0.466393238196     0.201081476115    12.000000000000
         C            0.594346150301     1.358107238196    -0.344057523885    12.000000000000
         C           -0.798853849699    -2.167348761804    -0.255065523885    12.000000000000
         C           -2.556727849699    -0.623817761804     0.341311476115    12.000000000000
         C           -2.122564849699    -1.929690761804     0.111069476115    12.000000000000
         C           -2.193717849699     1.868688238196     0.432538476115    12.000000000000
         H            1.637430150301    -2.370063761804    -1.187911523885     1.007825032230
         H            1.809146150301    -0.672291761804    -1.605645523885     1.007825032230
         H            2.485372150301    -2.007979761804     1.055836476115     1.007825032230
         H            3.536526150301    -1.079721761804    -0.019018523885     1.007825032230
         H            1.313963150301    -0.096190761804     1.828216476115     1.007825032230
         H            2.991394150301     0.434236238196     1.793404476115     1.007825032230
         H            2.449957150301     1.985019238196     0.136639476115     1.007825032230
         H           -0.460193849699    -3.184130761804    -0.448000523885     1.007825032230
         H           -3.592008849699    -0.443498761804     0.625376476115     1.007825032230
         H           -2.816133849699    -2.760598761804     0.219823476115     1.007825032230
         H           -1.546606849699     2.419747238196     1.121192476115     1.007825032230
         H           -2.214046849699     2.433512238196    -0.501816523885     1.007825032230
         H           -3.201835849699     1.840470238196     0.855600476115     1.007825032230

  Basis Set: AUG-CC-PVTZ
    Blend: AUG-CC-PVTZ
  Basis Set: (AUG-CC-PVTZ AUX)
    Blend: AUG-CC-PVTZ-JKFIT
	 Reference Energy          =    -553.6306587014365732 [Eh]
	 Singles Energy            =      -0.0000000000000000 [Eh]
	 Same-Spin Energy          =      -0.6041453898519697 [Eh]
	 Opposite-Spin Energy      =      -1.9034392682674424 [Eh]
	 Correlation Energy        =      -2.5075846581194119 [Eh]
	 Total Energy              =    -556.1382433595559860 [Eh]

	 ================> DF-SCS-MP2 Energies <==================
	-----------------------------------------------------------
	 SCS Same-Spin Scale       =       0.3333333333333333 [-]
	 SCS Opposite-Spin Scale   =       1.2000000000000000 [-]
	 SCS Same-Spin Energy      =      -0.2013817966173232 [Eh]
	 SCS Opposite-Spin Energy  =      -2.2841271219209309 [Eh]
	 SCS Correlation Energy    =      -2.4855089185382542 [Eh]
	 SCS Total Energy          =    -556.1161676199748172 [Eh]
	-----------------------------------------------------------

  Dipole Moment: [D]
     X:     1.7698      Y:    -2.4958      Z:     2.1860     Total:     3.7603

*** Psi4 exiting successfully. Buy a developer a beer!
