                               Psi4 1.4a3.dev225

  ==> Input File <==

--------------------------------------------------------------------------
#psi4
#
memory 32 gb

molecule  {
0 1
  O        0.3130990     2.3704440    -1.0483590
  N        1.7883250     1.2487180     0.2800910
  C        1.5287440    -1.3320340    -0.8115580
  C        2.5082430    -1.1273300     0.3546920
  C        0.0936770    -1.0844130    -0.4156830
  C       -0.3593510     0.2288580    -0.1728470
  C        2.1500350     0.1348000     1.1432270
  C       -1.6973100     0.4876920     0.1815770
  C        0.5874820     1.3794060    -0.3635620
  C       -0.8057180    -2.1460500    -0.2745700
  C       -2.5635920    -0.6025190     0.3218070
  C       -2.1294290    -1.9083920     0.0915650
  C       -2.2005820     1.8899870     0.4130340
  H        1.6305660    -2.3487650    -1.2074160
  H        1.8022820    -0.6509930    -1.6251500
  H        2.4790500    -1.9710176     1.0239077
  H        3.5296620    -1.0584230    -0.0385230
  H        1.3070990    -0.0748920     1.8087120
  H        2.9845300     0.4555350     1.7739000
  H        2.4430930     2.0063180     0.1171350
  H       -0.4670580    -3.1628320    -0.4675050
  H       -3.5988730    -0.4222000     0.6058720
  H       -2.8229980    -2.7393000     0.2003190
  H       -1.5534710     2.4410460     1.1016880
  H       -2.2209110     2.4548110    -0.5213210
  H       -3.2087000     1.8617690     0.8360960
units angstrom
no_reorient  #important for SAPT in psi4, default
symmetry c1  #important for SAPT in psi4, default
}

set PROPERTIES_ORIGIN ["COM"]
properties('MP2/aug-cc-pvtz', properties = ['dipole'])
--------------------------------------------------------------------------

    Molecular point group: c1
  Charge       = 0
  Multiplicity = 1
  Basis Set: AUG-CC-PVTZ
    Blend: AUG-CC-PVTZ
  Basis Set: (AUG-CC-PVTZ AUX)
    Blend: AUG-CC-PVTZ-JKFIT

    Orbital Energies [Eh]
    ---------------------

    Doubly Occupied:

       1A    -20.512599     2A    -15.582911     3A    -11.350226
       4A    -11.274752     5A    -11.254259     6A    -11.253454
       7A    -11.244376     8A    -11.241937     9A    -11.237980
      10A    -11.235241    11A    -11.235022    12A    -11.232656
      13A    -11.215863    14A     -1.367494    15A     -1.235250
      16A     -1.163652    17A     -1.084943    18A     -1.044760
      19A     -1.029072    20A     -0.943094    21A     -0.933187
      22A     -0.874004    23A     -0.830960    24A     -0.785183
      25A     -0.769847    26A     -0.693944    27A     -0.683081
      28A     -0.660318    29A     -0.658832    30A     -0.619734
      31A     -0.615574    32A     -0.591082    33A     -0.584046
      34A     -0.570065    35A     -0.566075    36A     -0.553026
      37A     -0.532455    38A     -0.530405    39A     -0.514034
      40A     -0.505781    41A     -0.489168    42A     -0.479483
      43A     -0.473719    44A     -0.417392    45A     -0.385915
      46A     -0.336399    47A     -0.327478

  @DF-RHF Final Energy:  -553.64328052891574

   => Energetics <=

    Nuclear Repulsion Energy =            796.0787813342989239
    One-Electron Energy =               -2332.0026748868094728
    Two-Electron Energy =                 982.2806130235946966
    Total Energy =                       -553.6432805289157386
  Basis Set: (AUG-CC-PVTZ AUX)
    Blend: AUG-CC-PVTZ-RI
    Molecular point group: c1

    Geometry (in Angstrom), charge = 0, multiplicity = 1:

       Center              X                  Y                   Z               Mass
    ------------   -----------------  -----------------  -----------------  -----------------
         O            0.326127410276     2.352129028525    -1.027809860154    15.994914619570
         N            1.801353410276     1.230403028525     0.300640139846    14.003074004430
         C            1.541772410276    -1.350348971475    -0.791008860154    12.000000000000
         C            2.521271410276    -1.145644971475     0.375241139846    12.000000000000
         C            0.106705410276    -1.102727971475    -0.395133860154    12.000000000000
         C           -0.346322589724     0.210543028525    -0.152297860154    12.000000000000
         C            2.163063410276     0.116485028525     1.163776139846    12.000000000000
         C           -1.684281589724     0.469377028525     0.202126139846    12.000000000000
         C            0.600510410276     1.361091028525    -0.343012860154    12.000000000000
         C           -0.792689589724    -2.164364971475    -0.254020860154    12.000000000000
         C           -2.550563589724    -0.620833971475     0.342356139846    12.000000000000
         C           -2.116400589724    -1.926706971475     0.112114139846    12.000000000000
         C           -2.187553589724     1.871672028525     0.433583139846    12.000000000000
         H            1.643594410276    -2.367079971475    -1.186866860154     1.007825032230
         H            1.815310410276    -0.669307971475    -1.604600860154     1.007825032230
         H            2.492078410276    -1.989332571475     1.044456839846     1.007825032230
         H            3.542690410276    -1.076737971475    -0.017973860154     1.007825032230
         H            1.320127410276    -0.093206971475     1.829261139846     1.007825032230
         H            2.997558410276     0.437220028525     1.794449139846     1.007825032230
         H            2.456121410276     1.988003028525     0.137684139846     1.007825032230
         H           -0.454029589724    -3.181146971475    -0.446955860154     1.007825032230
         H           -3.585844589724    -0.440514971475     0.626421139846     1.007825032230
         H           -2.809969589724    -2.757614971475     0.220868139846     1.007825032230
         H           -1.540442589724     2.422731028525     1.122237139846     1.007825032230
         H           -2.207882589724     2.436496028525    -0.500771860154     1.007825032230
         H           -3.195671589724     1.843454028525     0.856645139846     1.007825032230

  Basis Set: AUG-CC-PVTZ
    Blend: AUG-CC-PVTZ
  Basis Set: (AUG-CC-PVTZ AUX)
    Blend: AUG-CC-PVTZ-JKFIT
	 Reference Energy          =    -553.6432805289157386 [Eh]
	 Singles Energy            =      -0.0000000000000000 [Eh]
	 Same-Spin Energy          =      -0.6041757498266612 [Eh]
	 Opposite-Spin Energy      =      -1.9029479699207652 [Eh]
	 Correlation Energy        =      -2.5071237197474265 [Eh]
	 Total Energy              =    -556.1504042486632216 [Eh]

	 ================> DF-SCS-MP2 Energies <==================
	-----------------------------------------------------------
	 SCS Same-Spin Scale       =       0.3333333333333333 [-]
	 SCS Opposite-Spin Scale   =       1.2000000000000000 [-]
	 SCS Same-Spin Energy      =      -0.2013919166088871 [Eh]
	 SCS Opposite-Spin Energy  =      -2.2835375639049182 [Eh]
	 SCS Correlation Energy    =      -2.4849294805138054 [Eh]
	 SCS Total Energy          =    -556.1282100094294947 [Eh]
	-----------------------------------------------------------

  Dipole Moment: [D]
     X:     1.7338      Y:    -2.5490      Z:     2.2134     Total:     3.7951

*** Psi4 exiting successfully. Buy a developer a beer!
