                               Psi4 1.4a3.dev225

  ==> Input File <==

--------------------------------------------------------------------------
#psi4
#
memory 32 gb

molecule  {
0 1
  O        0.3130990     2.3704440    -1.0483590
  N        1.7883250     1.2487180     0.2800910
  C        1.5287440    -1.3320340    -0.8115580
  C        2.5082430    -1.1273300     0.3546920
  C        0.0936770    -1.0844130    -0.4156830
  C       -0.3593510     0.2288580    -0.1728470
  C        2.1500350     0.1348000     1.1432270
  C       -1.6973100     0.4876920     0.1815770
  C        0.5874820     1.3794060    -0.3635620
  C       -0.8185800    -2.1612321    -0.2725520
  C       -2.5635920    -0.6025190     0.3218070
  C       -2.1294290    -1.9083920     0.0915650
  C       -2.2005820     1.8899870     0.4130340
  H        1.6305660    -2.3487650    -1.2074160
  H        1.8022820    -0.6509930    -1.6251500
  H        2.4785080    -1.9866810     1.0363320
  H        3.5296620    -1.0584230    -0.0385230
  H        1.3070990    -0.0748920     1.8087120
  H        2.9845300     0.4555350     1.7739000
  H        2.4430930     2.0063180     0.1171350
  H       -0.4670580    -3.1628320    -0.4675050
  H       -3.5988730    -0.4222000     0.6058720
  H       -2.8229980    -2.7393000     0.2003190
  H       -1.5534710     2.4410460     1.1016880
  H       -2.2209110     2.4548110    -0.5213210
  H       -3.2087000     1.8617690     0.8360960
units angstrom
no_reorient  #important for SAPT in psi4, default
symmetry c1  #important for SAPT in psi4, default
}

set PROPERTIES_ORIGIN ["COM"]
properties('MP2/aug-cc-pvtz', properties = ['dipole'])
--------------------------------------------------------------------------

    Molecular point group: c1
  Charge       = 0
  Multiplicity = 1
  Basis Set: AUG-CC-PVTZ
    Blend: AUG-CC-PVTZ
  Basis Set: (AUG-CC-PVTZ AUX)
    Blend: AUG-CC-PVTZ-JKFIT

    Orbital Energies [Eh]
    ---------------------

    Doubly Occupied:

       1A    -20.512795     2A    -15.583179     3A    -11.350440
       4A    -11.274974     5A    -11.256713     6A    -11.253471
       7A    -11.243247     8A    -11.242088     9A    -11.238605
      10A    -11.237644    11A    -11.235537    12A    -11.232344
      13A    -11.215853    14A     -1.367694    15A     -1.235427
      16A     -1.162644    17A     -1.084240    18A     -1.045785
      19A     -1.028134    20A     -0.943124    21A     -0.932737
      22A     -0.873780    23A     -0.829938    24A     -0.784492
      25A     -0.770329    26A     -0.694385    27A     -0.683143
      28A     -0.660070    29A     -0.658615    30A     -0.619405
      31A     -0.615302    32A     -0.591473    33A     -0.583991
      34A     -0.570874    35A     -0.566147    36A     -0.552886
      37A     -0.531498    38A     -0.530731    39A     -0.514171
      40A     -0.504528    41A     -0.488168    42A     -0.479198
      43A     -0.474955    44A     -0.417306    45A     -0.386152
      46A     -0.337729    47A     -0.325559

  @DF-RHF Final Energy:  -553.64266320024262

   => Energetics <=

    Nuclear Repulsion Energy =            795.6395917802060467
    One-Electron Energy =               -2331.1215110836860731
    Two-Electron Energy =                 981.8392561032374033
    Total Energy =                       -553.6426632002426231
  Basis Set: (AUG-CC-PVTZ AUX)
    Blend: AUG-CC-PVTZ-RI
    Molecular point group: c1

    Geometry (in Angstrom), charge = 0, multiplicity = 1:

       Center              X                  Y                   Z               Mass
    ------------   -----------------  -----------------  -----------------  -----------------
         O            0.327011993338     2.353259648113    -1.028019669295    15.994914619570
         N            1.802237993338     1.231533648113     0.300430330705    14.003074004430
         C            1.542656993338    -1.349218351887    -0.791218669295    12.000000000000
         C            2.522155993338    -1.144514351887     0.375031330705    12.000000000000
         C            0.107589993338    -1.101597351887    -0.395343669295    12.000000000000
         C           -0.345438006662     0.211673648113    -0.152507669295    12.000000000000
         C            2.163947993338     0.117615648113     1.163566330705    12.000000000000
         C           -1.683397006662     0.470507648113     0.201916330705    12.000000000000
         C            0.601394993338     1.362221648113    -0.343222669295    12.000000000000
         C           -0.804667006662    -2.178416451887    -0.252212669295    12.000000000000
         C           -2.549679006662    -0.619703351887     0.342146330705    12.000000000000
         C           -2.115516006662    -1.925576351887     0.111904330705    12.000000000000
         C           -2.186669006662     1.872802648113     0.433373330705    12.000000000000
         H            1.644478993338    -2.365949351887    -1.187076669295     1.007825032230
         H            1.816194993338    -0.668177351887    -1.604810669295     1.007825032230
         H            2.492420993338    -2.003865351887     1.056671330705     1.007825032230
         H            3.543574993338    -1.075607351887    -0.018183669295     1.007825032230
         H            1.321011993338    -0.092076351887     1.829051330705     1.007825032230
         H            2.998442993338     0.438350648113     1.794239330705     1.007825032230
         H            2.457005993338     1.989133648113     0.137474330705     1.007825032230
         H           -0.453145006662    -3.180016351887    -0.447165669295     1.007825032230
         H           -3.584960006662    -0.439384351887     0.626211330705     1.007825032230
         H           -2.809085006662    -2.756484351887     0.220658330705     1.007825032230
         H           -1.539558006662     2.423861648113     1.122027330705     1.007825032230
         H           -2.206998006662     2.437626648113    -0.500981669295     1.007825032230
         H           -3.194787006662     1.844584648113     0.856435330705     1.007825032230

  Basis Set: AUG-CC-PVTZ
    Blend: AUG-CC-PVTZ
  Basis Set: (AUG-CC-PVTZ AUX)
    Blend: AUG-CC-PVTZ-JKFIT
	 Reference Energy          =    -553.6426632002426231 [Eh]
	 Singles Energy            =      -0.0000000000000000 [Eh]
	 Same-Spin Energy          =      -0.6041592206184997 [Eh]
	 Opposite-Spin Energy      =      -1.9030883322474865 [Eh]
	 Correlation Energy        =      -2.5072475528659863 [Eh]
	 Total Energy              =    -556.1499107531086565 [Eh]

	 ================> DF-SCS-MP2 Energies <==================
	-----------------------------------------------------------
	 SCS Same-Spin Scale       =       0.3333333333333333 [-]
	 SCS Opposite-Spin Scale   =       1.2000000000000000 [-]
	 SCS Same-Spin Energy      =      -0.2013864068728332 [Eh]
	 SCS Opposite-Spin Energy  =      -2.2837059986969837 [Eh]
	 SCS Correlation Energy    =      -2.4850924055698167 [Eh]
	 SCS Total Energy          =    -556.1277556058124674 [Eh]
	-----------------------------------------------------------

  Dipole Moment: [D]
     X:     1.7382      Y:    -2.5424      Z:     2.2020     Total:     3.7861

*** Psi4 exiting successfully. Buy a developer a beer!
