                               Psi4 1.4a3.dev225

  ==> Input File <==

--------------------------------------------------------------------------
#psi4
#
memory 32 gb

molecule  {
0 1
  O        0.3130990     2.3704440    -1.0483590
  N        1.7883250     1.2487180     0.2800910
  C        1.5287440    -1.3320340    -0.8115580
  C        2.5082430    -1.1273300     0.3546920
  C        0.0936770    -1.0844130    -0.4156830
  C       -0.3593510     0.2288580    -0.1728470
  C        2.1500350     0.1348000     1.1432270
  C       -1.6973100     0.4876920     0.1815770
  C        0.5874820     1.3794060    -0.3635620
  C       -0.8057180    -2.1460500    -0.2745700
  C       -2.5635920    -0.6025190     0.3218070
  C       -2.1294290    -1.9083920     0.0915650
  C       -2.2005820     1.8899870     0.4130340
  H        1.6305660    -2.3487650    -1.2074160
  H        1.8022820    -0.6509930    -1.6251500
  H        2.4785080    -1.9866810     1.0363320
  H        3.5296620    -1.0584230    -0.0385230
  H        1.3070990    -0.0748920     1.8087120
  H        2.9845300     0.4555350     1.7739000
  H        2.4430930     2.0063180     0.1171350
  H       -0.4670580    -3.1628320    -0.4675050
  H       -3.6178937    -0.4188871     0.6110910
  H       -2.8229980    -2.7393000     0.2003190
  H       -1.5534710     2.4410460     1.1016880
  H       -2.2209110     2.4548110    -0.5213210
  H       -3.2087000     1.8617690     0.8360960
units angstrom
no_reorient  #important for SAPT in psi4, default
symmetry c1  #important for SAPT in psi4, default
}

set PROPERTIES_ORIGIN ["COM"]
properties('MP2/aug-cc-pvtz', properties = ['dipole'])
--------------------------------------------------------------------------

    Molecular point group: c1
  Charge       = 0
  Multiplicity = 1
  Basis Set: AUG-CC-PVTZ
    Blend: AUG-CC-PVTZ
  Basis Set: (AUG-CC-PVTZ AUX)
    Blend: AUG-CC-PVTZ-JKFIT

    Orbital Energies [Eh]
    ---------------------

    Doubly Occupied:

       1A    -20.512765     2A    -15.583120     3A    -11.350408
       4A    -11.274960     5A    -11.254392     6A    -11.253692
       7A    -11.244603     8A    -11.242158     9A    -11.238323
      10A    -11.237457    11A    -11.235427    12A    -11.235018
      13A    -11.215869    14A     -1.367658    15A     -1.235427
      16A     -1.163725    17A     -1.084548    18A     -1.044845
      19A     -1.028473    20A     -0.943190    21A     -0.932821
      22A     -0.873561    23A     -0.829972    24A     -0.784226
      25A     -0.769858    26A     -0.692752    27A     -0.682719
      28A     -0.659924    29A     -0.658972    30A     -0.619341
      31A     -0.615281    32A     -0.591022    33A     -0.583221
      34A     -0.570137    35A     -0.565400    36A     -0.552962
      37A     -0.531583    38A     -0.529646    39A     -0.513820
      40A     -0.505468    41A     -0.488904    42A     -0.479396
      43A     -0.473531    44A     -0.417526    45A     -0.386103
      46A     -0.336562    47A     -0.327629

  @DF-RHF Final Energy:  -553.64255141911394

   => Energetics <=

    Nuclear Repulsion Energy =            795.8666243861814564
    One-Electron Energy =               -2331.5815522715765837
    Two-Electron Energy =                 982.0723764662811845
    Total Energy =                       -553.6425514191139428
  Basis Set: (AUG-CC-PVTZ AUX)
    Blend: AUG-CC-PVTZ-RI
    Molecular point group: c1

    Geometry (in Angstrom), charge = 0, multiplicity = 1:

       Center              X                  Y                   Z               Mass
    ------------   -----------------  -----------------  -----------------  -----------------
         O            0.326240007711     2.352200114552    -1.027911410059    15.994914619570
         N            1.801466007711     1.230474114552     0.300538589941    14.003074004430
         C            1.541885007711    -1.350277885448    -0.791110410059    12.000000000000
         C            2.521384007711    -1.145573885448     0.375139589941    12.000000000000
         C            0.106818007711    -1.102656885448    -0.395235410059    12.000000000000
         C           -0.346209992289     0.210614114552    -0.152399410059    12.000000000000
         C            2.163176007711     0.116556114552     1.163674589941    12.000000000000
         C           -1.684168992289     0.469448114552     0.202024589941    12.000000000000
         C            0.600623007711     1.361162114552    -0.343114410059    12.000000000000
         C           -0.792576992289    -2.164293885448    -0.254122410059    12.000000000000
         C           -2.550450992289    -0.620762885448     0.342254589941    12.000000000000
         C           -2.116287992289    -1.926635885448     0.112012589941    12.000000000000
         C           -2.187440992289     1.871743114552     0.433481589941    12.000000000000
         H            1.643707007711    -2.367008885448    -1.186968410059     1.007825032230
         H            1.815423007711    -0.669236885448    -1.604702410059     1.007825032230
         H            2.491649007711    -2.004924885448     1.056779589941     1.007825032230
         H            3.542803007711    -1.076666885448    -0.018075410059     1.007825032230
         H            1.320240007711    -0.093135885448     1.829159589941     1.007825032230
         H            2.997671007711     0.437291114552     1.794347589941     1.007825032230
         H            2.456234007711     1.988074114552     0.137582589941     1.007825032230
         H           -0.453916992289    -3.181075885448    -0.447057410059     1.007825032230
         H           -3.604752692289    -0.437130985448     0.631538589941     1.007825032230
         H           -2.809856992289    -2.757543885448     0.220766589941     1.007825032230
         H           -1.540329992289     2.422802114552     1.122135589941     1.007825032230
         H           -2.207769992289     2.436567114552    -0.500873410059     1.007825032230
         H           -3.195558992289     1.843525114552     0.856543589941     1.007825032230

  Basis Set: AUG-CC-PVTZ
    Blend: AUG-CC-PVTZ
  Basis Set: (AUG-CC-PVTZ AUX)
    Blend: AUG-CC-PVTZ-JKFIT
	 Reference Energy          =    -553.6425514191139428 [Eh]
	 Singles Energy            =      -0.0000000000000000 [Eh]
	 Same-Spin Energy          =      -0.6042332197878253 [Eh]
	 Opposite-Spin Energy      =      -1.9032519035833892 [Eh]
	 Correlation Energy        =      -2.5074851233712145 [Eh]
	 Total Energy              =    -556.1500365424851680 [Eh]

	 ================> DF-SCS-MP2 Energies <==================
	-----------------------------------------------------------
	 SCS Same-Spin Scale       =       0.3333333333333333 [-]
	 SCS Opposite-Spin Scale   =       1.2000000000000000 [-]
	 SCS Same-Spin Energy      =      -0.2014110732626084 [Eh]
	 SCS Opposite-Spin Energy  =      -2.2839022843000669 [Eh]
	 SCS Correlation Energy    =      -2.4853133575626751 [Eh]
	 SCS Total Energy          =    -556.1278647766765744 [Eh]
	-----------------------------------------------------------

  Dipole Moment: [D]
     X:     1.7372      Y:    -2.5403      Z:     2.2026     Total:     3.7845

*** Psi4 exiting successfully. Buy a developer a beer!
