                               Psi4 1.4a3.dev225

  ==> Input File <==

--------------------------------------------------------------------------
#psi4
#
memory 32 gb

molecule  {
0 1
  O        0.3130990     2.3704440    -1.0483590
  N        1.7883250     1.2487180     0.2800910
  C        1.5287440    -1.3320340    -0.8115580
  C        2.5082430    -1.1273300     0.3546920
  C        0.0936770    -1.0844130    -0.4156830
  C       -0.3593510     0.2288580    -0.1728470
  C        2.1500350     0.1348000     1.1432270
  C       -1.6973100     0.4876920     0.1815770
  C        0.5874820     1.3794060    -0.3635620
  C       -0.8057180    -2.1460500    -0.2745700
  C       -2.5635920    -0.6025190     0.3218070
  C       -2.1245921    -1.8845827     0.0927895
  C       -2.2005820     1.8899870     0.4130340
  H        1.6305660    -2.3487650    -1.2074160
  H        1.8022820    -0.6509930    -1.6251500
  H        2.4785080    -1.9866810     1.0363320
  H        3.5296620    -1.0584230    -0.0385230
  H        1.3070990    -0.0748920     1.8087120
  H        2.9845300     0.4555350     1.7739000
  H        2.4430930     2.0063180     0.1171350
  H       -0.4670580    -3.1628320    -0.4675050
  H       -3.5988730    -0.4222000     0.6058720
  H       -2.8229980    -2.7393000     0.2003190
  H       -1.5534710     2.4410460     1.1016880
  H       -2.2209110     2.4548110    -0.5213210
  H       -3.2087000     1.8617690     0.8360960
units angstrom
no_reorient  #important for SAPT in psi4, default
symmetry c1  #important for SAPT in psi4, default
}

set PROPERTIES_ORIGIN ["COM"]
properties('MP2/aug-cc-pvtz', properties = ['dipole'])
--------------------------------------------------------------------------

    Molecular point group: c1
  Charge       = 0
  Multiplicity = 1
  Basis Set: AUG-CC-PVTZ
    Blend: AUG-CC-PVTZ
  Basis Set: (AUG-CC-PVTZ AUX)
    Blend: AUG-CC-PVTZ-JKFIT

    Orbital Energies [Eh]
    ---------------------

    Doubly Occupied:

       1A    -20.512569     2A    -15.582958     3A    -11.350203
       4A    -11.274888     5A    -11.254138     6A    -11.253856
       7A    -11.243708     8A    -11.241462     9A    -11.238137
      10A    -11.237362    11A    -11.234828    12A    -11.230467
      13A    -11.216038    14A     -1.367475    15A     -1.235296
      16A     -1.165343    17A     -1.085205    18A     -1.044910
      19A     -1.029656    20A     -0.943241    21A     -0.934720
      22A     -0.872291    23A     -0.830303    24A     -0.784198
      25A     -0.769844    26A     -0.694545    27A     -0.683158
      28A     -0.659716    29A     -0.657942    30A     -0.619713
      31A     -0.614462    32A     -0.590046    33A     -0.584240
      34A     -0.569940    35A     -0.566638    36A     -0.553261
      37A     -0.531616    38A     -0.531062    39A     -0.514479
      40A     -0.503575    41A     -0.488458    42A     -0.480715
      43A     -0.473723    44A     -0.417246    45A     -0.386017
      46A     -0.337955    47A     -0.327479

  @DF-RHF Final Energy:  -553.64273417974175

   => Energetics <=

    Nuclear Repulsion Energy =            796.4427121030710168
    One-Electron Energy =               -2332.7327338128566225
    Two-Electron Energy =                 982.6472875300438545
    Total Energy =                       -553.6427341797417512
  Basis Set: (AUG-CC-PVTZ AUX)
    Blend: AUG-CC-PVTZ-RI
    Molecular point group: c1

    Geometry (in Angstrom), charge = 0, multiplicity = 1:

       Center              X                  Y                   Z               Mass
    ------------   -----------------  -----------------  -----------------  -----------------
         O            0.325799045611     2.350587474703    -1.027965288852    15.994914619570
         N            1.801025045611     1.228861474703     0.300484711148    14.003074004430
         C            1.541444045611    -1.351890525297    -0.791164288852    12.000000000000
         C            2.520943045611    -1.147186525297     0.375085711148    12.000000000000
         C            0.106377045611    -1.104269525297    -0.395289288852    12.000000000000
         C           -0.346650954389     0.209001474703    -0.152453288852    12.000000000000
         C            2.162735045611     0.114943474703     1.163620711148    12.000000000000
         C           -1.684609954389     0.467835474703     0.201970711148    12.000000000000
         C            0.600182045611     1.359549474703    -0.343168288852    12.000000000000
         C           -0.793017954389    -2.165906525297    -0.254176288852    12.000000000000
         C           -2.550891954389    -0.622375525297     0.342200711148    12.000000000000
         C           -2.111892054389    -1.904439225297     0.113183211148    12.000000000000
         C           -2.187881954389     1.870130474703     0.433427711148    12.000000000000
         H            1.643266045611    -2.368621525297    -1.187022288852     1.007825032230
         H            1.814982045611    -0.670849525297    -1.604756288852     1.007825032230
         H            2.491208045611    -2.006537525297     1.056725711148     1.007825032230
         H            3.542362045611    -1.078279525297    -0.018129288852     1.007825032230
         H            1.319799045611    -0.094748525297     1.829105711148     1.007825032230
         H            2.997230045611     0.435678474703     1.794293711148     1.007825032230
         H            2.455793045611     1.986461474703     0.137528711148     1.007825032230
         H           -0.454357954389    -3.182688525297    -0.447111288852     1.007825032230
         H           -3.586172954389    -0.442056525297     0.626265711148     1.007825032230
         H           -2.810297954389    -2.759156525297     0.220712711148     1.007825032230
         H           -1.540770954389     2.421189474703     1.122081711148     1.007825032230
         H           -2.208210954389     2.434954474703    -0.500927288852     1.007825032230
         H           -3.195999954389     1.841912474703     0.856489711148     1.007825032230

  Basis Set: AUG-CC-PVTZ
    Blend: AUG-CC-PVTZ
  Basis Set: (AUG-CC-PVTZ AUX)
    Blend: AUG-CC-PVTZ-JKFIT
	 Reference Energy          =    -553.6427341797417512 [Eh]
	 Singles Energy            =      -0.0000000000000000 [Eh]
	 Same-Spin Energy          =      -0.6041599885778430 [Eh]
	 Opposite-Spin Energy      =      -1.9029090624084379 [Eh]
	 Correlation Energy        =      -2.5070690509862810 [Eh]
	 Total Energy              =    -556.1498032307280255 [Eh]

	 ================> DF-SCS-MP2 Energies <==================
	-----------------------------------------------------------
	 SCS Same-Spin Scale       =       0.3333333333333333 [-]
	 SCS Opposite-Spin Scale   =       1.2000000000000000 [-]
	 SCS Same-Spin Energy      =      -0.2013866628592810 [Eh]
	 SCS Opposite-Spin Energy  =      -2.2834908748901253 [Eh]
	 SCS Correlation Energy    =      -2.4848775377494063 [Eh]
	 SCS Total Energy          =    -556.1276117174911633 [Eh]
	-----------------------------------------------------------

  Dipole Moment: [D]
     X:     1.7328      Y:    -2.5335      Z:     2.2031     Total:     3.7782

*** Psi4 exiting successfully. Buy a developer a beer!
