                               Psi4 1.4a3.dev225

  ==> Input File <==

--------------------------------------------------------------------------
#psi4
#
memory 32 gb

molecule  {
0 1
  O        0.3130990     2.3704440    -1.0483590
  N        1.7883250     1.2487180     0.2800910
  C        1.5287440    -1.3320340    -0.8115580
  C        2.4900519    -1.0771428     0.3599276
  C        0.0936770    -1.0844130    -0.4156830
  C       -0.3593510     0.2288580    -0.1728470
  C        2.1500350     0.1348000     1.1432270
  C       -1.6973100     0.4876920     0.1815770
  C        0.5874820     1.3794060    -0.3635620
  C       -0.8057180    -2.1460500    -0.2745700
  C       -2.5635920    -0.6025190     0.3218070
  C       -2.1294290    -1.9083920     0.0915650
  C       -2.2005820     1.8899870     0.4130340
  H        1.6305660    -2.3487650    -1.2074160
  H        1.8022820    -0.6509930    -1.6251500
  H        2.4785080    -1.9866810     1.0363320
  H        3.5296620    -1.0584230    -0.0385230
  H        1.3070990    -0.0748920     1.8087120
  H        2.9845300     0.4555350     1.7739000
  H        2.4430930     2.0063180     0.1171350
  H       -0.4670580    -3.1628320    -0.4675050
  H       -3.5988730    -0.4222000     0.6058720
  H       -2.8229980    -2.7393000     0.2003190
  H       -1.5534710     2.4410460     1.1016880
  H       -2.2209110     2.4548110    -0.5213210
  H       -3.2087000     1.8617690     0.8360960
units angstrom
no_reorient  #important for SAPT in psi4, default
symmetry c1  #important for SAPT in psi4, default
}

set PROPERTIES_ORIGIN ["COM"]
properties('MP2/aug-cc-pvtz', properties = ['dipole'])
--------------------------------------------------------------------------

    Molecular point group: c1
  Charge       = 0
  Multiplicity = 1
  Basis Set: AUG-CC-PVTZ
    Blend: AUG-CC-PVTZ
  Basis Set: (AUG-CC-PVTZ AUX)
    Blend: AUG-CC-PVTZ-JKFIT

    Orbital Energies [Eh]
    ---------------------

    Doubly Occupied:

       1A    -20.512738     2A    -15.582601     3A    -11.350460
       4A    -11.273598     5A    -11.254235     6A    -11.253574
       7A    -11.244437     8A    -11.241985     9A    -11.239978
      10A    -11.238669    11A    -11.235207    12A    -11.232624
      13A    -11.215950    14A     -1.367726    15A     -1.237450
      16A     -1.163779    17A     -1.086394    18A     -1.045026
      19A     -1.032081    20A     -0.945456    21A     -0.933869
      22A     -0.872708    23A     -0.827264    24A     -0.784945
      25A     -0.769807    26A     -0.694646    27A     -0.684769
      28A     -0.659940    29A     -0.659263    30A     -0.623572
      31A     -0.615003    32A     -0.592298    33A     -0.583470
      34A     -0.570115    35A     -0.566415    36A     -0.553806
      37A     -0.529886    38A     -0.528812    39A     -0.517824
      40A     -0.502992    41A     -0.489874    42A     -0.476554
      43A     -0.470468    44A     -0.417389    45A     -0.388190
      46A     -0.336398    47A     -0.327466

  @DF-RHF Final Energy:  -553.63981969729696

   => Energetics <=

    Nuclear Repulsion Energy =            796.8617710225150859
    One-Electron Energy =               -2333.5397638044078121
    Two-Electron Energy =                 983.0381730845957691
    Total Energy =                       -553.6398196972969572
  Basis Set: (AUG-CC-PVTZ AUX)
    Blend: AUG-CC-PVTZ-RI
    Molecular point group: c1

    Geometry (in Angstrom), charge = 0, multiplicity = 1:

       Center              X                  Y                   Z               Mass
    ------------   -----------------  -----------------  -----------------  -----------------
         O            0.327377209239     2.348779734458    -1.028240179078    15.994914619570
         N            1.802603209239     1.227053734458     0.300209820922    14.003074004430
         C            1.543022209239    -1.353698265542    -0.791439179078    12.000000000000
         C            2.504330109239    -1.098807065542     0.380046420922    12.000000000000
         C            0.107955209239    -1.106077265542    -0.395564179078    12.000000000000
         C           -0.345072790761     0.207193734458    -0.152728179078    12.000000000000
         C            2.164313209239     0.113135734458     1.163345820922    12.000000000000
         C           -1.683031790761     0.466027734458     0.201695820922    12.000000000000
         C            0.601760209239     1.357741734458    -0.343443179078    12.000000000000
         C           -0.791439790761    -2.167714265542    -0.254451179078    12.000000000000
         C           -2.549313790761    -0.624183265542     0.341925820922    12.000000000000
         C           -2.115150790761    -1.930056265542     0.111683820922    12.000000000000
         C           -2.186303790761     1.868322734458     0.433152820922    12.000000000000
         H            1.644844209239    -2.370429265542    -1.187297179078     1.007825032230
         H            1.816560209239    -0.672657265542    -1.605031179078     1.007825032230
         H            2.492786209239    -2.008345265542     1.056450820922     1.007825032230
         H            3.543940209239    -1.080087265542    -0.018404179078     1.007825032230
         H            1.321377209239    -0.096556265542     1.828830820922     1.007825032230
         H            2.998808209239     0.433870734458     1.794018820922     1.007825032230
         H            2.457371209239     1.984653734458     0.137253820922     1.007825032230
         H           -0.452779790761    -3.184496265542    -0.447386179078     1.007825032230
         H           -3.584594790761    -0.443864265542     0.625990820922     1.007825032230
         H           -2.808719790761    -2.760964265542     0.220437820922     1.007825032230
         H           -1.539192790761     2.419381734458     1.121806820922     1.007825032230
         H           -2.206632790761     2.433146734458    -0.501202179078     1.007825032230
         H           -3.194421790761     1.840104734458     0.856214820922     1.007825032230

  Basis Set: AUG-CC-PVTZ
    Blend: AUG-CC-PVTZ
  Basis Set: (AUG-CC-PVTZ AUX)
    Blend: AUG-CC-PVTZ-JKFIT
	 Reference Energy          =    -553.6398196972969572 [Eh]
	 Singles Energy            =      -0.0000000000000000 [Eh]
	 Same-Spin Energy          =      -0.6045467040523020 [Eh]
	 Opposite-Spin Energy      =      -1.9034883516076562 [Eh]
	 Correlation Energy        =      -2.5080350556599580 [Eh]
	 Total Energy              =    -556.1478547529569596 [Eh]

	 ================> DF-SCS-MP2 Energies <==================
	-----------------------------------------------------------
	 SCS Same-Spin Scale       =       0.3333333333333333 [-]
	 SCS Opposite-Spin Scale   =       1.2000000000000000 [-]
	 SCS Same-Spin Energy      =      -0.2015155680174340 [Eh]
	 SCS Opposite-Spin Energy  =      -2.2841860219291874 [Eh]
	 SCS Correlation Energy    =      -2.4857015899466215 [Eh]
	 SCS Total Energy          =    -556.1255212872436005 [Eh]
	-----------------------------------------------------------

  Dipole Moment: [D]
     X:     1.7276      Y:    -2.5312      Z:     2.1991     Total:     3.7720

*** Psi4 exiting successfully. Buy a developer a beer!
