                               Psi4 1.4a3.dev225

  ==> Input File <==

--------------------------------------------------------------------------
#psi4
#
memory 32 gb

molecule  {
0 1
  O        0.3130990     2.3704440    -1.0483590
  N        1.7883250     1.2487180     0.2800910
  C        1.5150229    -1.3794125    -0.7904846
  C        2.5082430    -1.1273300     0.3546920
  C        0.0936770    -1.0844130    -0.4156830
  C       -0.3593510     0.2288580    -0.1728470
  C        2.1500350     0.1348000     1.1432270
  C       -1.6973100     0.4876920     0.1815770
  C        0.5874820     1.3794060    -0.3635620
  C       -0.8057180    -2.1460500    -0.2745700
  C       -2.5635920    -0.6025190     0.3218070
  C       -2.1294290    -1.9083920     0.0915650
  C       -2.2005820     1.8899870     0.4130340
  H        1.6305660    -2.3487650    -1.2074160
  H        1.8022820    -0.6509930    -1.6251500
  H        2.4785080    -1.9866810     1.0363320
  H        3.5296620    -1.0584230    -0.0385230
  H        1.3070990    -0.0748920     1.8087120
  H        2.9845300     0.4555350     1.7739000
  H        2.4430930     2.0063180     0.1171350
  H       -0.4670580    -3.1628320    -0.4675050
  H       -3.5988730    -0.4222000     0.6058720
  H       -2.8229980    -2.7393000     0.2003190
  H       -1.5534710     2.4410460     1.1016880
  H       -2.2209110     2.4548110    -0.5213210
  H       -3.2087000     1.8617690     0.8360960
units angstrom
no_reorient  #important for SAPT in psi4, default
symmetry c1  #important for SAPT in psi4, default
}

set PROPERTIES_ORIGIN ["COM"]
properties('MP2/aug-cc-pvtz', properties = ['dipole'])
--------------------------------------------------------------------------

    Molecular point group: c1
  Charge       = 0
  Multiplicity = 1
  Basis Set: AUG-CC-PVTZ
    Blend: AUG-CC-PVTZ
  Basis Set: (AUG-CC-PVTZ AUX)
    Blend: AUG-CC-PVTZ-JKFIT

    Orbital Energies [Eh]
    ---------------------

    Doubly Occupied:

       1A    -20.512543     2A    -15.582981     3A    -11.350249
       4A    -11.275601     5A    -11.254317     6A    -11.253897
       7A    -11.244220     8A    -11.242691     9A    -11.239039
      10A    -11.237642    11A    -11.234614    12A    -11.232641
      13A    -11.216089    14A     -1.367414    15A     -1.235128
      16A     -1.164182    17A     -1.085573    18A     -1.044611
      19A     -1.028837    20A     -0.944458    21A     -0.932756
      22A     -0.874315    23A     -0.829412    24A     -0.784725
      25A     -0.770772    26A     -0.693772    27A     -0.683498
      28A     -0.660028    29A     -0.656978    30A     -0.622495
      31A     -0.615420    32A     -0.590169    33A     -0.583411
      34A     -0.571634    35A     -0.565401    36A     -0.555574
      37A     -0.531143    38A     -0.528238    39A     -0.513361
      40A     -0.505593    41A     -0.492377    42A     -0.476699
      43A     -0.472384    44A     -0.417135    45A     -0.385946
      46A     -0.336224    47A     -0.327061

  @DF-RHF Final Energy:  -553.64012755703266

   => Energetics <=

    Nuclear Repulsion Energy =            795.8239165749408812
    One-Electron Energy =               -2331.4815952783083048
    Two-Electron Energy =                 982.0175511463346538
    Total Energy =                       -553.6401275570326561
  Basis Set: (AUG-CC-PVTZ AUX)
    Blend: AUG-CC-PVTZ-RI
    Molecular point group: c1

    Geometry (in Angstrom), charge = 0, multiplicity = 1:

       Center              X                  Y                   Z               Mass
    ------------   -----------------  -----------------  -----------------  -----------------
         O            0.327070869504     2.355466144007    -1.029325581193    15.994914619570
         N            1.802296869504     1.233740144007     0.299124418807    14.003074004430
         C            1.528994769504    -1.394390355993    -0.771451181193    12.000000000000
         C            2.522214869504    -1.142307855993     0.373725418807    12.000000000000
         C            0.107648869504    -1.099390855993    -0.396649581193    12.000000000000
         C           -0.345379130496     0.213880144007    -0.153813581193    12.000000000000
         C            2.164006869504     0.119822144007     1.162260418807    12.000000000000
         C           -1.683338130496     0.472714144007     0.200610418807    12.000000000000
         C            0.601453869504     1.364428144007    -0.344528581193    12.000000000000
         C           -0.791746130496    -2.161027855993    -0.255536581193    12.000000000000
         C           -2.549620130496    -0.617496855993     0.340840418807    12.000000000000
         C           -2.115457130496    -1.923369855993     0.110598418807    12.000000000000
         C           -2.186610130496     1.875009144007     0.432067418807    12.000000000000
         H            1.644537869504    -2.363742855993    -1.188382581193     1.007825032230
         H            1.816253869504    -0.665970855993    -1.606116581193     1.007825032230
         H            2.492479869504    -2.001658855993     1.055365418807     1.007825032230
         H            3.543633869504    -1.073400855993    -0.019489581193     1.007825032230
         H            1.321070869504    -0.089869855993     1.827745418807     1.007825032230
         H            2.998501869504     0.440557144007     1.792933418807     1.007825032230
         H            2.457064869504     1.991340144007     0.136168418807     1.007825032230
         H           -0.453086130496    -3.177809855993    -0.448471581193     1.007825032230
         H           -3.584901130496    -0.437177855993     0.624905418807     1.007825032230
         H           -2.809026130496    -2.754277855993     0.219352418807     1.007825032230
         H           -1.539499130496     2.426068144007     1.120721418807     1.007825032230
         H           -2.206939130496     2.439833144007    -0.502287581193     1.007825032230
         H           -3.194728130496     1.846791144007     0.855129418807     1.007825032230

  Basis Set: AUG-CC-PVTZ
    Blend: AUG-CC-PVTZ
  Basis Set: (AUG-CC-PVTZ AUX)
    Blend: AUG-CC-PVTZ-JKFIT
	 Reference Energy          =    -553.6401275570326561 [Eh]
	 Singles Energy            =      -0.0000000000000000 [Eh]
	 Same-Spin Energy          =      -0.6042663985464842 [Eh]
	 Opposite-Spin Energy      =      -1.9032253844859106 [Eh]
	 Correlation Energy        =      -2.5074917830323948 [Eh]
	 Total Energy              =    -556.1476193400650345 [Eh]

	 ================> DF-SCS-MP2 Energies <==================
	-----------------------------------------------------------
	 SCS Same-Spin Scale       =       0.3333333333333333 [-]
	 SCS Opposite-Spin Scale   =       1.2000000000000000 [-]
	 SCS Same-Spin Energy      =      -0.2014221328488281 [Eh]
	 SCS Opposite-Spin Energy  =      -2.2838704613830925 [Eh]
	 SCS Correlation Energy    =      -2.4852925942319204 [Eh]
	 SCS Total Energy          =    -556.1254201512646205 [Eh]
	-----------------------------------------------------------

  Dipole Moment: [D]
     X:     1.7279      Y:    -2.5578      Z:     2.2200     Total:     3.8022

*** Psi4 exiting successfully. Buy a developer a beer!
