                               Psi4 1.4a3.dev225

  ==> Input File <==

--------------------------------------------------------------------------
#psi4
#
memory 32 gb

molecule  {
0 1
  O        0.3130990     2.3704440    -1.0483590
  N        1.7883250     1.2487180     0.2800910
  C        1.5287440    -1.3320340    -0.8115580
  C        2.5555746    -1.2791418     0.3304939
  C        0.0936770    -1.0844130    -0.4156830
  C       -0.3593510     0.2288580    -0.1728470
  C        2.1500350     0.1348000     1.1432270
  C       -1.6973100     0.4876920     0.1815770
  C        0.5874820     1.3794060    -0.3635620
  C       -0.8057180    -2.1460500    -0.2745700
  C       -2.5635920    -0.6025190     0.3218070
  C       -2.1294290    -1.9083920     0.0915650
  C       -2.2005820     1.8899870     0.4130340
  H        1.6305660    -2.3487650    -1.2074160
  H        1.8022820    -0.6509930    -1.6251500
  H        2.4785080    -1.9866810     1.0363320
  H        3.5296620    -1.0584230    -0.0385230
  H        1.3070990    -0.0748920     1.8087120
  H        2.9845300     0.4555350     1.7739000
  H        2.4430930     2.0063180     0.1171350
  H       -0.4670580    -3.1628320    -0.4675050
  H       -3.5988730    -0.4222000     0.6058720
  H       -2.8229980    -2.7393000     0.2003190
  H       -1.5534710     2.4410460     1.1016880
  H       -2.2209110     2.4548110    -0.5213210
  H       -3.2087000     1.8617690     0.8360960
units angstrom
no_reorient  #important for SAPT in psi4, default
symmetry c1  #important for SAPT in psi4, default
}

set PROPERTIES_ORIGIN ["COM"]
properties('MP2/aug-cc-pvtz', properties = ['dipole'])
--------------------------------------------------------------------------

    Molecular point group: c1
  Charge       = 0
  Multiplicity = 1
  Basis Set: AUG-CC-PVTZ
    Blend: AUG-CC-PVTZ
  Basis Set: (AUG-CC-PVTZ AUX)
    Blend: AUG-CC-PVTZ-JKFIT

    Orbital Energies [Eh]
    ---------------------

    Doubly Occupied:

       1A    -20.512849     2A    -15.584761     3A    -11.350183
       4A    -11.277561     5A    -11.254855     6A    -11.253413
       7A    -11.244447     8A    -11.242302     9A    -11.238521
      10A    -11.235652    11A    -11.235034    12A    -11.233044
      13A    -11.215883    14A     -1.367554    15A     -1.231421
      16A     -1.163728    17A     -1.081689    18A     -1.044492
      19A     -1.021540    20A     -0.939160    21A     -0.929840
      22A     -0.877391    23A     -0.837494    24A     -0.786086
      25A     -0.769985    26A     -0.692987    27A     -0.680395
      28A     -0.662053    29A     -0.657680    30A     -0.620827
      31A     -0.610256    32A     -0.586463    33A     -0.585808
      34A     -0.570504    35A     -0.565462    36A     -0.553282
      37A     -0.546562    38A     -0.533408    39A     -0.516920
      40A     -0.501731    41A     -0.486154    42A     -0.480003
      43A     -0.464457    44A     -0.417676    45A     -0.374726
      46A     -0.336743    47A     -0.327705

  @DF-RHF Final Energy:  -553.62107923106385

   => Energetics <=

    Nuclear Repulsion Energy =            793.5236459205435722
    One-Electron Energy =               -2326.8880789990594167
    Two-Electron Energy =                 979.7433538474521129
    Total Energy =                       -553.6210792310638453
  Basis Set: (AUG-CC-PVTZ AUX)
    Blend: AUG-CC-PVTZ-RI
    Molecular point group: c1

    Geometry (in Angstrom), charge = 0, multiplicity = 1:

       Center              X                  Y                   Z               Mass
    ------------   -----------------  -----------------  -----------------  -----------------
         O            0.322886782717     2.362623206523    -1.026223017588    15.994914619570
         N            1.798112782717     1.240897206523     0.302226982412    14.003074004430
         C            1.538531782717    -1.339854793477    -0.789422017588    12.000000000000
         C            2.565362382717    -1.286962593477     0.352629882412    12.000000000000
         C            0.103464782717    -1.092233793477    -0.393547017588    12.000000000000
         C           -0.349563217283     0.221037206523    -0.150711017588    12.000000000000
         C            2.159822782717     0.126979206523     1.165362982412    12.000000000000
         C           -1.687522217283     0.479871206523     0.203712982412    12.000000000000
         C            0.597269782717     1.371585206523    -0.341426017588    12.000000000000
         C           -0.795930217283    -2.153870793477    -0.252434017588    12.000000000000
         C           -2.553804217283    -0.610339793477     0.343942982412    12.000000000000
         C           -2.119641217283    -1.916212793477     0.113700982412    12.000000000000
         C           -2.190794217283     1.882166206523     0.435169982412    12.000000000000
         H            1.640353782717    -2.356585793477    -1.185280017588     1.007825032230
         H            1.812069782717    -0.658813793477    -1.603014017588     1.007825032230
         H            2.488295782717    -1.994501793477     1.058467982412     1.007825032230
         H            3.539449782717    -1.066243793477    -0.016387017588     1.007825032230
         H            1.316886782717    -0.082712793477     1.830847982412     1.007825032230
         H            2.994317782717     0.447714206523     1.796035982412     1.007825032230
         H            2.452880782717     1.998497206523     0.139270982412     1.007825032230
         H           -0.457270217283    -3.170652793477    -0.445369017588     1.007825032230
         H           -3.589085217283    -0.430020793477     0.628007982412     1.007825032230
         H           -2.813210217283    -2.747120793477     0.222454982412     1.007825032230
         H           -1.543683217283     2.433225206523     1.123823982412     1.007825032230
         H           -2.211123217283     2.446990206523    -0.499185017588     1.007825032230
         H           -3.198912217283     1.853948206523     0.858231982412     1.007825032230

  Basis Set: AUG-CC-PVTZ
    Blend: AUG-CC-PVTZ
  Basis Set: (AUG-CC-PVTZ AUX)
    Blend: AUG-CC-PVTZ-JKFIT
	 Reference Energy          =    -553.6210792310638453 [Eh]
	 Singles Energy            =      -0.0000000000000000 [Eh]
	 Same-Spin Energy          =      -0.6043805828196990 [Eh]
	 Opposite-Spin Energy      =      -1.9042769617880406 [Eh]
	 Correlation Energy        =      -2.5086575446077397 [Eh]
	 Total Energy              =    -556.1297367756716312 [Eh]

	 ================> DF-SCS-MP2 Energies <==================
	-----------------------------------------------------------
	 SCS Same-Spin Scale       =       0.3333333333333333 [-]
	 SCS Opposite-Spin Scale   =       1.2000000000000000 [-]
	 SCS Same-Spin Energy      =      -0.2014601942732330 [Eh]
	 SCS Opposite-Spin Energy  =      -2.2851323541456487 [Eh]
	 SCS Correlation Energy    =      -2.4865925484188818 [Eh]
	 SCS Total Energy          =    -556.1076717794827573 [Eh]
	-----------------------------------------------------------

  Dipole Moment: [D]
     X:     1.6967      Y:    -2.5261      Z:     2.2049     Total:     3.7579

*** Psi4 exiting successfully. Buy a developer a beer!
