                               Psi4 1.4a3.dev225

  ==> Input File <==

--------------------------------------------------------------------------
#psi4
#
memory 32 gb

molecule  {
0 1
  O        0.3130990     2.3704440    -1.0483590
  N        1.7883250     1.2487180     0.2800910
  C        1.5287440    -1.3320340    -0.8115580
  C        2.5082430    -1.1273300     0.3546920
  C        0.0936770    -1.0844130    -0.4156830
  C       -0.3593510     0.2288580    -0.1728470
  C        2.1500350     0.1348000     1.1432270
  C       -1.6498006     0.4785011     0.1689918
  C        0.5874820     1.3794060    -0.3635620
  C       -0.8057180    -2.1460500    -0.2745700
  C       -2.5635920    -0.6025190     0.3218070
  C       -2.1294290    -1.9083920     0.0915650
  C       -2.2005820     1.8899870     0.4130340
  H        1.6305660    -2.3487650    -1.2074160
  H        1.8022820    -0.6509930    -1.6251500
  H        2.4785080    -1.9866810     1.0363320
  H        3.5296620    -1.0584230    -0.0385230
  H        1.3070990    -0.0748920     1.8087120
  H        2.9845300     0.4555350     1.7739000
  H        2.4430930     2.0063180     0.1171350
  H       -0.4670580    -3.1628320    -0.4675050
  H       -3.5988730    -0.4222000     0.6058720
  H       -2.8229980    -2.7393000     0.2003190
  H       -1.5534710     2.4410460     1.1016880
  H       -2.2209110     2.4548110    -0.5213210
  H       -3.2087000     1.8617690     0.8360960
units angstrom
no_reorient  #important for SAPT in psi4, default
symmetry c1  #important for SAPT in psi4, default
}

set PROPERTIES_ORIGIN ["COM"]
properties('MP2/aug-cc-pvtz', properties = ['dipole'])
--------------------------------------------------------------------------

    Molecular point group: c1
  Charge       = 0
  Multiplicity = 1
  Basis Set: AUG-CC-PVTZ
    Blend: AUG-CC-PVTZ
  Basis Set: (AUG-CC-PVTZ AUX)
    Blend: AUG-CC-PVTZ-JKFIT

    Orbital Energies [Eh]
    ---------------------

    Doubly Occupied:

       1A    -20.513130     2A    -15.583321     3A    -11.350568
       4A    -11.275305     5A    -11.254218     6A    -11.251465
       7A    -11.243576     8A    -11.238300     9A    -11.237500
      10A    -11.237449    11A    -11.235124    12A    -11.234854
      13A    -11.216651    14A     -1.368067    15A     -1.235800
      16A     -1.166247    17A     -1.083538    18A     -1.046456
      19A     -1.027010    20A     -0.943630    21A     -0.930796
      22A     -0.872298    23A     -0.832348    24A     -0.789509
      25A     -0.768061    26A     -0.695063    27A     -0.683022
      28A     -0.660743    29A     -0.657142    30A     -0.619390
      31A     -0.616136    32A     -0.590078    33A     -0.585104
      34A     -0.570806    35A     -0.564136    36A     -0.552056
      37A     -0.532218    38A     -0.530163    39A     -0.515124
      40A     -0.501687    41A     -0.486643    42A     -0.480341
      43A     -0.475356    44A     -0.416990    45A     -0.386318
      46A     -0.342301    47A     -0.324808

  @DF-RHF Final Energy:  -553.64095283552911

   => Energetics <=

    Nuclear Repulsion Energy =            796.6552402041301093
    One-Electron Energy =               -2333.1506910528396475
    Two-Electron Energy =                 982.8544980131803186
    Total Energy =                       -553.6409528355291059
  Basis Set: (AUG-CC-PVTZ AUX)
    Blend: AUG-CC-PVTZ-RI
    Molecular point group: c1

    Geometry (in Angstrom), charge = 0, multiplicity = 1:

       Center              X                  Y                   Z               Mass
    ------------   -----------------  -----------------  -----------------  -----------------
         O            0.322874597660     2.352849056923    -1.027018877255    15.994914619570
         N            1.798100597660     1.231123056923     0.301431122745    14.003074004430
         C            1.538519597660    -1.349628943077    -0.790217877255    12.000000000000
         C            2.518018597660    -1.144924943077     0.376032122745    12.000000000000
         C            0.103452597660    -1.102007943077    -0.394342877255    12.000000000000
         C           -0.349575402340     0.211263056923    -0.151506877255    12.000000000000
         C            2.159810597660     0.117205056923     1.164567122745    12.000000000000
         C           -1.640025002340     0.460906156923     0.190331922745    12.000000000000
         C            0.597257597660     1.361811056923    -0.342221877255    12.000000000000
         C           -0.795942402340    -2.163644943077    -0.253229877255    12.000000000000
         C           -2.553816402340    -0.620113943077     0.343147122745    12.000000000000
         C           -2.119653402340    -1.925986943077     0.112905122745    12.000000000000
         C           -2.190806402340     1.872392056923     0.434374122745    12.000000000000
         H            1.640341597660    -2.366359943077    -1.186075877255     1.007825032230
         H            1.812057597660    -0.668587943077    -1.603809877255     1.007825032230
         H            2.488283597660    -2.004275943077     1.057672122745     1.007825032230
         H            3.539437597660    -1.076017943077    -0.017182877255     1.007825032230
         H            1.316874597660    -0.092486943077     1.830052122745     1.007825032230
         H            2.994305597660     0.437940056923     1.795240122745     1.007825032230
         H            2.452868597660     1.988723056923     0.138475122745     1.007825032230
         H           -0.457282402340    -3.180426943077    -0.446164877255     1.007825032230
         H           -3.589097402340    -0.439794943077     0.627212122745     1.007825032230
         H           -2.813222402340    -2.756894943077     0.221659122745     1.007825032230
         H           -1.543695402340     2.423451056923     1.123028122745     1.007825032230
         H           -2.211135402340     2.437216056923    -0.499980877255     1.007825032230
         H           -3.198924402340     1.844174056923     0.857436122745     1.007825032230

  Basis Set: AUG-CC-PVTZ
    Blend: AUG-CC-PVTZ
  Basis Set: (AUG-CC-PVTZ AUX)
    Blend: AUG-CC-PVTZ-JKFIT
	 Reference Energy          =    -553.6409528355291059 [Eh]
	 Singles Energy            =      -0.0000000000000000 [Eh]
	 Same-Spin Energy          =      -0.6038260960863152 [Eh]
	 Opposite-Spin Energy      =      -1.9028330391355199 [Eh]
	 Correlation Energy        =      -2.5066591352218350 [Eh]
	 Total Energy              =    -556.1476119707509724 [Eh]

	 ================> DF-SCS-MP2 Energies <==================
	-----------------------------------------------------------
	 SCS Same-Spin Scale       =       0.3333333333333333 [-]
	 SCS Opposite-Spin Scale   =       1.2000000000000000 [-]
	 SCS Same-Spin Energy      =      -0.2012753653621051 [Eh]
	 SCS Opposite-Spin Energy  =      -2.2833996469626237 [Eh]
	 SCS Correlation Energy    =      -2.4846750123247285 [Eh]
	 SCS Total Energy          =    -556.1256278478538206 [Eh]
	-----------------------------------------------------------

  Dipole Moment: [D]
     X:     1.7317      Y:    -2.5665      Z:     2.2024     Total:     3.7995

*** Psi4 exiting successfully. Buy a developer a beer!
