                               Psi4 1.4a3.dev225

  ==> Input File <==

--------------------------------------------------------------------------
#psi4
#
memory 32 gb

molecule  {
0 1
  O        0.3130990     2.3704440    -1.0483590
  N        1.7883250     1.2487180     0.2800910
  C        1.5287440    -1.3320340    -0.8115580
  C        2.5082430    -1.1273300     0.3546920
  C        0.0936770    -1.0844130    -0.4156830
  C       -0.3593510     0.2288580    -0.1728470
  C        2.1500350     0.1348000     1.1432270
  C       -1.6973100     0.4876920     0.1815770
  C        0.5874820     1.3794060    -0.3635620
  C       -0.8057180    -2.1460500    -0.2745700
  C       -2.5635920    -0.6025190     0.3218070
  C       -2.1294290    -1.9083920     0.0915650
  C       -2.2072578     1.9085883     0.4161042
  H        1.6305660    -2.3487650    -1.2074160
  H        1.8022820    -0.6509930    -1.6251500
  H        2.4785080    -1.9866810     1.0363320
  H        3.5296620    -1.0584230    -0.0385230
  H        1.3070990    -0.0748920     1.8087120
  H        2.9845300     0.4555350     1.7739000
  H        2.4430930     2.0063180     0.1171350
  H       -0.4670580    -3.1628320    -0.4675050
  H       -3.5988730    -0.4222000     0.6058720
  H       -2.8229980    -2.7393000     0.2003190
  H       -1.5534710     2.4410460     1.1016880
  H       -2.2209110     2.4548110    -0.5213210
  H       -3.2087000     1.8617690     0.8360960
units angstrom
no_reorient  #important for SAPT in psi4, default
symmetry c1  #important for SAPT in psi4, default
}

set PROPERTIES_ORIGIN ["COM"]
properties('MP2/aug-cc-pvtz', properties = ['dipole'])
--------------------------------------------------------------------------

    Molecular point group: c1
  Charge       = 0
  Multiplicity = 1
  Basis Set: AUG-CC-PVTZ
    Blend: AUG-CC-PVTZ
  Basis Set: (AUG-CC-PVTZ AUX)
    Blend: AUG-CC-PVTZ-JKFIT

    Orbital Energies [Eh]
    ---------------------

    Doubly Occupied:

       1A    -20.512711     2A    -15.583049     3A    -11.350290
       4A    -11.274897     5A    -11.254237     6A    -11.254171
       7A    -11.244355     8A    -11.241982     9A    -11.238228
      10A    -11.237380    11A    -11.235233    12A    -11.232694
      13A    -11.215515    14A     -1.367581    15A     -1.235353
      16A     -1.163141    17A     -1.083995    18A     -1.043431
      19A     -1.028409    20A     -0.943145    21A     -0.933365
      22A     -0.873677    23A     -0.830259    24A     -0.784715
      25A     -0.769875    26A     -0.693913    27A     -0.682756
      28A     -0.659770    29A     -0.658423    30A     -0.619176
      31A     -0.615158    32A     -0.590459    33A     -0.583804
      34A     -0.570538    35A     -0.565312    36A     -0.553569
      37A     -0.533830    38A     -0.530943    39A     -0.513532
      40A     -0.505137    41A     -0.488044    42A     -0.479950
      43A     -0.472971    44A     -0.417546    45A     -0.386087
      46A     -0.336457    47A     -0.327861

  @DF-RHF Final Energy:  -553.64314879662948

   => Energetics <=

    Nuclear Repulsion Energy =            795.5909390872520817
    One-Electron Energy =               -2331.0343242942840334
    Two-Electron Energy =                 981.8002364104024764
    Total Energy =                       -553.6431487966294753
  Basis Set: (AUG-CC-PVTZ AUX)
    Blend: AUG-CC-PVTZ-RI
    Molecular point group: c1

    Geometry (in Angstrom), charge = 0, multiplicity = 1:

       Center              X                  Y                   Z               Mass
    ------------   -----------------  -----------------  -----------------  -----------------
         O            0.326588038333     2.350944391334    -1.028091779064    15.994914619570
         N            1.801814038333     1.229218391334     0.300358220936    14.003074004430
         C            1.542233038333    -1.351533608666    -0.791290779064    12.000000000000
         C            2.521732038333    -1.146829608666     0.374959220936    12.000000000000
         C            0.107166038333    -1.103912608666    -0.395415779064    12.000000000000
         C           -0.345861961667     0.209358391334    -0.152579779064    12.000000000000
         C            2.163524038333     0.115300391334     1.163494220936    12.000000000000
         C           -1.683820961667     0.468192391334     0.201844220936    12.000000000000
         C            0.600971038333     1.359906391334    -0.343294779064    12.000000000000
         C           -0.792228961667    -2.165549608666    -0.254302779064    12.000000000000
         C           -2.550102961667    -0.622018608666     0.342074220936    12.000000000000
         C           -2.115939961667    -1.927891608666     0.111832220936    12.000000000000
         C           -2.193768761667     1.889088691334     0.436371420936    12.000000000000
         H            1.644055038333    -2.368264608666    -1.187148779064     1.007825032230
         H            1.815771038333    -0.670492608666    -1.604882779064     1.007825032230
         H            2.491997038333    -2.006180608666     1.056599220936     1.007825032230
         H            3.543151038333    -1.077922608666    -0.018255779064     1.007825032230
         H            1.320588038333    -0.094391608666     1.828979220936     1.007825032230
         H            2.998019038333     0.436035391334     1.794167220936     1.007825032230
         H            2.456582038333     1.986818391334     0.137402220936     1.007825032230
         H           -0.453568961667    -3.182331608666    -0.447237779064     1.007825032230
         H           -3.585383961667    -0.441699608666     0.626139220936     1.007825032230
         H           -2.809508961667    -2.758799608666     0.220586220936     1.007825032230
         H           -1.539981961667     2.421546391334     1.121955220936     1.007825032230
         H           -2.207421961667     2.435311391334    -0.501053779064     1.007825032230
         H           -3.195210961667     1.842269391334     0.856363220936     1.007825032230

  Basis Set: AUG-CC-PVTZ
    Blend: AUG-CC-PVTZ
  Basis Set: (AUG-CC-PVTZ AUX)
    Blend: AUG-CC-PVTZ-JKFIT
	 Reference Energy          =    -553.6431487966294753 [Eh]
	 Singles Energy            =      -0.0000000000000000 [Eh]
	 Same-Spin Energy          =      -0.6040072880384706 [Eh]
	 Opposite-Spin Energy      =      -1.9029320028766192 [Eh]
	 Correlation Energy        =      -2.5069392909150898 [Eh]
	 Total Energy              =    -556.1500880875445318 [Eh]

	 ================> DF-SCS-MP2 Energies <==================
	-----------------------------------------------------------
	 SCS Same-Spin Scale       =       0.3333333333333333 [-]
	 SCS Opposite-Spin Scale   =       1.2000000000000000 [-]
	 SCS Same-Spin Energy      =      -0.2013357626794902 [Eh]
	 SCS Opposite-Spin Energy  =      -2.2835184034519429 [Eh]
	 SCS Correlation Energy    =      -2.4848541661314330 [Eh]
	 SCS Total Energy          =    -556.1280029627608883 [Eh]
	-----------------------------------------------------------

  Dipole Moment: [D]
     X:     1.7281      Y:    -2.5461      Z:     2.2066     Total:     3.7865

*** Psi4 exiting successfully. Buy a developer a beer!
