                               Psi4 1.4a3.dev225

  ==> Input File <==

--------------------------------------------------------------------------
#psi4
#
memory 32 gb

molecule  {
0 1
  O        0.3130990     2.3704440    -1.0483590
  N        1.7883250     1.2487180     0.2800910
  C        1.5287440    -1.3320340    -0.8115580
  C        2.5082430    -1.1273300     0.3546920
  C        0.0936770    -1.0844130    -0.4156830
  C       -0.3593510     0.2288580    -0.1728470
  C        2.1500350     0.1348000     1.1432270
  C       -1.6973100     0.4876920     0.1815770
  C        0.5874820     1.3794060    -0.3635620
  C       -0.8057180    -2.1460500    -0.2745700
  C       -2.5635920    -0.6025190     0.3218070
  C       -2.0983125    -2.0019840     0.0750635
  C       -2.2005820     1.8899870     0.4130340
  H        1.6305660    -2.3487650    -1.2074160
  H        1.8022820    -0.6509930    -1.6251500
  H        2.4785080    -1.9866810     1.0363320
  H        3.5296620    -1.0584230    -0.0385230
  H        1.3070990    -0.0748920     1.8087120
  H        2.9845300     0.4555350     1.7739000
  H        2.4430930     2.0063180     0.1171350
  H       -0.4670580    -3.1628320    -0.4675050
  H       -3.5988730    -0.4222000     0.6058720
  H       -2.8229980    -2.7393000     0.2003190
  H       -1.5534710     2.4410460     1.1016880
  H       -2.2209110     2.4548110    -0.5213210
  H       -3.2087000     1.8617690     0.8360960
units angstrom
no_reorient  #important for SAPT in psi4, default
symmetry c1  #important for SAPT in psi4, default
}

set PROPERTIES_ORIGIN ["COM"]
properties('MP2/aug-cc-pvtz', properties = ['dipole'])
--------------------------------------------------------------------------

    Molecular point group: c1
  Charge       = 0
  Multiplicity = 1
  Basis Set: AUG-CC-PVTZ
    Blend: AUG-CC-PVTZ
  Basis Set: (AUG-CC-PVTZ AUX)
    Blend: AUG-CC-PVTZ-JKFIT

    Orbital Energies [Eh]
    ---------------------

    Doubly Occupied:

       1A    -20.513230     2A    -15.583568     3A    -11.350859
       4A    -11.275156     5A    -11.255818     6A    -11.251302
       7A    -11.245465     8A    -11.243893     9A    -11.240501
      10A    -11.239092    11A    -11.237922    12A    -11.232559
      13A    -11.214974    14A     -1.368104    15A     -1.235756
      16A     -1.161123    17A     -1.082712    18A     -1.049879
      19A     -1.024346    20A     -0.943049    21A     -0.927587
      22A     -0.879738    23A     -0.828247    24A     -0.787635
      25A     -0.769423    26A     -0.693340    27A     -0.683946
      28A     -0.664829    29A     -0.656136    30A     -0.624010
      31A     -0.617476    32A     -0.590924    33A     -0.582490
      34A     -0.571074    35A     -0.564275    36A     -0.552619
      37A     -0.532973    38A     -0.531630    39A     -0.513523
      40A     -0.501584    41A     -0.488611    42A     -0.476866
      43A     -0.471256    44A     -0.417810    45A     -0.386307
      46A     -0.340846    47A     -0.321314

  @DF-RHF Final Energy:  -553.63105561345390

   => Energetics <=

    Nuclear Repulsion Energy =            794.9820950149230612
    One-Electron Energy =               -2329.7747450547230983
    Two-Electron Energy =                 981.1615944263461415
    Total Energy =                       -553.6310556134538956
  Basis Set: (AUG-CC-PVTZ AUX)
    Blend: AUG-CC-PVTZ-RI
    Molecular point group: c1

    Geometry (in Angstrom), charge = 0, multiplicity = 1:

       Center              X                  Y                   Z               Mass
    ------------   -----------------  -----------------  -----------------  -----------------
         O            0.323998042099     2.358633265113    -1.026750483898    15.994914619570
         N            1.799224042099     1.236907265113     0.301699516102    14.003074004430
         C            1.539643042099    -1.343844734887    -0.789949483898    12.000000000000
         C            2.519142042099    -1.139140734887     0.376300516102    12.000000000000
         C            0.104576042099    -1.096223734887    -0.394074483898    12.000000000000
         C           -0.348451957901     0.217047265113    -0.151238483898    12.000000000000
         C            2.160934042099     0.122989265113     1.164835516102    12.000000000000
         C           -1.686410957901     0.475881265113     0.203185516102    12.000000000000
         C            0.598381042099     1.367595265113    -0.341953483898    12.000000000000
         C           -0.794818957901    -2.157860734887    -0.252961483898    12.000000000000
         C           -2.552692957901    -0.614329734887     0.343415516102    12.000000000000
         C           -2.087413457901    -2.013794734887     0.096672016102    12.000000000000
         C           -2.189682957901     1.878176265113     0.434642516102    12.000000000000
         H            1.641465042099    -2.360575734887    -1.185807483898     1.007825032230
         H            1.813181042099    -0.662803734887    -1.603541483898     1.007825032230
         H            2.489407042099    -1.998491734887     1.057940516102     1.007825032230
         H            3.540561042099    -1.070233734887    -0.016914483898     1.007825032230
         H            1.317998042099    -0.086702734887     1.830320516102     1.007825032230
         H            2.995429042099     0.443724265113     1.795508516102     1.007825032230
         H            2.453992042099     1.994507265113     0.138743516102     1.007825032230
         H           -0.456158957901    -3.174642734887    -0.445896483898     1.007825032230
         H           -3.587973957901    -0.434010734887     0.627480516102     1.007825032230
         H           -2.812098957901    -2.751110734887     0.221927516102     1.007825032230
         H           -1.542571957901     2.429235265113     1.123296516102     1.007825032230
         H           -2.210011957901     2.443000265113    -0.499712483898     1.007825032230
         H           -3.197800957901     1.849958265113     0.857704516102     1.007825032230

  Basis Set: AUG-CC-PVTZ
    Blend: AUG-CC-PVTZ
  Basis Set: (AUG-CC-PVTZ AUX)
    Blend: AUG-CC-PVTZ-JKFIT
	 Reference Energy          =    -553.6310556134538956 [Eh]
	 Singles Energy            =      -0.0000000000000000 [Eh]
	 Same-Spin Energy          =      -0.6041845037176741 [Eh]
	 Opposite-Spin Energy      =      -1.9042461287756289 [Eh]
	 Correlation Energy        =      -2.5084306324933028 [Eh]
	 Total Energy              =    -556.1394862459471824 [Eh]

	 ================> DF-SCS-MP2 Energies <==================
	-----------------------------------------------------------
	 SCS Same-Spin Scale       =       0.3333333333333333 [-]
	 SCS Opposite-Spin Scale   =       1.2000000000000000 [-]
	 SCS Same-Spin Energy      =      -0.2013948345725580 [Eh]
	 SCS Opposite-Spin Energy  =      -2.2850953545307546 [Eh]
	 SCS Correlation Energy    =      -2.4864901891033124 [Eh]
	 SCS Total Energy          =    -556.1175458025571743 [Eh]
	-----------------------------------------------------------

  Dipole Moment: [D]
     X:     1.7237      Y:    -2.5445      Z:     2.2083     Total:     3.7845

*** Psi4 exiting successfully. Buy a developer a beer!
