                               Psi4 1.4a3.dev225

  ==> Input File <==

--------------------------------------------------------------------------
#psi4
#
memory 32 gb

molecule  {
0 1
  O        0.3130990     2.3704440    -1.0483590
  N        1.7883250     1.2487180     0.2800910
  C        1.5287440    -1.3320340    -0.8115580
  C        2.5082430    -1.1273300     0.3546920
  C        0.0936770    -1.0844130    -0.4156830
  C       -0.3593510     0.2288580    -0.1728470
  C        2.1043897     0.1143433     1.1344612
  C       -1.6973100     0.4876920     0.1815770
  C        0.5874820     1.3794060    -0.3635620
  C       -0.8057180    -2.1460500    -0.2745700
  C       -2.5635920    -0.6025190     0.3218070
  C       -2.1294290    -1.9083920     0.0915650
  C       -2.2005820     1.8899870     0.4130340
  H        1.6305660    -2.3487650    -1.2074160
  H        1.8022820    -0.6509930    -1.6251500
  H        2.4785080    -1.9866810     1.0363320
  H        3.5296620    -1.0584230    -0.0385230
  H        1.3070990    -0.0748920     1.8087120
  H        2.9845300     0.4555350     1.7739000
  H        2.4430930     2.0063180     0.1171350
  H       -0.4670580    -3.1628320    -0.4675050
  H       -3.5988730    -0.4222000     0.6058720
  H       -2.8229980    -2.7393000     0.2003190
  H       -1.5534710     2.4410460     1.1016880
  H       -2.2209110     2.4548110    -0.5213210
  H       -3.2087000     1.8617690     0.8360960
units angstrom
no_reorient  #important for SAPT in psi4, default
symmetry c1  #important for SAPT in psi4, default
}

set PROPERTIES_ORIGIN ["COM"]
properties('MP2/aug-cc-pvtz', properties = ['dipole'])
--------------------------------------------------------------------------

    Molecular point group: c1
  Charge       = 0
  Multiplicity = 1
  Basis Set: AUG-CC-PVTZ
    Blend: AUG-CC-PVTZ
  Basis Set: (AUG-CC-PVTZ AUX)
    Blend: AUG-CC-PVTZ-JKFIT

    Orbital Energies [Eh]
    ---------------------

    Doubly Occupied:

       1A    -20.512416     2A    -15.583290     3A    -11.349346
       4A    -11.275537     5A    -11.254437     6A    -11.253689
       7A    -11.244589     8A    -11.242190     9A    -11.237863
      10A    -11.237263    11A    -11.235529    12A    -11.232944
      13A    -11.216055    14A     -1.367504    15A     -1.236197
      16A     -1.163882    17A     -1.085802    18A     -1.045106
      19A     -1.028858    20A     -0.943446    21A     -0.932561
      22A     -0.872760    23A     -0.831803    24A     -0.784490
      25A     -0.771148    26A     -0.694161    27A     -0.684978
      28A     -0.660610    29A     -0.655932    30A     -0.621450
      31A     -0.613604    32A     -0.592866    33A     -0.583295
      34A     -0.569585    35A     -0.566949    36A     -0.553336
      37A     -0.532090    38A     -0.530722    39A     -0.513784
      40A     -0.505642    41A     -0.484951    42A     -0.479505
      43A     -0.474402    44A     -0.416820    45A     -0.387622
      46A     -0.336683    47A     -0.327734

  @DF-RHF Final Energy:  -553.63982055157817

   => Energetics <=

    Nuclear Repulsion Energy =            796.6895236550324171
    One-Electron Energy =               -2333.2078396612887445
    Two-Electron Energy =                 982.8784954546781591
    Total Energy =                       -553.6398205515781683
  Basis Set: (AUG-CC-PVTZ AUX)
    Blend: AUG-CC-PVTZ-RI
    Molecular point group: c1

    Geometry (in Angstrom), charge = 0, multiplicity = 1:

       Center              X                  Y                   Z               Mass
    ------------   -----------------  -----------------  -----------------  -----------------
         O            0.329258710884     2.353621129000    -1.027280629824    15.994914619570
         N            1.804484710884     1.231895129000     0.301169370176    14.003074004430
         C            1.544903710884    -1.348856871000    -0.790479629824    12.000000000000
         C            2.524402710884    -1.144152871000     0.375770370176    12.000000000000
         C            0.109836710884    -1.101235871000    -0.394604629824    12.000000000000
         C           -0.343191289116     0.212035129000    -0.151768629824    12.000000000000
         C            2.120549410884     0.097520429000     1.155539570176    12.000000000000
         C           -1.681150289116     0.470869129000     0.202655370176    12.000000000000
         C            0.603641710884     1.362583129000    -0.342483629824    12.000000000000
         C           -0.789558289116    -2.162872871000    -0.253491629824    12.000000000000
         C           -2.547432289116    -0.619341871000     0.342885370176    12.000000000000
         C           -2.113269289116    -1.925214871000     0.112643370176    12.000000000000
         C           -2.184422289116     1.873164129000     0.434112370176    12.000000000000
         H            1.646725710884    -2.365587871000    -1.186337629824     1.007825032230
         H            1.818441710884    -0.667815871000    -1.604071629824     1.007825032230
         H            2.494667710884    -2.003503871000     1.057410370176     1.007825032230
         H            3.545821710884    -1.075245871000    -0.017444629824     1.007825032230
         H            1.323258710884    -0.091714871000     1.829790370176     1.007825032230
         H            3.000689710884     0.438712129000     1.794978370176     1.007825032230
         H            2.459252710884     1.989495129000     0.138213370176     1.007825032230
         H           -0.450898289116    -3.179654871000    -0.446426629824     1.007825032230
         H           -3.582713289116    -0.439022871000     0.626950370176     1.007825032230
         H           -2.806838289116    -2.756122871000     0.221397370176     1.007825032230
         H           -1.537311289116     2.424223129000     1.122766370176     1.007825032230
         H           -2.204751289116     2.437988129000    -0.500242629824     1.007825032230
         H           -3.192540289116     1.844946129000     0.857174370176     1.007825032230

  Basis Set: AUG-CC-PVTZ
    Blend: AUG-CC-PVTZ
  Basis Set: (AUG-CC-PVTZ AUX)
    Blend: AUG-CC-PVTZ-JKFIT
	 Reference Energy          =    -553.6398205515781683 [Eh]
	 Singles Energy            =      -0.0000000000000000 [Eh]
	 Same-Spin Energy          =      -0.6044183028893249 [Eh]
	 Opposite-Spin Energy      =      -1.9034701238783929 [Eh]
	 Correlation Energy        =      -2.5078884267677175 [Eh]
	 Total Energy              =    -556.1477089783459178 [Eh]

	 ================> DF-SCS-MP2 Energies <==================
	-----------------------------------------------------------
	 SCS Same-Spin Scale       =       0.3333333333333333 [-]
	 SCS Opposite-Spin Scale   =       1.2000000000000000 [-]
	 SCS Same-Spin Energy      =      -0.2014727676297750 [Eh]
	 SCS Opposite-Spin Energy  =      -2.2841641486540714 [Eh]
	 SCS Correlation Energy    =      -2.4856369162838461 [Eh]
	 SCS Total Energy          =    -556.1254574678620202 [Eh]
	-----------------------------------------------------------

  Dipole Moment: [D]
     X:     1.6944      Y:    -2.5606      Z:     2.1953     Total:     3.7746

*** Psi4 exiting successfully. Buy a developer a beer!
