                               Psi4 1.4a3.dev225

  ==> Input File <==

--------------------------------------------------------------------------
#psi4
#
memory 32 gb

molecule  {
0 1
  O        0.3130990     2.3704440    -1.0483590
  N        1.7578681     1.1642312     0.3126692
  C        1.5287440    -1.3320340    -0.8115580
  C        2.5082430    -1.1273300     0.3546920
  C        0.0936770    -1.0844130    -0.4156830
  C       -0.3593510     0.2288580    -0.1728470
  C        2.1500350     0.1348000     1.1432270
  C       -1.6973100     0.4876920     0.1815770
  C        0.5874820     1.3794060    -0.3635620
  C       -0.8057180    -2.1460500    -0.2745700
  C       -2.5635920    -0.6025190     0.3218070
  C       -2.1294290    -1.9083920     0.0915650
  C       -2.2005820     1.8899870     0.4130340
  H        1.6305660    -2.3487650    -1.2074160
  H        1.8022820    -0.6509930    -1.6251500
  H        2.4785080    -1.9866810     1.0363320
  H        3.5296620    -1.0584230    -0.0385230
  H        1.3070990    -0.0748920     1.8087120
  H        2.9845300     0.4555350     1.7739000
  H        2.4430930     2.0063180     0.1171350
  H       -0.4670580    -3.1628320    -0.4675050
  H       -3.5988730    -0.4222000     0.6058720
  H       -2.8229980    -2.7393000     0.2003190
  H       -1.5534710     2.4410460     1.1016880
  H       -2.2209110     2.4548110    -0.5213210
  H       -3.2087000     1.8617690     0.8360960
units angstrom
no_reorient  #important for SAPT in psi4, default
symmetry c1  #important for SAPT in psi4, default
}

set PROPERTIES_ORIGIN ["COM"]
properties('MP2/aug-cc-pvtz', properties = ['dipole'])
--------------------------------------------------------------------------

    Molecular point group: c1
  Charge       = 0
  Multiplicity = 1
  Basis Set: AUG-CC-PVTZ
    Blend: AUG-CC-PVTZ
  Basis Set: (AUG-CC-PVTZ AUX)
    Blend: AUG-CC-PVTZ-JKFIT

    Orbital Energies [Eh]
    ---------------------

    Doubly Occupied:

       1A    -20.518481     2A    -15.590542     3A    -11.354192
       4A    -11.270314     5A    -11.253260     6A    -11.252034
       7A    -11.243353     8A    -11.239338     9A    -11.237393
      10A    -11.234854    11A    -11.234515    12A    -11.231829
      13A    -11.215821    14A     -1.370113    15A     -1.252540
      16A     -1.162542    17A     -1.082693    18A     -1.042999
      19A     -1.031657    20A     -0.941211    21A     -0.936019
      22A     -0.876257    23A     -0.827408    24A     -0.785295
      25A     -0.761445    26A     -0.692436    27A     -0.689396
      28A     -0.664713    29A     -0.657922    30A     -0.623979
      31A     -0.611972    32A     -0.590423    33A     -0.584284
      34A     -0.570329    35A     -0.564835    36A     -0.553516
      37A     -0.532999    38A     -0.527626    39A     -0.513897
      40A     -0.504040    41A     -0.486368    42A     -0.478713
      43A     -0.473332    44A     -0.418777    45A     -0.384070
      46A     -0.335494    47A     -0.326634

  @DF-RHF Final Energy:  -553.62666644175761

   => Energetics <=

    Nuclear Repulsion Energy =            797.6980227661038043
    One-Electron Energy =               -2335.1856518159816005
    Two-Electron Energy =                 983.8609626081201895
    Total Energy =                       -553.6266664417576067
  Basis Set: (AUG-CC-PVTZ AUX)
    Blend: AUG-CC-PVTZ-RI
    Molecular point group: c1

    Geometry (in Angstrom), charge = 0, multiplicity = 1:

       Center              X                  Y                   Z               Mass
    ------------   -----------------  -----------------  -----------------  -----------------
         O            0.328566229026     2.358975760891    -1.030486714703    15.994914619570
         N            1.773335329026     1.152762960891     0.330541485297    14.003074004430
         C            1.544211229026    -1.343502239109    -0.793685714703    12.000000000000
         C            2.523710229026    -1.138798239109     0.372564285297    12.000000000000
         C            0.109144229026    -1.095881239109    -0.397810714703    12.000000000000
         C           -0.343883770974     0.217389760891    -0.154974714703    12.000000000000
         C            2.165502229026     0.123331760891     1.161099285297    12.000000000000
         C           -1.681842770974     0.476223760891     0.199449285297    12.000000000000
         C            0.602949229026     1.367937760891    -0.345689714703    12.000000000000
         C           -0.790250770974    -2.157518239109    -0.256697714703    12.000000000000
         C           -2.548124770974    -0.613987239109     0.339679285297    12.000000000000
         C           -2.113961770974    -1.919860239109     0.109437285297    12.000000000000
         C           -2.185114770974     1.878518760891     0.430906285297    12.000000000000
         H            1.646033229026    -2.360233239109    -1.189543714703     1.007825032230
         H            1.817749229026    -0.662461239109    -1.607277714703     1.007825032230
         H            2.493975229026    -1.998149239109     1.054204285297     1.007825032230
         H            3.545129229026    -1.069891239109    -0.020650714703     1.007825032230
         H            1.322566229026    -0.086360239109     1.826584285297     1.007825032230
         H            2.999997229026     0.444066760891     1.791772285297     1.007825032230
         H            2.458560229026     1.994849760891     0.135007285297     1.007825032230
         H           -0.451590770974    -3.174300239109    -0.449632714703     1.007825032230
         H           -3.583405770974    -0.433668239109     0.623744285297     1.007825032230
         H           -2.807530770974    -2.750768239109     0.218191285297     1.007825032230
         H           -1.538003770974     2.429577760891     1.119560285297     1.007825032230
         H           -2.205443770974     2.443342760891    -0.503448714703     1.007825032230
         H           -3.193232770974     1.850300760891     0.853968285297     1.007825032230

  Basis Set: AUG-CC-PVTZ
    Blend: AUG-CC-PVTZ
  Basis Set: (AUG-CC-PVTZ AUX)
    Blend: AUG-CC-PVTZ-JKFIT
	 Reference Energy          =    -553.6266664417576067 [Eh]
	 Singles Energy            =      -0.0000000000000000 [Eh]
	 Same-Spin Energy          =      -0.6061134797574023 [Eh]
	 Opposite-Spin Energy      =      -1.9058032888948455 [Eh]
	 Correlation Energy        =      -2.5119167686522479 [Eh]
	 Total Energy              =    -556.1385832104098199 [Eh]

	 ================> DF-SCS-MP2 Energies <==================
	-----------------------------------------------------------
	 SCS Same-Spin Scale       =       0.3333333333333333 [-]
	 SCS Opposite-Spin Scale   =       1.2000000000000000 [-]
	 SCS Same-Spin Energy      =      -0.2020378265858007 [Eh]
	 SCS Opposite-Spin Energy  =      -2.2869639466738145 [Eh]
	 SCS Correlation Energy    =      -2.4890017732596155 [Eh]
	 SCS Total Energy          =    -556.1156682150171946 [Eh]
	-----------------------------------------------------------

  Dipole Moment: [D]
     X:     1.7793      Y:    -2.3767      Z:     2.1702     Total:     3.6775

*** Psi4 exiting successfully. Buy a developer a beer!
