                               Psi4 1.4a3.dev225

  ==> Input File <==

--------------------------------------------------------------------------
#psi4
#
memory 32 gb

molecule  {
0 1
  O        0.3130990     2.3704440    -1.0483590
  N        1.7883250     1.2487180     0.2800910
  C        1.5287440    -1.3320340    -0.8115580
  C        2.5082430    -1.1273300     0.3546920
  C        0.0936770    -1.0844130    -0.4156830
  C       -0.3593510     0.2288580    -0.1728470
  C        2.1500350     0.1348000     1.1432270
  C       -1.6783063     0.4840156     0.1765429
  C        0.5874820     1.3794060    -0.3635620
  C       -0.8057180    -2.1460500    -0.2745700
  C       -2.5635920    -0.6025190     0.3218070
  C       -2.1294290    -1.9083920     0.0915650
  C       -2.2005820     1.8899870     0.4130340
  H        1.6305660    -2.3487650    -1.2074160
  H        1.8022820    -0.6509930    -1.6251500
  H        2.4785080    -1.9866810     1.0363320
  H        3.5296620    -1.0584230    -0.0385230
  H        1.3070990    -0.0748920     1.8087120
  H        2.9845300     0.4555350     1.7739000
  H        2.4430930     2.0063180     0.1171350
  H       -0.4670580    -3.1628320    -0.4675050
  H       -3.5988730    -0.4222000     0.6058720
  H       -2.8229980    -2.7393000     0.2003190
  H       -1.5534710     2.4410460     1.1016880
  H       -2.2209110     2.4548110    -0.5213210
  H       -3.2087000     1.8617690     0.8360960
units angstrom
no_reorient  #important for SAPT in psi4, default
symmetry c1  #important for SAPT in psi4, default
}

set PROPERTIES_ORIGIN ["COM"]
properties('MP2/aug-cc-pvtz', properties = ['dipole'])
--------------------------------------------------------------------------

    Molecular point group: c1
  Charge       = 0
  Multiplicity = 1
  Basis Set: AUG-CC-PVTZ
    Blend: AUG-CC-PVTZ
  Basis Set: (AUG-CC-PVTZ AUX)
    Blend: AUG-CC-PVTZ-JKFIT

    Orbital Energies [Eh]
    ---------------------

    Doubly Occupied:

       1A    -20.512872     2A    -15.583163     3A    -11.350421
       4A    -11.275067     5A    -11.254280     6A    -11.252743
       7A    -11.244076     8A    -11.240270     9A    -11.238280
      10A    -11.237445    11A    -11.235098    12A    -11.233659
      13A    -11.216187    14A     -1.367782    15A     -1.235537
      16A     -1.164631    17A     -1.084139    18A     -1.045216
      19A     -1.028178    20A     -0.943328    21A     -0.932281
      22A     -0.873084    23A     -0.830928    24A     -0.786809
      25A     -0.769158    26A     -0.694393    27A     -0.682929
      28A     -0.660244    29A     -0.658242    30A     -0.619453
      31A     -0.615613    32A     -0.590642    33A     -0.584297
      34A     -0.570334    35A     -0.565302    36A     -0.552698
      37A     -0.531799    38A     -0.530367    39A     -0.514254
      40A     -0.503743    41A     -0.488307    42A     -0.479706
      43A     -0.474655    44A     -0.417346    45A     -0.386156
      46A     -0.338523    47A     -0.326583

  @DF-RHF Final Energy:  -553.64307323689900

   => Energetics <=

    Nuclear Repulsion Energy =            796.2426358498111085
    One-Electron Energy =               -2332.3309857380982066
    Two-Electron Energy =                 982.4452766513882125
    Total Energy =                       -553.6430732368989993
  Basis Set: (AUG-CC-PVTZ AUX)
    Blend: AUG-CC-PVTZ-RI
    Molecular point group: c1

    Geometry (in Angstrom), charge = 0, multiplicity = 1:

       Center              X                  Y                   Z               Mass
    ------------   -----------------  -----------------  -----------------  -----------------
         O            0.324828161102     2.352471135118    -1.027536372103    15.994914619570
         N            1.800054161102     1.230745135118     0.300913627897    14.003074004430
         C            1.540473161102    -1.350006864882    -0.790735372103    12.000000000000
         C            2.519972161102    -1.145302864882     0.375514627897    12.000000000000
         C            0.105406161102    -1.102385864882    -0.394860372103    12.000000000000
         C           -0.347621838898     0.210885135118    -0.152024372103    12.000000000000
         C            2.161764161102     0.116827135118     1.164049627897    12.000000000000
         C           -1.666577138898     0.466042735118     0.197365527897    12.000000000000
         C            0.599211161102     1.361433135118    -0.342739372103    12.000000000000
         C           -0.793988838898    -2.164022864882    -0.253747372103    12.000000000000
         C           -2.551862838898    -0.620491864882     0.342629627897    12.000000000000
         C           -2.117699838898    -1.926364864882     0.112387627897    12.000000000000
         C           -2.188852838898     1.872014135118     0.433856627897    12.000000000000
         H            1.642295161102    -2.366737864882    -1.186593372103     1.007825032230
         H            1.814011161102    -0.668965864882    -1.604327372103     1.007825032230
         H            2.490237161102    -2.004653864882     1.057154627897     1.007825032230
         H            3.541391161102    -1.076395864882    -0.017700372103     1.007825032230
         H            1.318828161102    -0.092864864882     1.829534627897     1.007825032230
         H            2.996259161102     0.437562135118     1.794722627897     1.007825032230
         H            2.454822161102     1.988345135118     0.137957627897     1.007825032230
         H           -0.455328838898    -3.180804864882    -0.446682372103     1.007825032230
         H           -3.587143838898    -0.440172864882     0.626694627897     1.007825032230
         H           -2.811268838898    -2.757272864882     0.221141627897     1.007825032230
         H           -1.541741838898     2.423073135118     1.122510627897     1.007825032230
         H           -2.209181838898     2.436838135118    -0.500498372103     1.007825032230
         H           -3.196970838898     1.843796135118     0.856918627897     1.007825032230

  Basis Set: AUG-CC-PVTZ
    Blend: AUG-CC-PVTZ
  Basis Set: (AUG-CC-PVTZ AUX)
    Blend: AUG-CC-PVTZ-JKFIT
	 Reference Energy          =    -553.6430732368989993 [Eh]
	 Singles Energy            =      -0.0000000000000000 [Eh]
	 Same-Spin Energy          =      -0.6040479205883563 [Eh]
	 Opposite-Spin Energy      =      -1.9029486783719354 [Eh]
	 Correlation Energy        =      -2.5069965989602916 [Eh]
	 Total Energy              =    -556.1500698358593127 [Eh]

	 ================> DF-SCS-MP2 Energies <==================
	-----------------------------------------------------------
	 SCS Same-Spin Scale       =       0.3333333333333333 [-]
	 SCS Opposite-Spin Scale   =       1.2000000000000000 [-]
	 SCS Same-Spin Energy      =      -0.2013493068627854 [Eh]
	 SCS Opposite-Spin Energy  =      -2.2835384140463222 [Eh]
	 SCS Correlation Energy    =      -2.4848877209091076 [Eh]
	 SCS Total Energy          =    -556.1279609578081136 [Eh]
	-----------------------------------------------------------

  Dipole Moment: [D]
     X:     1.7294      Y:    -2.5505      Z:     2.2039     Total:     3.7885

*** Psi4 exiting successfully. Buy a developer a beer!
