                               Psi4 1.4a3.dev225

  ==> Input File <==

--------------------------------------------------------------------------
#psi4
#
memory 32 gb

molecule  {
0 1
  O        0.3130990     2.3704440    -1.0483590
  N        1.7883250     1.2487180     0.2800910
  C        1.5287440    -1.3320340    -0.8115580
  C        2.5082430    -1.1273300     0.3546920
  C        0.0936770    -1.0844130    -0.4156830
  C       -0.3593510     0.2288580    -0.1728470
  C        2.1500350     0.1348000     1.1432270
  C       -1.6973100     0.4876920     0.1815770
  C        0.5874820     1.3794060    -0.3635620
  C       -0.8057180    -2.1460500    -0.2745700
  C       -2.5635920    -0.6025190     0.3218070
  C       -2.1294290    -1.9083920     0.0915650
  C       -2.2005820     1.8899870     0.4130340
  H        1.6305660    -2.3487650    -1.2074160
  H        1.8022820    -0.6509930    -1.6251500
  H        2.4785080    -1.9866810     1.0363320
  H        3.5296620    -1.0584230    -0.0385230
  H        1.3070990    -0.0748920     1.8087120
  H        2.9845300     0.4555350     1.7739000
  H        2.4430930     2.0063180     0.1171350
  H       -0.4670580    -3.1628320    -0.4675050
  H       -3.5988730    -0.4222000     0.6058720
  H       -2.7592382    -2.6629146     0.1903212
  H       -1.5534710     2.4410460     1.1016880
  H       -2.2209110     2.4548110    -0.5213210
  H       -3.2087000     1.8617690     0.8360960
units angstrom
no_reorient  #important for SAPT in psi4, default
symmetry c1  #important for SAPT in psi4, default
}

set PROPERTIES_ORIGIN ["COM"]
properties('MP2/aug-cc-pvtz', properties = ['dipole'])
--------------------------------------------------------------------------

    Molecular point group: c1
  Charge       = 0
  Multiplicity = 1
  Basis Set: AUG-CC-PVTZ
    Blend: AUG-CC-PVTZ
  Basis Set: (AUG-CC-PVTZ AUX)
    Blend: AUG-CC-PVTZ-JKFIT

    Orbital Energies [Eh]
    ---------------------

    Doubly Occupied:

       1A    -20.512534     2A    -15.582895     3A    -11.350139
       4A    -11.274755     5A    -11.253748     6A    -11.252921
       7A    -11.241770     8A    -11.237962     9A    -11.237193
      10A    -11.234764    11A    -11.232707    12A    -11.231507
      13A    -11.215568    14A     -1.367422    15A     -1.235192
      16A     -1.163776    17A     -1.084458    18A     -1.047321
      19A     -1.029110    20A     -0.942885    21A     -0.932993
      22A     -0.877859    23A     -0.832350    24A     -0.786871
      25A     -0.771037    26A     -0.693965    27A     -0.683054
      28A     -0.670076    29A     -0.658952    30A     -0.619737
      31A     -0.617522    32A     -0.594873    33A     -0.583601
      34A     -0.570310    35A     -0.565876    36A     -0.552837
      37A     -0.531293    38A     -0.530502    39A     -0.513721
      40A     -0.508366    41A     -0.489293    42A     -0.478863
      43A     -0.473595    44A     -0.417402    45A     -0.385882
      46A     -0.336161    47A     -0.327027

  @DF-RHF Final Energy:  -553.63740614252686

   => Energetics <=

    Nuclear Repulsion Energy =            796.5585108177804159
    One-Electron Energy =               -2332.9265477181984352
    Two-Electron Energy =                 982.7306307578911628
    Total Energy =                       -553.6374061425268565
  Basis Set: (AUG-CC-PVTZ AUX)
    Blend: AUG-CC-PVTZ-RI
    Molecular point group: c1

    Geometry (in Angstrom), charge = 0, multiplicity = 1:

       Center              X                  Y                   Z               Mass
    ------------   -----------------  -----------------  -----------------  -----------------
         O            0.325763546282     2.351779529658    -1.027823826410    15.994914619570
         N            1.800989546282     1.230053529658     0.300626173590    14.003074004430
         C            1.541408546282    -1.350698470342    -0.791022826410    12.000000000000
         C            2.520907546282    -1.145994470342     0.375227173590    12.000000000000
         C            0.106341546282    -1.103077470342    -0.395147826410    12.000000000000
         C           -0.346686453718     0.210193529658    -0.152311826410    12.000000000000
         C            2.162699546282     0.116135529658     1.163762173590    12.000000000000
         C           -1.684645453718     0.469027529658     0.202112173590    12.000000000000
         C            0.600146546282     1.360741529658    -0.343026826410    12.000000000000
         C           -0.793053453718    -2.164714470342    -0.254034826410    12.000000000000
         C           -2.550927453718    -0.621183470342     0.342342173590    12.000000000000
         C           -2.116764453718    -1.927056470342     0.112100173590    12.000000000000
         C           -2.187917453718     1.871322529658     0.433569173590    12.000000000000
         H            1.643230546282    -2.367429470342    -1.186880826410     1.007825032230
         H            1.814946546282    -0.669657470342    -1.604614826410     1.007825032230
         H            2.491172546282    -2.005345470342     1.056867173590     1.007825032230
         H            3.542326546282    -1.077087470342    -0.017987826410     1.007825032230
         H            1.319763546282    -0.093556470342     1.829247173590     1.007825032230
         H            2.997194546282     0.436870529658     1.794435173590     1.007825032230
         H            2.455757546282     1.987653529658     0.137670173590     1.007825032230
         H           -0.454393453718    -3.181496470342    -0.446969826410     1.007825032230
         H           -3.586208453718    -0.440864470342     0.626407173590     1.007825032230
         H           -2.746573653718    -2.681579070342     0.210856373590     1.007825032230
         H           -1.540806453718     2.422381529658     1.122223173590     1.007825032230
         H           -2.208246453718     2.436146529658    -0.500785826410     1.007825032230
         H           -3.196035453718     1.843104529658     0.856631173590     1.007825032230

  Basis Set: AUG-CC-PVTZ
    Blend: AUG-CC-PVTZ
  Basis Set: (AUG-CC-PVTZ AUX)
    Blend: AUG-CC-PVTZ-JKFIT
	 Reference Energy          =    -553.6374061425268565 [Eh]
	 Singles Energy            =      -0.0000000000000000 [Eh]
	 Same-Spin Energy          =      -0.6040386105452809 [Eh]
	 Opposite-Spin Energy      =      -1.9024849536672142 [Eh]
	 Correlation Energy        =      -2.5065235642124950 [Eh]
	 Total Energy              =    -556.1439297067392999 [Eh]

	 ================> DF-SCS-MP2 Energies <==================
	-----------------------------------------------------------
	 SCS Same-Spin Scale       =       0.3333333333333333 [-]
	 SCS Opposite-Spin Scale   =       1.2000000000000000 [-]
	 SCS Same-Spin Energy      =      -0.2013462035150936 [Eh]
	 SCS Opposite-Spin Energy  =      -2.2829819444006567 [Eh]
	 SCS Correlation Energy    =      -2.4843281479157504 [Eh]
	 SCS Total Energy          =    -556.1217342904426459 [Eh]
	-----------------------------------------------------------

  Dipole Moment: [D]
     X:     1.7044      Y:    -2.5662      Z:     2.2072     Total:     3.7897

*** Psi4 exiting successfully. Buy a developer a beer!
