                               Psi4 1.4a3.dev225

  ==> Input File <==

--------------------------------------------------------------------------
#psi4
#
memory 32 gb

molecule  {
0 1
  O        0.3130990     2.3704440    -1.0483590
  N        1.7404910     1.1223554     0.3277321
  C        1.5287440    -1.3320340    -0.8115580
  C        2.5082430    -1.1273300     0.3546920
  C        0.0936770    -1.0844130    -0.4156830
  C       -0.3593510     0.2288580    -0.1728470
  C        2.1500350     0.1348000     1.1432270
  C       -1.6973100     0.4876920     0.1815770
  C        0.5874820     1.3794060    -0.3635620
  C       -0.8057180    -2.1460500    -0.2745700
  C       -2.5635920    -0.6025190     0.3218070
  C       -2.1294290    -1.9083920     0.0915650
  C       -2.2005820     1.8899870     0.4130340
  H        1.6305660    -2.3487650    -1.2074160
  H        1.8022820    -0.6509930    -1.6251500
  H        2.4785080    -1.9866810     1.0363320
  H        3.5296620    -1.0584230    -0.0385230
  H        1.3070990    -0.0748920     1.8087120
  H        2.9845300     0.4555350     1.7739000
  H        2.4430930     2.0063180     0.1171350
  H       -0.4670580    -3.1628320    -0.4675050
  H       -3.5988730    -0.4222000     0.6058720
  H       -2.8229980    -2.7393000     0.2003190
  H       -1.5534710     2.4410460     1.1016880
  H       -2.2209110     2.4548110    -0.5213210
  H       -3.2087000     1.8617690     0.8360960
units angstrom
no_reorient  #important for SAPT in psi4, default
symmetry c1  #important for SAPT in psi4, default
}

set PROPERTIES_ORIGIN ["COM"]
properties('MP2/aug-cc-pvtz', properties = ['dipole'])
--------------------------------------------------------------------------

    Molecular point group: c1
  Charge       = 0
  Multiplicity = 1
  Basis Set: AUG-CC-PVTZ
    Blend: AUG-CC-PVTZ
  Basis Set: (AUG-CC-PVTZ AUX)
    Blend: AUG-CC-PVTZ-JKFIT

    Orbital Energies [Eh]
    ---------------------

    Doubly Occupied:

       1A    -20.521449     2A    -15.594119     3A    -11.356772
       4A    -11.268324     5A    -11.252839     6A    -11.251398
       7A    -11.242911     8A    -11.238206     9A    -11.237079
      10A    -11.234230    11A    -11.233638    12A    -11.231487
      13A    -11.215844    14A     -1.371728    15A     -1.262463
      16A     -1.162181    17A     -1.081950    18A     -1.042522
      19A     -1.033575    20A     -0.941891    21A     -0.936569
      22A     -0.877991    23A     -0.826180    24A     -0.785781
      25A     -0.758199    26A     -0.697187    27A     -0.688677
      28A     -0.667021    29A     -0.657026    30A     -0.626457
      31A     -0.612899    32A     -0.589539    33A     -0.582902
      34A     -0.570299    35A     -0.563873    36A     -0.553444
      37A     -0.533600    38A     -0.525960    39A     -0.514149
      40A     -0.503107    41A     -0.483952    42A     -0.478424
      43A     -0.473155    44A     -0.418847    45A     -0.382618
      46A     -0.335082    47A     -0.326276

  @DF-RHF Final Energy:  -553.60934765264858

   => Energetics <=

    Nuclear Repulsion Energy =            798.6117558150253899
    One-Electron Energy =               -2336.9545687231234297
    Two-Electron Energy =                 984.7334652554494596
    Total Energy =                       -553.6093476526485802
  Basis Set: (AUG-CC-PVTZ AUX)
    Blend: AUG-CC-PVTZ-RI
    Molecular point group: c1

    Geometry (in Angstrom), charge = 0, multiplicity = 1:

       Center              X                  Y                   Z               Mass
    ------------   -----------------  -----------------  -----------------  -----------------
         O            0.329955910435     2.362324652290    -1.031691324914    15.994914619570
         N            1.757347910435     1.114236052290     0.344399775086    14.003074004430
         C            1.545600910435    -1.340153347710    -0.794890324914    12.000000000000
         C            2.525099910435    -1.135449347710     0.371359675086    12.000000000000
         C            0.110533910435    -1.092532347710    -0.399015324914    12.000000000000
         C           -0.342494089565     0.220738652290    -0.156179324914    12.000000000000
         C            2.166891910435     0.126680652290     1.159894675086    12.000000000000
         C           -1.680453089565     0.479572652290     0.198244675086    12.000000000000
         C            0.604338910435     1.371286652290    -0.346894324914    12.000000000000
         C           -0.788861089565    -2.154169347710    -0.257902324914    12.000000000000
         C           -2.546735089565    -0.610638347710     0.338474675086    12.000000000000
         C           -2.112572089565    -1.916511347710     0.108232675086    12.000000000000
         C           -2.183725089565     1.881867652290     0.429701675086    12.000000000000
         H            1.647422910435    -2.356884347710    -1.190748324914     1.007825032230
         H            1.819138910435    -0.659112347710    -1.608482324914     1.007825032230
         H            2.495364910435    -1.994800347710     1.052999675086     1.007825032230
         H            3.546518910435    -1.066542347710    -0.021855324914     1.007825032230
         H            1.323955910435    -0.083011347710     1.825379675086     1.007825032230
         H            3.001386910435     0.447415652290     1.790567675086     1.007825032230
         H            2.459949910435     1.998198652290     0.133802675086     1.007825032230
         H           -0.450201089565    -3.170951347710    -0.450837324914     1.007825032230
         H           -3.582016089565    -0.430319347710     0.622539675086     1.007825032230
         H           -2.806141089565    -2.747419347710     0.216986675086     1.007825032230
         H           -1.536614089565     2.432926652290     1.118355675086     1.007825032230
         H           -2.204054089565     2.446691652290    -0.504653324914     1.007825032230
         H           -3.191843089565     1.853649652290     0.852763675086     1.007825032230

  Basis Set: AUG-CC-PVTZ
    Blend: AUG-CC-PVTZ
  Basis Set: (AUG-CC-PVTZ AUX)
    Blend: AUG-CC-PVTZ-JKFIT
	 Reference Energy          =    -553.6093476526485802 [Eh]
	 Singles Energy            =      -0.0000000000000000 [Eh]
	 Same-Spin Energy          =      -0.6073467283167715 [Eh]
	 Opposite-Spin Energy      =      -1.9077869586819873 [Eh]
	 Correlation Energy        =      -2.5151336869987588 [Eh]
	 Total Energy              =    -556.1244813396473319 [Eh]

	 ================> DF-SCS-MP2 Energies <==================
	-----------------------------------------------------------
	 SCS Same-Spin Scale       =       0.3333333333333333 [-]
	 SCS Opposite-Spin Scale   =       1.2000000000000000 [-]
	 SCS Same-Spin Energy      =      -0.2024489094389238 [Eh]
	 SCS Opposite-Spin Energy  =      -2.2893443504183848 [Eh]
	 SCS Correlation Energy    =      -2.4917932598573085 [Eh]
	 SCS Total Energy          =    -556.1011409125059117 [Eh]
	-----------------------------------------------------------

  Dipole Moment: [D]
     X:     1.7935      Y:    -2.3089      Z:     2.1546     Total:     3.6318

*** Psi4 exiting successfully. Buy a developer a beer!
