                               Psi4 1.4a3.dev225

  ==> Input File <==

--------------------------------------------------------------------------
#psi4
#
memory 32 gb

molecule  {
0 1
  O        0.3130990     2.3704440    -1.0483590
  N        1.7883250     1.2487180     0.2800910
  C        1.5287440    -1.3320340    -0.8115580
  C        2.5082430    -1.1273300     0.3546920
  C        0.2838626    -1.1172296    -0.4681473
  C       -0.3593510     0.2288580    -0.1728470
  C        2.1500350     0.1348000     1.1432270
  C       -1.6973100     0.4876920     0.1815770
  C        0.5874820     1.3794060    -0.3635620
  C       -0.8057180    -2.1460500    -0.2745700
  C       -2.5635920    -0.6025190     0.3218070
  C       -2.1294290    -1.9083920     0.0915650
  C       -2.2005820     1.8899870     0.4130340
  H        1.6305660    -2.3487650    -1.2074160
  H        1.8022820    -0.6509930    -1.6251500
  H        2.4785080    -1.9866810     1.0363320
  H        3.5296620    -1.0584230    -0.0385230
  H        1.3070990    -0.0748920     1.8087120
  H        2.9845300     0.4555350     1.7739000
  H        2.4430930     2.0063180     0.1171350
  H       -0.4670580    -3.1628320    -0.4675050
  H       -3.5988730    -0.4222000     0.6058720
  H       -2.8229980    -2.7393000     0.2003190
  H       -1.5534710     2.4410460     1.1016880
  H       -2.2209110     2.4548110    -0.5213210
  H       -3.2087000     1.8617690     0.8360960
units angstrom
no_reorient  #important for SAPT in psi4, default
symmetry c1  #important for SAPT in psi4, default
}

set PROPERTIES_ORIGIN ["COM"]
properties('MP2/aug-cc-pvtz', properties = ['dipole'])
--------------------------------------------------------------------------

    Molecular point group: c1
  Charge       = 0
  Multiplicity = 1
  Basis Set: AUG-CC-PVTZ
    Blend: AUG-CC-PVTZ
  Basis Set: (AUG-CC-PVTZ AUX)
    Blend: AUG-CC-PVTZ-JKFIT

    Orbital Energies [Eh]
    ---------------------

    Doubly Occupied:

       1A    -20.509409     2A    -15.582667     3A    -11.345306
       4A    -11.276797     5A    -11.270363     6A    -11.253364
       7A    -11.251373     8A    -11.247006     9A    -11.244336
      10A    -11.243974    11A    -11.233111    12A    -11.231398
      13A    -11.215899    14A     -1.364881    15A     -1.236507
      16A     -1.158716    17A     -1.112917    18A     -1.038641
      19A     -1.025959    20A     -0.950965    21A     -0.927491
      22A     -0.878817    23A     -0.834158    24A     -0.782490
      25A     -0.756720    26A     -0.694272    27A     -0.689043
      28A     -0.667066    29A     -0.663073    30A     -0.623728
      31A     -0.615274    32A     -0.595856    33A     -0.586524
      34A     -0.574194    35A     -0.563063    36A     -0.552767
      37A     -0.540778    38A     -0.525513    39A     -0.519069
      40A     -0.509476    41A     -0.495749    42A     -0.468329
      43A     -0.467709    44A     -0.405971    45A     -0.386269
      46A     -0.330847    47A     -0.309839

  @DF-RHF Final Energy:  -553.57979815251178

   => Energetics <=

    Nuclear Repulsion Energy =            795.3131048909734773
    One-Electron Energy =               -2330.2704581461184716
    Two-Electron Energy =                 981.3775551026330959
    Total Energy =                       -553.5797981525117848
  Basis Set: (AUG-CC-PVTZ AUX)
    Blend: AUG-CC-PVTZ-RI
    Molecular point group: c1

    Geometry (in Angstrom), charge = 0, multiplicity = 1:

       Center              X                  Y                   Z               Mass
    ------------   -----------------  -----------------  -----------------  -----------------
         O            0.313096658219     2.354468182354    -1.024285867652    15.994914619570
         N            1.788322658219     1.232742182354     0.304164132348    14.003074004430
         C            1.528741658219    -1.348009817646    -0.787484867652    12.000000000000
         C            2.508240658219    -1.143305817646     0.378765132348    12.000000000000
         C            0.283860258219    -1.133205417646    -0.444074167652    12.000000000000
         C           -0.359353341781     0.212882182354    -0.148773867652    12.000000000000
         C            2.150032658219     0.118824182354     1.167300132348    12.000000000000
         C           -1.697312341781     0.471716182354     0.205650132348    12.000000000000
         C            0.587479658219     1.363430182354    -0.339488867652    12.000000000000
         C           -0.805720341781    -2.162025817646    -0.250496867652    12.000000000000
         C           -2.563594341781    -0.618494817646     0.345880132348    12.000000000000
         C           -2.129431341781    -1.924367817646     0.115638132348    12.000000000000
         C           -2.200584341781     1.874011182354     0.437107132348    12.000000000000
         H            1.630563658219    -2.364740817646    -1.183342867652     1.007825032230
         H            1.802279658219    -0.666968817646    -1.601076867652     1.007825032230
         H            2.478505658219    -2.002656817646     1.060405132348     1.007825032230
         H            3.529659658219    -1.074398817646    -0.014449867652     1.007825032230
         H            1.307096658219    -0.090867817646     1.832785132348     1.007825032230
         H            2.984527658219     0.439559182354     1.797973132348     1.007825032230
         H            2.443090658219     1.990342182354     0.141208132348     1.007825032230
         H           -0.467060341781    -3.178807817646    -0.443431867652     1.007825032230
         H           -3.598875341781    -0.438175817646     0.629945132348     1.007825032230
         H           -2.823000341781    -2.755275817646     0.224392132348     1.007825032230
         H           -1.553473341781     2.425070182354     1.125761132348     1.007825032230
         H           -2.220913341781     2.438835182354    -0.497247867652     1.007825032230
         H           -3.208702341781     1.845793182354     0.860169132348     1.007825032230

  Basis Set: AUG-CC-PVTZ
    Blend: AUG-CC-PVTZ
  Basis Set: (AUG-CC-PVTZ AUX)
    Blend: AUG-CC-PVTZ-JKFIT
	 Reference Energy          =    -553.5797981525117848 [Eh]
	 Singles Energy            =      -0.0000000000000000 [Eh]
	 Same-Spin Energy          =      -0.6091687205977403 [Eh]
	 Opposite-Spin Energy      =      -1.9104227349820020 [Eh]
	 Correlation Energy        =      -2.5195914555797421 [Eh]
	 Total Energy              =    -556.0993896080915420 [Eh]

	 ================> DF-SCS-MP2 Energies <==================
	-----------------------------------------------------------
	 SCS Same-Spin Scale       =       0.3333333333333333 [-]
	 SCS Opposite-Spin Scale   =       1.2000000000000000 [-]
	 SCS Same-Spin Energy      =      -0.2030562401992468 [Eh]
	 SCS Opposite-Spin Energy  =      -2.2925072819784025 [Eh]
	 SCS Correlation Energy    =      -2.4955635221776493 [Eh]
	 SCS Total Energy          =    -556.0753616746894750 [Eh]
	-----------------------------------------------------------

  Dipole Moment: [D]
     X:     1.9318      Y:    -2.5727      Z:     2.1836     Total:     3.8883

*** Psi4 exiting successfully. Buy a developer a beer!
