                               Psi4 1.4a3.dev225

  ==> Input File <==

--------------------------------------------------------------------------
#psi4
#
memory 32 gb

molecule  {
0 1
  O        0.3130990     2.3704440    -1.0483590
  N        1.8230023     1.3765125     0.2253979
  C        1.5287440    -1.3320340    -0.8115580
  C        2.5082430    -1.1273300     0.3546920
  C        0.0936770    -1.0844130    -0.4156830
  C       -0.3593510     0.2288580    -0.1728470
  C        2.1500350     0.1348000     1.1432270
  C       -1.6973100     0.4876920     0.1815770
  C        0.5874820     1.3794060    -0.3635620
  C       -0.8057180    -2.1460500    -0.2745700
  C       -2.5635920    -0.6025190     0.3218070
  C       -2.1294290    -1.9083920     0.0915650
  C       -2.2005820     1.8899870     0.4130340
  H        1.6305660    -2.3487650    -1.2074160
  H        1.8022820    -0.6509930    -1.6251500
  H        2.4785080    -1.9866810     1.0363320
  H        3.5296620    -1.0584230    -0.0385230
  H        1.3070990    -0.0748920     1.8087120
  H        2.9845300     0.4555350     1.7739000
  H        2.4430930     2.0063180     0.1171350
  H       -0.4670580    -3.1628320    -0.4675050
  H       -3.5988730    -0.4222000     0.6058720
  H       -2.8229980    -2.7393000     0.2003190
  H       -1.5534710     2.4410460     1.1016880
  H       -2.2209110     2.4548110    -0.5213210
  H       -3.2087000     1.8617690     0.8360960
units angstrom
no_reorient  #important for SAPT in psi4, default
symmetry c1  #important for SAPT in psi4, default
}

set PROPERTIES_ORIGIN ["COM"]
properties('MP2/aug-cc-pvtz', properties = ['dipole'])
--------------------------------------------------------------------------

    Molecular point group: c1
  Charge       = 0
  Multiplicity = 1
  Basis Set: AUG-CC-PVTZ
    Blend: AUG-CC-PVTZ
  Basis Set: (AUG-CC-PVTZ AUX)
    Blend: AUG-CC-PVTZ-JKFIT

    Orbital Energies [Eh]
    ---------------------

    Doubly Occupied:

       1A    -20.504831     2A    -15.571048     3A    -11.348051
       4A    -11.281756     5A    -11.256288     6A    -11.256027
       7A    -11.246714     8A    -11.246290     9A    -11.241511
      10A    -11.239545    11A    -11.236764    12A    -11.234326
      13A    -11.216310    14A     -1.365881    15A     -1.217810
      16A     -1.166502    17A     -1.088336    18A     -1.048076
      19A     -1.026590    20A     -0.948381    21A     -0.930508
      22A     -0.874854    23A     -0.834497    24A     -0.793097
      25A     -0.778462    26A     -0.703688    27A     -0.674383
      28A     -0.661300    29A     -0.647401    30A     -0.625975
      31A     -0.614564    32A     -0.589905    33A     -0.578439
      34A     -0.568207    35A     -0.565235    36A     -0.551924
      37A     -0.533266    38A     -0.527974    39A     -0.514770
      40A     -0.505097    41A     -0.490093    42A     -0.479883
      43A     -0.474918    44A     -0.412869    45A     -0.386564
      46A     -0.338164    47A     -0.329149

  @DF-RHF Final Energy:  -553.61655007539650

   => Energetics <=

    Nuclear Repulsion Energy =            793.7059924139829263
    One-Electron Energy =               -2327.1926408844624348
    Two-Electron Energy =                 979.8700983950828913
    Total Energy =                       -553.6165500753965034
  Basis Set: (AUG-CC-PVTZ AUX)
    Blend: AUG-CC-PVTZ-RI
    Molecular point group: c1

    Geometry (in Angstrom), charge = 0, multiplicity = 1:

       Center              X                  Y                   Z               Mass
    ------------   -----------------  -----------------  -----------------  -----------------
         O            0.323357316905     2.341999201163    -1.023507454462    15.994914619570
         N            1.833260616905     1.348067701163     0.250249445538    14.003074004430
         C            1.539002316905    -1.360478798837    -0.786706454462    12.000000000000
         C            2.518501316905    -1.155774798837     0.379543545538    12.000000000000
         C            0.103935316905    -1.112857798837    -0.390831454462    12.000000000000
         C           -0.349092683095     0.200413201163    -0.147995454462    12.000000000000
         C            2.160293316905     0.106355201163     1.168078545538    12.000000000000
         C           -1.687051683095     0.459247201163     0.206428545538    12.000000000000
         C            0.597740316905     1.350961201163    -0.338710454462    12.000000000000
         C           -0.795459683095    -2.174494798837    -0.249718454462    12.000000000000
         C           -2.553333683095    -0.630963798837     0.346658545538    12.000000000000
         C           -2.119170683095    -1.936836798837     0.116416545538    12.000000000000
         C           -2.190323683095     1.861542201163     0.437885545538    12.000000000000
         H            1.640824316905    -2.377209798837    -1.182564454462     1.007825032230
         H            1.812540316905    -0.679437798837    -1.600298454462     1.007825032230
         H            2.488766316905    -2.015125798837     1.061183545538     1.007825032230
         H            3.539920316905    -1.086867798837    -0.013671454462     1.007825032230
         H            1.317357316905    -0.103336798837     1.833563545538     1.007825032230
         H            2.994788316905     0.427090201163     1.798751545538     1.007825032230
         H            2.453351316905     1.977873201163     0.141986545538     1.007825032230
         H           -0.456799683095    -3.191276798837    -0.442653454462     1.007825032230
         H           -3.588614683095    -0.450644798837     0.630723545538     1.007825032230
         H           -2.812739683095    -2.767744798837     0.225170545538     1.007825032230
         H           -1.543212683095     2.412601201163     1.126539545538     1.007825032230
         H           -2.210652683095     2.426366201163    -0.496469454462     1.007825032230
         H           -3.198441683095     1.833324201163     0.860947545538     1.007825032230

  Basis Set: AUG-CC-PVTZ
    Blend: AUG-CC-PVTZ
  Basis Set: (AUG-CC-PVTZ AUX)
    Blend: AUG-CC-PVTZ-JKFIT
	 Reference Energy          =    -553.6165500753965034 [Eh]
	 Singles Energy            =      -0.0000000000000000 [Eh]
	 Same-Spin Energy          =      -0.6026951202901660 [Eh]
	 Opposite-Spin Energy      =      -1.9023263863987272 [Eh]
	 Correlation Energy        =      -2.5050215066888932 [Eh]
	 Total Energy              =    -556.1215715820853802 [Eh]

	 ================> DF-SCS-MP2 Energies <==================
	-----------------------------------------------------------
	 SCS Same-Spin Scale       =       0.3333333333333333 [-]
	 SCS Opposite-Spin Scale   =       1.2000000000000000 [-]
	 SCS Same-Spin Energy      =      -0.2008983734300553 [Eh]
	 SCS Opposite-Spin Energy  =      -2.2827916636784726 [Eh]
	 SCS Correlation Energy    =      -2.4836900371085280 [Eh]
	 SCS Total Energy          =    -556.1002401125050483 [Eh]
	-----------------------------------------------------------

  Dipole Moment: [D]
     X:     1.5995      Y:    -2.8133      Z:     2.2491     Total:     3.9410

*** Psi4 exiting successfully. Buy a developer a beer!
