                               Psi4 1.4a3.dev225

  ==> Input File <==

--------------------------------------------------------------------------
#psi4
#
memory 32 gb

molecule  {
0 1
  O        0.3130990     2.3704440    -1.0483590
  N        1.7883250     1.2487180     0.2800910
  C        1.5287440    -1.3320340    -0.8115580
  C        2.5082430    -1.1273300     0.3546920
  C        0.0936770    -1.0844130    -0.4156830
  C       -0.3593510     0.2288580    -0.1728470
  C        2.1500350     0.1348000     1.1432270
  C       -1.7923287     0.5060738     0.2067474
  C        0.5874820     1.3794060    -0.3635620
  C       -0.8057180    -2.1460500    -0.2745700
  C       -2.5635920    -0.6025190     0.3218070
  C       -2.1294290    -1.9083920     0.0915650
  C       -2.2005820     1.8899870     0.4130340
  H        1.6305660    -2.3487650    -1.2074160
  H        1.8022820    -0.6509930    -1.6251500
  H        2.4785080    -1.9866810     1.0363320
  H        3.5296620    -1.0584230    -0.0385230
  H        1.3070990    -0.0748920     1.8087120
  H        2.9845300     0.4555350     1.7739000
  H        2.4430930     2.0063180     0.1171350
  H       -0.4670580    -3.1628320    -0.4675050
  H       -3.5988730    -0.4222000     0.6058720
  H       -2.8229980    -2.7393000     0.2003190
  H       -1.5534710     2.4410460     1.1016880
  H       -2.2209110     2.4548110    -0.5213210
  H       -3.2087000     1.8617690     0.8360960
units angstrom
no_reorient  #important for SAPT in psi4, default
symmetry c1  #important for SAPT in psi4, default
}

set PROPERTIES_ORIGIN ["COM"]
properties('MP2/aug-cc-pvtz', properties = ['dipole'])
--------------------------------------------------------------------------

    Molecular point group: c1
  Charge       = 0
  Multiplicity = 1
  Basis Set: AUG-CC-PVTZ
    Blend: AUG-CC-PVTZ
  Basis Set: (AUG-CC-PVTZ AUX)
    Blend: AUG-CC-PVTZ-JKFIT

    Orbital Energies [Eh]
    ---------------------

    Doubly Occupied:

       1A    -20.511912     2A    -15.582528     3A    -11.349779
       4A    -11.274183     5A    -11.256266     6A    -11.254218
       7A    -11.248740     8A    -11.245847     9A    -11.238105
      10A    -11.237172    11A    -11.236454    12A    -11.228198
      13A    -11.214852    14A     -1.366710    15A     -1.234552
      16A     -1.160375    17A     -1.087831    18A     -1.046394
      19A     -1.028438    20A     -0.944067    21A     -0.936394
      22A     -0.876514    23A     -0.827288    24A     -0.774864
      25A     -0.772575    26A     -0.691849    27A     -0.682554
      28A     -0.662631    29A     -0.657925    30A     -0.620323
      31A     -0.614463    32A     -0.594090    33A     -0.582589
      34A     -0.570596    35A     -0.570108    36A     -0.554059
      37A     -0.531978    38A     -0.529742    39A     -0.519253
      40A     -0.507607    41A     -0.487912    42A     -0.477576
      43A     -0.464496    44A     -0.416854    45A     -0.385502
      46A     -0.337774    47A     -0.322625

  @DF-RHF Final Energy:  -553.63074070472726

   => Energetics <=

    Nuclear Repulsion Energy =            794.7181340319455103
    One-Electron Energy =               -2329.2642208920451594
    Two-Electron Energy =                 980.9153461553723901
    Total Energy =                       -553.6307407047272591
  Basis Set: (AUG-CC-PVTZ AUX)
    Blend: AUG-CC-PVTZ-RI
    Molecular point group: c1

    Geometry (in Angstrom), charge = 0, multiplicity = 1:

       Center              X                  Y                   Z               Mass
    ------------   -----------------  -----------------  -----------------  -----------------
         O            0.332642387455     2.350959434191    -1.029606358351    15.994914619570
         N            1.807868387455     1.229233434191     0.298843641649    14.003074004430
         C            1.548287387455    -1.351518565809    -0.792805358351    12.000000000000
         C            2.527786387455    -1.146814565809     0.373444641649    12.000000000000
         C            0.113220387455    -1.103897565809    -0.396930358351    12.000000000000
         C           -0.339807612545     0.209373434191    -0.154094358351    12.000000000000
         C            2.169578387455     0.115315434191     1.161979641649    12.000000000000
         C           -1.772785312545     0.486589234191     0.225500041649    12.000000000000
         C            0.607025387455     1.359921434191    -0.344809358351    12.000000000000
         C           -0.786174612545    -2.165534565809    -0.255817358351    12.000000000000
         C           -2.544048612545    -0.622003565809     0.340559641649    12.000000000000
         C           -2.109885612545    -1.927876565809     0.110317641649    12.000000000000
         C           -2.181038612545     1.870502434191     0.431786641649    12.000000000000
         H            1.650109387455    -2.368249565809    -1.188663358351     1.007825032230
         H            1.821825387455    -0.670477565809    -1.606397358351     1.007825032230
         H            2.498051387455    -2.006165565809     1.055084641649     1.007825032230
         H            3.549205387455    -1.077907565809    -0.019770358351     1.007825032230
         H            1.326642387455    -0.094376565809     1.827464641649     1.007825032230
         H            3.004073387455     0.436050434191     1.792652641649     1.007825032230
         H            2.462636387455     1.986833434191     0.135887641649     1.007825032230
         H           -0.447514612545    -3.182316565809    -0.448752358351     1.007825032230
         H           -3.579329612545    -0.441684565809     0.624624641649     1.007825032230
         H           -2.803454612545    -2.758784565809     0.219071641649     1.007825032230
         H           -1.533927612545     2.421561434191     1.120440641649     1.007825032230
         H           -2.201367612545     2.435326434191    -0.502568358351     1.007825032230
         H           -3.189156612545     1.842284434191     0.854848641649     1.007825032230

  Basis Set: AUG-CC-PVTZ
    Blend: AUG-CC-PVTZ
  Basis Set: (AUG-CC-PVTZ AUX)
    Blend: AUG-CC-PVTZ-JKFIT
	 Reference Energy          =    -553.6307407047272591 [Eh]
	 Singles Energy            =      -0.0000000000000000 [Eh]
	 Same-Spin Energy          =      -0.6047612966638715 [Eh]
	 Opposite-Spin Energy      =      -1.9044226745415944 [Eh]
	 Correlation Energy        =      -2.5091839712054660 [Eh]
	 Total Energy              =    -556.1399246759327752 [Eh]

	 ================> DF-SCS-MP2 Energies <==================
	-----------------------------------------------------------
	 SCS Same-Spin Scale       =       0.3333333333333333 [-]
	 SCS Opposite-Spin Scale   =       1.2000000000000000 [-]
	 SCS Same-Spin Energy      =      -0.2015870988879571 [Eh]
	 SCS Opposite-Spin Energy  =      -2.2853072094499134 [Eh]
	 SCS Correlation Energy    =      -2.4868943083378707 [Eh]
	 SCS Total Energy          =    -556.1176350130651826 [Eh]
	-----------------------------------------------------------

  Dipole Moment: [D]
     X:     1.7166      Y:    -2.4776      Z:     2.2115     Total:     3.7384

*** Psi4 exiting successfully. Buy a developer a beer!
