                               Psi4 1.4a3.dev225

  ==> Input File <==

--------------------------------------------------------------------------
#psi4
#
memory 32 gb

molecule  {
0 1
  O        0.3130990     2.3704440    -1.0483590
  N        1.7883250     1.2487180     0.2800910
  C        1.5287440    -1.3320340    -0.8115580
  C        2.5082430    -1.1273300     0.3546920
  C        0.0936770    -1.0844130    -0.4156830
  C       -0.3593510     0.2288580    -0.1728470
  C        2.1500350     0.1348000     1.1432270
  C       -1.8873475     0.5244556     0.2319177
  C        0.5874820     1.3794060    -0.3635620
  C       -0.8057180    -2.1460500    -0.2745700
  C       -2.5635920    -0.6025190     0.3218070
  C       -2.1294290    -1.9083920     0.0915650
  C       -2.2005820     1.8899870     0.4130340
  H        1.6305660    -2.3487650    -1.2074160
  H        1.8022820    -0.6509930    -1.6251500
  H        2.4785080    -1.9866810     1.0363320
  H        3.5296620    -1.0584230    -0.0385230
  H        1.3070990    -0.0748920     1.8087120
  H        2.9845300     0.4555350     1.7739000
  H        2.4430930     2.0063180     0.1171350
  H       -0.4670580    -3.1628320    -0.4675050
  H       -3.5988730    -0.4222000     0.6058720
  H       -2.8229980    -2.7393000     0.2003190
  H       -1.5534710     2.4410460     1.1016880
  H       -2.2209110     2.4548110    -0.5213210
  H       -3.2087000     1.8617690     0.8360960
units angstrom
no_reorient  #important for SAPT in psi4, default
symmetry c1  #important for SAPT in psi4, default
}

set PROPERTIES_ORIGIN ["COM"]
properties('MP2/aug-cc-pvtz', properties = ['dipole'])
--------------------------------------------------------------------------

    Molecular point group: c1
  Charge       = 0
  Multiplicity = 1
  Basis Set: AUG-CC-PVTZ
    Blend: AUG-CC-PVTZ
  Basis Set: (AUG-CC-PVTZ AUX)
    Blend: AUG-CC-PVTZ-JKFIT

    Orbital Energies [Eh]
    ---------------------

    Doubly Occupied:

       1A    -20.511102     2A    -15.581842     3A    -11.348964
       4A    -11.273429     5A    -11.258662     6A    -11.253605
       7A    -11.252017     8A    -11.246853     9A    -11.238135
      10A    -11.237660    11A    -11.236746    12A    -11.225054
      13A    -11.214873    14A     -1.365778    15A     -1.233663
      16A     -1.158813    17A     -1.092207    18A     -1.051071
      19A     -1.026369    20A     -0.949656    21A     -0.935515
      22A     -0.879493    23A     -0.826063    24A     -0.775369
      25A     -0.764074    26A     -0.689868    27A     -0.682317
      28A     -0.665814    29A     -0.656123    30A     -0.622777
      31A     -0.614549    32A     -0.598549    33A     -0.584382
      34A     -0.574618    35A     -0.571878    36A     -0.552892
      37A     -0.534415    38A     -0.528416    39A     -0.525001
      40A     -0.505742    41A     -0.486041    42A     -0.476497
      43A     -0.447322    44A     -0.413368    45A     -0.384759
      46A     -0.345244    47A     -0.314464

  @DF-RHF Final Energy:  -553.60029887665746

   => Energetics <=

    Nuclear Repulsion Energy =            793.5544733449097521
    One-Electron Energy =               -2326.8854488274341747
    Two-Electron Energy =                 979.7306766058670746
    Total Energy =                       -553.6002988766574617
  Basis Set: (AUG-CC-PVTZ AUX)
    Blend: AUG-CC-PVTZ-RI
    Molecular point group: c1

    Geometry (in Angstrom), charge = 0, multiplicity = 1:

       Center              X                  Y                   Z               Mass
    ------------   -----------------  -----------------  -----------------  -----------------
         O            0.339154251888     2.349699685703    -1.031331338895    15.994914619570
         N            1.814380251888     1.227973685703     0.297118661105    14.003074004430
         C            1.554799251888    -1.352778314297    -0.794530338895    12.000000000000
         C            2.534298251888    -1.148074314297     0.371719661105    12.000000000000
         C            0.119732251888    -1.105157314297    -0.398655338895    12.000000000000
         C           -0.333295748112     0.208113685703    -0.155819338895    12.000000000000
         C            2.176090251888     0.114055685703     1.160254661105    12.000000000000
         C           -1.861292248112     0.503711285703     0.248945361105    12.000000000000
         C            0.613537251888     1.358661685703    -0.346534338895    12.000000000000
         C           -0.779662748112    -2.166794314297    -0.257542338895    12.000000000000
         C           -2.537536748112    -0.623263314297     0.338834661105    12.000000000000
         C           -2.103373748112    -1.929136314297     0.108592661105    12.000000000000
         C           -2.174526748112     1.869242685703     0.430061661105    12.000000000000
         H            1.656621251888    -2.369509314297    -1.190388338895     1.007825032230
         H            1.828337251888    -0.671737314297    -1.608122338895     1.007825032230
         H            2.504563251888    -2.007425314297     1.053359661105     1.007825032230
         H            3.555717251888    -1.079167314297    -0.021495338895     1.007825032230
         H            1.333154251888    -0.095636314297     1.825739661105     1.007825032230
         H            3.010585251888     0.434790685703     1.790927661105     1.007825032230
         H            2.469148251888     1.985573685703     0.134162661105     1.007825032230
         H           -0.441002748112    -3.183576314297    -0.450477338895     1.007825032230
         H           -3.572817748112    -0.442944314297     0.622899661105     1.007825032230
         H           -2.796942748112    -2.760044314297     0.217346661105     1.007825032230
         H           -1.527415748112     2.420301685703     1.118715661105     1.007825032230
         H           -2.194855748112     2.434066685703    -0.504293338895     1.007825032230
         H           -3.182644748112     1.841024685703     0.853123661105     1.007825032230

  Basis Set: AUG-CC-PVTZ
    Blend: AUG-CC-PVTZ
  Basis Set: (AUG-CC-PVTZ AUX)
    Blend: AUG-CC-PVTZ-JKFIT
	 Reference Energy          =    -553.6002988766574617 [Eh]
	 Singles Energy            =      -0.0000000000000000 [Eh]
	 Same-Spin Energy          =      -0.6054021643733458 [Eh]
	 Opposite-Spin Energy      =      -1.9068576384980349 [Eh]
	 Correlation Energy        =      -2.5122598028713807 [Eh]
	 Total Energy              =    -556.1125586795288882 [Eh]

	 ================> DF-SCS-MP2 Energies <==================
	-----------------------------------------------------------
	 SCS Same-Spin Scale       =       0.3333333333333333 [-]
	 SCS Opposite-Spin Scale   =       1.2000000000000000 [-]
	 SCS Same-Spin Energy      =      -0.2018007214577819 [Eh]
	 SCS Opposite-Spin Energy  =      -2.2882291661976417 [Eh]
	 SCS Correlation Energy    =      -2.4900298876554237 [Eh]
	 SCS Total Energy          =    -556.0903287643128579 [Eh]
	-----------------------------------------------------------

  Dipole Moment: [D]
     X:     1.6822      Y:    -2.4084      Z:     2.2235     Total:     3.6843

*** Psi4 exiting successfully. Buy a developer a beer!
