                               Psi4 1.4a3.dev225

  ==> Input File <==

--------------------------------------------------------------------------
#psi4
#
memory 32 gb

molecule  {
0 1
  O        0.3130990     2.3704440    -1.0483590
  N        1.7883250     1.2487180     0.2800910
  C        1.5287440    -1.3320340    -0.8115580
  C        2.5082430    -1.1273300     0.3546920
  C        0.1111948    -1.1003277    -0.4216523
  C       -0.3593510     0.2288580    -0.1728470
  C        2.1500350     0.1348000     1.1432270
  C       -1.6973100     0.4876920     0.1815770
  C        0.5874820     1.3794060    -0.3635620
  C       -0.8057180    -2.1460500    -0.2745700
  C       -2.5635920    -0.6025190     0.3218070
  C       -2.1294290    -1.9083920     0.0915650
  C       -2.2005820     1.8899870     0.4130340
  H        1.6305660    -2.3487650    -1.2074160
  H        1.8022820    -0.6509930    -1.6251500
  H        2.4785080    -1.9866810     1.0363320
  H        3.5296620    -1.0584230    -0.0385230
  H        1.3070990    -0.0748920     1.8087120
  H        2.9845300     0.4555350     1.7739000
  H        2.4430930     2.0063180     0.1171350
  H       -0.4670580    -3.1628320    -0.4675050
  H       -3.5988730    -0.4222000     0.6058720
  H       -2.8229980    -2.7393000     0.2003190
  H       -1.5534710     2.4410460     1.1016880
  H       -2.2209110     2.4548110    -0.5213210
  H       -3.2087000     1.8617690     0.8360960
units angstrom
no_reorient  #important for SAPT in psi4, default
symmetry c1  #important for SAPT in psi4, default
}

set PROPERTIES_ORIGIN ["COM"]
properties('MP2/aug-cc-pvtz', properties = ['dipole'])
--------------------------------------------------------------------------

    Molecular point group: c1
  Charge       = 0
  Multiplicity = 1
  Basis Set: AUG-CC-PVTZ
    Blend: AUG-CC-PVTZ
  Basis Set: (AUG-CC-PVTZ AUX)
    Blend: AUG-CC-PVTZ-JKFIT

    Orbital Energies [Eh]
    ---------------------

    Doubly Occupied:

       1A    -20.512360     2A    -15.582914     3A    -11.349870
       4A    -11.274990     5A    -11.255720     6A    -11.253479
       7A    -11.244561     8A    -11.243716     9A    -11.238176
      10A    -11.237419    11A    -11.235526    12A    -11.233103
      13A    -11.215912    14A     -1.367261    15A     -1.235238
      16A     -1.162257    17A     -1.087058    18A     -1.044453
      19A     -1.027678    20A     -0.943320    21A     -0.933667
      22A     -0.874272    23A     -0.830762    24A     -0.785010
      25A     -0.767451    26A     -0.694028    27A     -0.683167
      28A     -0.660620    29A     -0.658813    30A     -0.618913
      31A     -0.615853    32A     -0.591076    33A     -0.584054
      34A     -0.569846    35A     -0.566043    36A     -0.553825
      37A     -0.531969    38A     -0.530275    39A     -0.514142
      40A     -0.505866    41A     -0.487983    42A     -0.478616
      43A     -0.475906    44A     -0.416806    45A     -0.385985
      46A     -0.334233    47A     -0.327681

  @DF-RHF Final Energy:  -553.64179534784421

   => Energetics <=

    Nuclear Repulsion Energy =            795.7531604444106961
    One-Electron Energy =               -2331.3461715011267188
    Two-Electron Energy =                 981.9512157088718141
    Total Energy =                       -553.6417953478442087
  Basis Set: (AUG-CC-PVTZ AUX)
    Blend: AUG-CC-PVTZ-RI
    Molecular point group: c1

    Geometry (in Angstrom), charge = 0, multiplicity = 1:

       Center              X                  Y                   Z               Mass
    ------------   -----------------  -----------------  -----------------  -----------------
         O            0.324929993364     2.353309854934    -1.027472280622    15.994914619570
         N            1.800155993364     1.231583854934     0.300977719378    14.003074004430
         C            1.540574993364    -1.349168145066    -0.790671280622    12.000000000000
         C            2.520073993364    -1.144464145066     0.375578719378    12.000000000000
         C            0.123025793364    -1.117461845066    -0.400765580622    12.000000000000
         C           -0.347520006636     0.211723854934    -0.151960280622    12.000000000000
         C            2.161865993364     0.117665854934     1.164113719378    12.000000000000
         C           -1.685479006636     0.470557854934     0.202463719378    12.000000000000
         C            0.599312993364     1.362271854934    -0.342675280622    12.000000000000
         C           -0.793887006636    -2.163184145066    -0.253683280622    12.000000000000
         C           -2.551761006636    -0.619653145066     0.342693719378    12.000000000000
         C           -2.117598006636    -1.925526145066     0.112451719378    12.000000000000
         C           -2.188751006636     1.872852854934     0.433920719378    12.000000000000
         H            1.642396993364    -2.365899145066    -1.186529280622     1.007825032230
         H            1.814112993364    -0.668127145066    -1.604263280622     1.007825032230
         H            2.490338993364    -2.003815145066     1.057218719378     1.007825032230
         H            3.541492993364    -1.075557145066    -0.017636280622     1.007825032230
         H            1.318929993364    -0.092026145066     1.829598719378     1.007825032230
         H            2.996360993364     0.438400854934     1.794786719378     1.007825032230
         H            2.454923993364     1.989183854934     0.138021719378     1.007825032230
         H           -0.455227006636    -3.179966145066    -0.446618280622     1.007825032230
         H           -3.587042006636    -0.439334145066     0.626758719378     1.007825032230
         H           -2.811167006636    -2.756434145066     0.221205719378     1.007825032230
         H           -1.541640006636     2.423911854934     1.122574719378     1.007825032230
         H           -2.209080006636     2.437676854934    -0.500434280622     1.007825032230
         H           -3.196869006636     1.844634854934     0.856982719378     1.007825032230

  Basis Set: AUG-CC-PVTZ
    Blend: AUG-CC-PVTZ
  Basis Set: (AUG-CC-PVTZ AUX)
    Blend: AUG-CC-PVTZ-JKFIT
	 Reference Energy          =    -553.6417953478442087 [Eh]
	 Singles Energy            =      -0.0000000000000000 [Eh]
	 Same-Spin Energy          =      -0.6044717923483789 [Eh]
	 Opposite-Spin Energy      =      -1.9034900910001777 [Eh]
	 Correlation Energy        =      -2.5079618833485569 [Eh]
	 Total Energy              =    -556.1497572311927797 [Eh]

	 ================> DF-SCS-MP2 Energies <==================
	-----------------------------------------------------------
	 SCS Same-Spin Scale       =       0.3333333333333333 [-]
	 SCS Opposite-Spin Scale   =       1.2000000000000000 [-]
	 SCS Same-Spin Energy      =      -0.2014905974494596 [Eh]
	 SCS Opposite-Spin Energy  =      -2.2841881092002132 [Eh]
	 SCS Correlation Energy    =      -2.4856787066496726 [Eh]
	 SCS Total Energy          =    -556.1274740544938595 [Eh]
	-----------------------------------------------------------

  Dipole Moment: [D]
     X:     1.7410      Y:    -2.5400      Z:     2.2038     Total:     3.7868

*** Psi4 exiting successfully. Buy a developer a beer!
