                               Psi4 1.4a3.dev225

  ==> Input File <==

--------------------------------------------------------------------------
#psi4
#
memory 32 gb

molecule  {
0 1
  O        0.3130990     2.3704440    -1.0483590
  N        1.7883250     1.2487180     0.2800910
  C        1.5287440    -1.3320340    -0.8115580
  C        2.5082430    -1.1273300     0.3546920
  C        0.0936770    -1.0844130    -0.4156830
  C       -0.3593510     0.2288580    -0.1728470
  C        2.1500350     0.1348000     1.1432270
  C       -1.6973100     0.4876920     0.1815770
  C        0.5874820     1.3794060    -0.3635620
  C       -0.8057180    -2.1460500    -0.2745700
  C       -2.5635920    -0.6025190     0.3218070
  C       -2.1294290    -1.9083920     0.0915650
  C       -2.2172716     1.9364901     0.4207096
  H        1.6305660    -2.3487650    -1.2074160
  H        1.8022820    -0.6509930    -1.6251500
  H        2.4785080    -1.9866810     1.0363320
  H        3.5296620    -1.0584230    -0.0385230
  H        1.3070990    -0.0748920     1.8087120
  H        2.9845300     0.4555350     1.7739000
  H        2.4430930     2.0063180     0.1171350
  H       -0.4670580    -3.1628320    -0.4675050
  H       -3.5988730    -0.4222000     0.6058720
  H       -2.8229980    -2.7393000     0.2003190
  H       -1.5534710     2.4410460     1.1016880
  H       -2.2209110     2.4548110    -0.5213210
  H       -3.2087000     1.8617690     0.8360960
units angstrom
no_reorient  #important for SAPT in psi4, default
symmetry c1  #important for SAPT in psi4, default
}

set PROPERTIES_ORIGIN ["COM"]
properties('MP2/aug-cc-pvtz', properties = ['dipole'])
--------------------------------------------------------------------------

    Molecular point group: c1
  Charge       = 0
  Multiplicity = 1
  Basis Set: AUG-CC-PVTZ
    Blend: AUG-CC-PVTZ
  Basis Set: (AUG-CC-PVTZ AUX)
    Blend: AUG-CC-PVTZ-JKFIT

    Orbital Energies [Eh]
    ---------------------

    Doubly Occupied:

       1A    -20.512718     2A    -15.583028     3A    -11.350235
       4A    -11.274869     5A    -11.255083     6A    -11.254104
       7A    -11.244277     8A    -11.241947     9A    -11.238168
      10A    -11.237333    11A    -11.235157    12A    -11.232688
      13A    -11.215181    14A     -1.367553    15A     -1.235327
      16A     -1.162390    17A     -1.083179    18A     -1.041620
      19A     -1.027908    20A     -0.943203    21A     -0.933576
      22A     -0.873738    23A     -0.830457    24A     -0.784438
      25A     -0.769875    26A     -0.693845    27A     -0.682600
      28A     -0.659539    29A     -0.657746    30A     -0.618767
      31A     -0.614928    32A     -0.589905    33A     -0.584015
      34A     -0.572053    35A     -0.563816    36A     -0.554072
      37A     -0.537615    38A     -0.531198    39A     -0.513401
      40A     -0.503977    41A     -0.486661    42A     -0.480817
      43A     -0.471158    44A     -0.417623    45A     -0.386132
      46A     -0.336465    47A     -0.328269

  @DF-RHF Final Energy:  -553.64172150613922

   => Energetics <=

    Nuclear Repulsion Energy =            795.0214776344982965
    One-Electron Energy =               -2329.9010975491805766
    Two-Electron Energy =                 981.2378984085430602
    Total Energy =                       -553.6417215061392199
  Basis Set: (AUG-CC-PVTZ AUX)
    Blend: AUG-CC-PVTZ-RI
    Molecular point group: c1

    Geometry (in Angstrom), charge = 0, multiplicity = 1:

       Center              X                  Y                   Z               Mass
    ------------   -----------------  -----------------  -----------------  -----------------
         O            0.327274307872     2.349032214596    -1.028407398083    15.994914619570
         N            1.802500307872     1.227306214596     0.300042601917    14.003074004430
         C            1.542919307872    -1.353445785404    -0.791606398083    12.000000000000
         C            2.522418307872    -1.148741785404     0.374643601917    12.000000000000
         C            0.107852307872    -1.105824785404    -0.395731398083    12.000000000000
         C           -0.345175692128     0.207446214596    -0.152895398083    12.000000000000
         C            2.164210307872     0.113388214596     1.163178601917    12.000000000000
         C           -1.683134692128     0.466280214596     0.201528601917    12.000000000000
         C            0.601657307872     1.357994214596    -0.343610398083    12.000000000000
         C           -0.791542692128    -2.167461785404    -0.254618398083    12.000000000000
         C           -2.549416692128    -0.623930785404     0.341758601917    12.000000000000
         C           -2.115253692128    -1.929803785404     0.111516601917    12.000000000000
         C           -2.203096292128     1.915078314596     0.440661201917    12.000000000000
         H            1.644741307872    -2.370176785404    -1.187464398083     1.007825032230
         H            1.816457307872    -0.672404785404    -1.605198398083     1.007825032230
         H            2.492683307872    -2.008092785404     1.056283601917     1.007825032230
         H            3.543837307872    -1.079834785404    -0.018571398083     1.007825032230
         H            1.321274307872    -0.096303785404     1.828663601917     1.007825032230
         H            2.998705307872     0.434123214596     1.793851601917     1.007825032230
         H            2.457268307872     1.984906214596     0.137086601917     1.007825032230
         H           -0.452882692128    -3.184243785404    -0.447553398083     1.007825032230
         H           -3.584697692128    -0.443611785404     0.625823601917     1.007825032230
         H           -2.808822692128    -2.760711785404     0.220270601917     1.007825032230
         H           -1.539295692128     2.419634214596     1.121639601917     1.007825032230
         H           -2.206735692128     2.433399214596    -0.501369398083     1.007825032230
         H           -3.194524692128     1.840357214596     0.856047601917     1.007825032230

  Basis Set: AUG-CC-PVTZ
    Blend: AUG-CC-PVTZ
  Basis Set: (AUG-CC-PVTZ AUX)
    Blend: AUG-CC-PVTZ-JKFIT
	 Reference Energy          =    -553.6417215061392199 [Eh]
	 Singles Energy            =      -0.0000000000000000 [Eh]
	 Same-Spin Energy          =      -0.6038047200057381 [Eh]
	 Opposite-Spin Energy      =      -1.9028080124004376 [Eh]
	 Correlation Energy        =      -2.5066127324061758 [Eh]
	 Total Energy              =    -556.1483342385454307 [Eh]

	 ================> DF-SCS-MP2 Energies <==================
	-----------------------------------------------------------
	 SCS Same-Spin Scale       =       0.3333333333333333 [-]
	 SCS Opposite-Spin Scale   =       1.2000000000000000 [-]
	 SCS Same-Spin Energy      =      -0.2012682400019127 [Eh]
	 SCS Opposite-Spin Energy  =      -2.2833696148805251 [Eh]
	 SCS Correlation Energy    =      -2.4846378548824379 [Eh]
	 SCS Total Energy          =    -556.1263593610216276 [Eh]
	-----------------------------------------------------------

  Dipole Moment: [D]
     X:     1.7285      Y:    -2.5561      Z:     2.2089     Total:     3.7948

*** Psi4 exiting successfully. Buy a developer a beer!
