                               Psi4 1.4a3.dev225

  ==> Input File <==

--------------------------------------------------------------------------
#psi4
#
memory 32 gb

molecule  {
0 1
  O        0.3130990     2.3704440    -1.0483590
  N        1.7883250     1.2487180     0.2800910
  C        1.5287440    -1.3320340    -0.8115580
  C        2.5082430    -1.1273300     0.3546920
  C        0.0936770    -1.0844130    -0.4156830
  C       -0.3593510     0.2288580    -0.1728470
  C        2.0119998     0.0775993     1.1138187
  C       -1.6973100     0.4876920     0.1815770
  C        0.5874820     1.3794060    -0.3635620
  C       -0.8057180    -2.1460500    -0.2745700
  C       -2.5635920    -0.6025190     0.3218070
  C       -2.1294290    -1.9083920     0.0915650
  C       -2.2005820     1.8899870     0.4130340
  H        1.6305660    -2.3487650    -1.2074160
  H        1.8022820    -0.6509930    -1.6251500
  H        2.4785080    -1.9866810     1.0363320
  H        3.5296620    -1.0584230    -0.0385230
  H        1.3070990    -0.0748920     1.8087120
  H        2.9845300     0.4555350     1.7739000
  H        2.4430930     2.0063180     0.1171350
  H       -0.4670580    -3.1628320    -0.4675050
  H       -3.5988730    -0.4222000     0.6058720
  H       -2.8229980    -2.7393000     0.2003190
  H       -1.5534710     2.4410460     1.1016880
  H       -2.2209110     2.4548110    -0.5213210
  H       -3.2087000     1.8617690     0.8360960
units angstrom
no_reorient  #important for SAPT in psi4, default
symmetry c1  #important for SAPT in psi4, default
}

set PROPERTIES_ORIGIN ["COM"]
properties('MP2/aug-cc-pvtz', properties = ['dipole'])
--------------------------------------------------------------------------

    Molecular point group: c1
  Charge       = 0
  Multiplicity = 1
  Basis Set: AUG-CC-PVTZ
    Blend: AUG-CC-PVTZ
  Basis Set: (AUG-CC-PVTZ AUX)
    Blend: AUG-CC-PVTZ-JKFIT

    Orbital Energies [Eh]
    ---------------------

    Doubly Occupied:

       1A    -20.512183     2A    -15.584729     3A    -11.347888
       4A    -11.278928     5A    -11.255007     6A    -11.254377
       7A    -11.245236     8A    -11.242953     9A    -11.238798
      10A    -11.236790    11A    -11.236310    12A    -11.233715
      13A    -11.216553    14A     -1.367740    15A     -1.238598
      16A     -1.164614    17A     -1.088481    18A     -1.046136
      19A     -1.029163    20A     -0.944865    21A     -0.932133
      22A     -0.871525    23A     -0.836525    24A     -0.783690
      25A     -0.773924    26A     -0.697879    27A     -0.690830
      28A     -0.663405    29A     -0.651745    30A     -0.627452
      31A     -0.610621    32A     -0.595599    33A     -0.581987
      34A     -0.569998    35A     -0.566531    36A     -0.554072
      37A     -0.536475    38A     -0.530826    39A     -0.511487
      40A     -0.505160    41A     -0.481362    42A     -0.479635
      43A     -0.465359    44A     -0.415643    45A     -0.389251
      46A     -0.337345    47A     -0.328423

  @DF-RHF Final Energy:  -553.61627353834319

   => Energetics <=

    Nuclear Repulsion Energy =            798.1414285428108997
    One-Electron Energy =               -2336.0115087899052924
    Two-Electron Energy =                 984.2538067087511990
    Total Energy =                       -553.6162735383431936
  Basis Set: (AUG-CC-PVTZ AUX)
    Blend: AUG-CC-PVTZ-RI
    Molecular point group: c1

    Geometry (in Angstrom), charge = 0, multiplicity = 1:

       Center              X                  Y                   Z               Mass
    ------------   -----------------  -----------------  -----------------  -----------------
         O            0.335590410545     2.356139282741    -1.025865950186    15.994914619570
         N            1.810816410545     1.234413282741     0.302584049814    14.003074004430
         C            1.551235410545    -1.346338717259    -0.789064950186    12.000000000000
         C            2.530734410545    -1.141634717259     0.377185049814    12.000000000000
         C            0.116168410545    -1.098717717259    -0.393189950186    12.000000000000
         C           -0.336859589455     0.214553282741    -0.150353950186    12.000000000000
         C            2.034491210545     0.063294582741     1.136311749814    12.000000000000
         C           -1.674818589455     0.473387282741     0.204070049814    12.000000000000
         C            0.609973410545     1.365101282741    -0.341068950186    12.000000000000
         C           -0.783226589455    -2.160354717259    -0.252076950186    12.000000000000
         C           -2.541100589455    -0.616823717259     0.344300049814    12.000000000000
         C           -2.106937589455    -1.922696717259     0.114058049814    12.000000000000
         C           -2.178090589455     1.875682282741     0.435527049814    12.000000000000
         H            1.653057410545    -2.363069717259    -1.184922950186     1.007825032230
         H            1.824773410545    -0.665297717259    -1.602656950186     1.007825032230
         H            2.500999410545    -2.000985717259     1.058825049814     1.007825032230
         H            3.552153410545    -1.072727717259    -0.016029950186     1.007825032230
         H            1.329590410545    -0.089196717259     1.831205049814     1.007825032230
         H            3.007021410545     0.441230282741     1.796393049814     1.007825032230
         H            2.465584410545     1.992013282741     0.139628049814     1.007825032230
         H           -0.444566589455    -3.177136717259    -0.445011950186     1.007825032230
         H           -3.576381589455    -0.436504717259     0.628365049814     1.007825032230
         H           -2.800506589455    -2.753604717259     0.222812049814     1.007825032230
         H           -1.530979589455     2.426741282741     1.124181049814     1.007825032230
         H           -2.198419589455     2.440506282741    -0.498827950186     1.007825032230
         H           -3.186208589455     1.847464282741     0.858589049814     1.007825032230

  Basis Set: AUG-CC-PVTZ
    Blend: AUG-CC-PVTZ
  Basis Set: (AUG-CC-PVTZ AUX)
    Blend: AUG-CC-PVTZ-JKFIT
	 Reference Energy          =    -553.6162735383431936 [Eh]
	 Singles Energy            =      -0.0000000000000000 [Eh]
	 Same-Spin Energy          =      -0.6053224457554218 [Eh]
	 Opposite-Spin Energy      =      -1.9053444235022903 [Eh]
	 Correlation Energy        =      -2.5106668692577121 [Eh]
	 Total Energy              =    -556.1269404076009550 [Eh]

	 ================> DF-SCS-MP2 Energies <==================
	-----------------------------------------------------------
	 SCS Same-Spin Scale       =       0.3333333333333333 [-]
	 SCS Opposite-Spin Scale   =       1.2000000000000000 [-]
	 SCS Same-Spin Energy      =      -0.2017741485851406 [Eh]
	 SCS Opposite-Spin Energy  =      -2.2864133082027482 [Eh]
	 SCS Correlation Energy    =      -2.4881874567878888 [Eh]
	 SCS Total Energy          =    -556.1044609951310349 [Eh]
	-----------------------------------------------------------

  Dipole Moment: [D]
     X:     1.5999      Y:    -2.6017      Z:     2.1398     Total:     3.7292

*** Psi4 exiting successfully. Buy a developer a beer!
