                               Psi4 1.4a3.dev225

  ==> Input File <==

--------------------------------------------------------------------------
#psi4
#
memory 32 gb

molecule  {
0 1
  O        0.3130990     2.3704440    -1.0483590
  N        1.7883250     1.2487180     0.2800910
  C        1.5287440    -1.3320340    -0.8115580
  C        2.5082430    -1.1273300     0.3546920
  C        0.0936770    -1.0844130    -0.4156830
  C       -0.3593510     0.2288580    -0.1728470
  C        2.1500350     0.1348000     1.1432270
  C       -1.6973100     0.4876920     0.1815770
  C        0.5874820     1.3794060    -0.3635620
  C       -0.8057180    -2.1460500    -0.2745700
  C       -2.5635920    -0.6025190     0.3218070
  C       -2.0850390    -1.8909784     0.0816561
  C       -2.2005820     1.8899870     0.4130340
  H        1.6305660    -2.3487650    -1.2074160
  H        1.8022820    -0.6509930    -1.6251500
  H        2.4785080    -1.9866810     1.0363320
  H        3.5296620    -1.0584230    -0.0385230
  H        1.3070990    -0.0748920     1.8087120
  H        2.9845300     0.4555350     1.7739000
  H        2.4430930     2.0063180     0.1171350
  H       -0.4670580    -3.1628320    -0.4675050
  H       -3.5988730    -0.4222000     0.6058720
  H       -2.8229980    -2.7393000     0.2003190
  H       -1.5534710     2.4410460     1.1016880
  H       -2.2209110     2.4548110    -0.5213210
  H       -3.2087000     1.8617690     0.8360960
units angstrom
no_reorient  #important for SAPT in psi4, default
symmetry c1  #important for SAPT in psi4, default
}

set PROPERTIES_ORIGIN ["COM"]
properties('MP2/aug-cc-pvtz', properties = ['dipole'])
--------------------------------------------------------------------------

    Molecular point group: c1
  Charge       = 0
  Multiplicity = 1
  Basis Set: AUG-CC-PVTZ
    Blend: AUG-CC-PVTZ
  Basis Set: (AUG-CC-PVTZ AUX)
    Blend: AUG-CC-PVTZ-JKFIT

    Orbital Energies [Eh]
    ---------------------

    Doubly Occupied:

       1A    -20.512551     2A    -15.583056     3A    -11.350235
       4A    -11.275007     5A    -11.254934     6A    -11.253031
       7A    -11.242990     8A    -11.241313     9A    -11.238484
      10A    -11.237714    11A    -11.231862    12A    -11.230772
      13A    -11.215628    14A     -1.367491    15A     -1.235379
      16A     -1.167318    17A     -1.084797    18A     -1.048991
      19A     -1.028250    20A     -0.943319    21A     -0.934732
      22A     -0.873833    23A     -0.828570    24A     -0.785092
      25A     -0.768970    26A     -0.695445    27A     -0.683546
      28A     -0.660511    29A     -0.655800    30A     -0.620377
      31A     -0.615360    32A     -0.586804    33A     -0.583849
      34A     -0.571065    35A     -0.567788    36A     -0.553390
      37A     -0.533193    38A     -0.531843    39A     -0.514678
      40A     -0.499733    41A     -0.486063    42A     -0.482356
      43A     -0.475905    44A     -0.416993    45A     -0.386067
      46A     -0.338771    47A     -0.328121

  @DF-RHF Final Energy:  -553.64053681093958

   => Energetics <=

    Nuclear Repulsion Energy =            796.9640145869102525
    One-Electron Energy =               -2333.7651491561928196
    Two-Electron Energy =                 983.1605977583429876
    Total Energy =                       -553.6405368109395795
  Basis Set: (AUG-CC-PVTZ AUX)
    Blend: AUG-CC-PVTZ-RI
    Molecular point group: c1

    Geometry (in Angstrom), charge = 0, multiplicity = 1:

       Center              X                  Y                   Z               Mass
    ------------   -----------------  -----------------  -----------------  -----------------
         O            0.323088377564     2.351025787240    -1.027202290461    15.994914619570
         N            1.798314377564     1.229299787240     0.301247709539    14.003074004430
         C            1.538733377564    -1.351452212760    -0.790401290461    12.000000000000
         C            2.518232377564    -1.146748212760     0.375848709539    12.000000000000
         C            0.103666377564    -1.103831212760    -0.394526290461    12.000000000000
         C           -0.349361622436     0.209439787240    -0.151690290461    12.000000000000
         C            2.160024377564     0.115381787240     1.164383709539    12.000000000000
         C           -1.687320622436     0.468273787240     0.202733709539    12.000000000000
         C            0.597471377564     1.359987787240    -0.342405290461    12.000000000000
         C           -0.795728622436    -2.165468212760    -0.253413290461    12.000000000000
         C           -2.553602622436    -0.621937212760     0.342963709539    12.000000000000
         C           -2.075049622436    -1.910396612760     0.102812809539    12.000000000000
         C           -2.190592622436     1.870568787240     0.434190709539    12.000000000000
         H            1.640555377564    -2.368183212760    -1.186259290461     1.007825032230
         H            1.812271377564    -0.670411212760    -1.603993290461     1.007825032230
         H            2.488497377564    -2.006099212760     1.057488709539     1.007825032230
         H            3.539651377564    -1.077841212760    -0.017366290461     1.007825032230
         H            1.317088377564    -0.094310212760     1.829868709539     1.007825032230
         H            2.994519377564     0.436116787240     1.795056709539     1.007825032230
         H            2.453082377564     1.986899787240     0.138291709539     1.007825032230
         H           -0.457068622436    -3.182250212760    -0.446348290461     1.007825032230
         H           -3.588883622436    -0.441618212760     0.627028709539     1.007825032230
         H           -2.813008622436    -2.758718212760     0.221475709539     1.007825032230
         H           -1.543481622436     2.421627787240     1.122844709539     1.007825032230
         H           -2.210921622436     2.435392787240    -0.500164290461     1.007825032230
         H           -3.198710622436     1.842350787240     0.857252709539     1.007825032230

  Basis Set: AUG-CC-PVTZ
    Blend: AUG-CC-PVTZ
  Basis Set: (AUG-CC-PVTZ AUX)
    Blend: AUG-CC-PVTZ-JKFIT
	 Reference Energy          =    -553.6405368109395795 [Eh]
	 Singles Energy            =      -0.0000000000000000 [Eh]
	 Same-Spin Energy          =      -0.6041914814042102 [Eh]
	 Opposite-Spin Energy      =      -1.9028786669425775 [Eh]
	 Correlation Energy        =      -2.5070701483467879 [Eh]
	 Total Energy              =    -556.1476069592863496 [Eh]

	 ================> DF-SCS-MP2 Energies <==================
	-----------------------------------------------------------
	 SCS Same-Spin Scale       =       0.3333333333333333 [-]
	 SCS Opposite-Spin Scale   =       1.2000000000000000 [-]
	 SCS Same-Spin Energy      =      -0.2013971604680700 [Eh]
	 SCS Opposite-Spin Energy  =      -2.2834544003310930 [Eh]
	 SCS Correlation Energy    =      -2.4848515607991630 [Eh]
	 SCS Total Energy          =    -556.1253883717387225 [Eh]
	-----------------------------------------------------------

  Dipole Moment: [D]
     X:     1.7388      Y:    -2.5223      Z:     2.2026     Total:     3.7732

*** Psi4 exiting successfully. Buy a developer a beer!
