                               Psi4 1.4a3.dev225

  ==> Input File <==

--------------------------------------------------------------------------
#psi4
#
memory 32 gb

molecule  {
0 1
  O        0.3130990     2.3704440    -1.0483590
  N        1.7883250     1.2487180     0.2800910
  C        1.5287440    -1.3320340    -0.8115580
  C        2.5168923    -1.1525209     0.3515409
  C        0.0936770    -1.0844130    -0.4156830
  C       -0.3593510     0.2288580    -0.1728470
  C        2.1500350     0.1348000     1.1432270
  C       -1.6973100     0.4876920     0.1815770
  C        0.5874820     1.3794060    -0.3635620
  C       -0.8057180    -2.1460500    -0.2745700
  C       -2.5635920    -0.6025190     0.3218070
  C       -2.1294290    -1.9083920     0.0915650
  C       -2.2005820     1.8899870     0.4130340
  H        1.6305660    -2.3487650    -1.2074160
  H        1.8022820    -0.6509930    -1.6251500
  H        2.4785080    -1.9866810     1.0363320
  H        3.5296620    -1.0584230    -0.0385230
  H        1.3070990    -0.0748920     1.8087120
  H        2.9845300     0.4555350     1.7739000
  H        2.4430930     2.0063180     0.1171350
  H       -0.4670580    -3.1628320    -0.4675050
  H       -3.5988730    -0.4222000     0.6058720
  H       -2.8229980    -2.7393000     0.2003190
  H       -1.5534710     2.4410460     1.1016880
  H       -2.2209110     2.4548110    -0.5213210
  H       -3.2087000     1.8617690     0.8360960
units angstrom
no_reorient  #important for SAPT in psi4, default
symmetry c1  #important for SAPT in psi4, default
}

set PROPERTIES_ORIGIN ["COM"]
properties('MP2/aug-cc-pvtz', properties = ['dipole'])
--------------------------------------------------------------------------

    Molecular point group: c1
  Charge       = 0
  Multiplicity = 1
  Basis Set: AUG-CC-PVTZ
    Blend: AUG-CC-PVTZ
  Basis Set: (AUG-CC-PVTZ AUX)
    Blend: AUG-CC-PVTZ-JKFIT

    Orbital Energies [Eh]
    ---------------------

    Doubly Occupied:

       1A    -20.512706     2A    -15.583314     3A    -11.350276
       4A    -11.275491     5A    -11.254368     6A    -11.253456
       7A    -11.244393     8A    -11.242023     9A    -11.238048
      10A    -11.236550    11A    -11.235321    12A    -11.232738
      13A    -11.215882    14A     -1.367558    15A     -1.234496
      16A     -1.163670    17A     -1.083902    18A     -1.044644
      19A     -1.027199    20A     -0.942164    21A     -0.932835
      22A     -0.874156    23A     -0.831460    24A     -0.784964
      25A     -0.769874    26A     -0.693689    27A     -0.682113
      28A     -0.660182    29A     -0.658641    30A     -0.617675
      31A     -0.615757    32A     -0.590417    33A     -0.584046
      34A     -0.570112    35A     -0.565978    36A     -0.552924
      37A     -0.533565    38A     -0.530949    39A     -0.513355
      40A     -0.505438    41A     -0.487932    42A     -0.479782
      43A     -0.474625    44A     -0.417499    45A     -0.384732
      46A     -0.336479    47A     -0.327547

  @DF-RHF Final Energy:  -553.64270334587059

   => Energetics <=

    Nuclear Repulsion Energy =            795.5460312090687012
    One-Electron Energy =               -2330.9476216932653188
    Two-Electron Energy =                 981.7588871383261448
    Total Energy =                       -553.6427033458705864
  Basis Set: (AUG-CC-PVTZ AUX)
    Blend: AUG-CC-PVTZ-RI
    Molecular point group: c1

    Geometry (in Angstrom), charge = 0, multiplicity = 1:

       Center              X                  Y                   Z               Mass
    ------------   -----------------  -----------------  -----------------  -----------------
         O            0.325537772769     2.353945574990    -1.027665418573    15.994914619570
         N            1.800763772769     1.232219574990     0.300784581427    14.003074004430
         C            1.541182772769    -1.348532425010    -0.790864418573    12.000000000000
         C            2.529331072769    -1.169019325010     0.372234481427    12.000000000000
         C            0.106115772769    -1.100911425010    -0.394989418573    12.000000000000
         C           -0.346912227231     0.212359574990    -0.152153418573    12.000000000000
         C            2.162473772769     0.118301574990     1.163920581427    12.000000000000
         C           -1.684871227231     0.471193574990     0.202270581427    12.000000000000
         C            0.599920772769     1.362907574990    -0.342868418573    12.000000000000
         C           -0.793279227231    -2.162548425010    -0.253876418573    12.000000000000
         C           -2.551153227231    -0.619017425010     0.342500581427    12.000000000000
         C           -2.116990227231    -1.924890425010     0.112258581427    12.000000000000
         C           -2.188143227231     1.873488574990     0.433727581427    12.000000000000
         H            1.643004772769    -2.365263425010    -1.186722418573     1.007825032230
         H            1.814720772769    -0.667491425010    -1.604456418573     1.007825032230
         H            2.490946772769    -2.003179425010     1.057025581427     1.007825032230
         H            3.542100772769    -1.074921425010    -0.017829418573     1.007825032230
         H            1.319537772769    -0.091390425010     1.829405581427     1.007825032230
         H            2.996968772769     0.439036574990     1.794593581427     1.007825032230
         H            2.455531772769     1.989819574990     0.137828581427     1.007825032230
         H           -0.454619227231    -3.179330425010    -0.446811418573     1.007825032230
         H           -3.586434227231    -0.438698425010     0.626565581427     1.007825032230
         H           -2.810559227231    -2.755798425010     0.221012581427     1.007825032230
         H           -1.541032227231     2.424547574990     1.122381581427     1.007825032230
         H           -2.208472227231     2.438312574990    -0.500627418573     1.007825032230
         H           -3.196261227231     1.845270574990     0.856789581427     1.007825032230

  Basis Set: AUG-CC-PVTZ
    Blend: AUG-CC-PVTZ
  Basis Set: (AUG-CC-PVTZ AUX)
    Blend: AUG-CC-PVTZ-JKFIT
	 Reference Energy          =    -553.6427033458705864 [Eh]
	 Singles Energy            =      -0.0000000000000000 [Eh]
	 Same-Spin Energy          =      -0.6040848283963896 [Eh]
	 Opposite-Spin Energy      =      -1.9030305592204138 [Eh]
	 Correlation Energy        =      -2.5071153876168033 [Eh]
	 Total Energy              =    -556.1498187334873364 [Eh]

	 ================> DF-SCS-MP2 Energies <==================
	-----------------------------------------------------------
	 SCS Same-Spin Scale       =       0.3333333333333333 [-]
	 SCS Opposite-Spin Scale   =       1.2000000000000000 [-]
	 SCS Same-Spin Energy      =      -0.2013616094654632 [Eh]
	 SCS Opposite-Spin Energy  =      -2.2836366710644964 [Eh]
	 SCS Correlation Energy    =      -2.4849982805299597 [Eh]
	 SCS Total Energy          =    -556.1277016264004942 [Eh]
	-----------------------------------------------------------

  Dipole Moment: [D]
     X:     1.7260      Y:    -2.5411      Z:     2.2066     Total:     3.7822

*** Psi4 exiting successfully. Buy a developer a beer!
