                               Psi4 1.4a3.dev225

  ==> Input File <==

--------------------------------------------------------------------------
#psi4
#
memory 32 gb

molecule  {
0 1
  O        0.3130990     2.3704440    -1.0483590
  N        1.7883250     1.2487180     0.2800910
  C        1.5287440    -1.3320340    -0.8115580
  C        2.5082430    -1.1273300     0.3546920
  C       -0.0014158    -1.0680047    -0.3894509
  C       -0.3593510     0.2288580    -0.1728470
  C        2.1500350     0.1348000     1.1432270
  C       -1.6973100     0.4876920     0.1815770
  C        0.5874820     1.3794060    -0.3635620
  C       -0.8057180    -2.1460500    -0.2745700
  C       -2.5635920    -0.6025190     0.3218070
  C       -2.1294290    -1.9083920     0.0915650
  C       -2.2005820     1.8899870     0.4130340
  H        1.6305660    -2.3487650    -1.2074160
  H        1.8022820    -0.6509930    -1.6251500
  H        2.4785080    -1.9866810     1.0363320
  H        3.5296620    -1.0584230    -0.0385230
  H        1.3070990    -0.0748920     1.8087120
  H        2.9845300     0.4555350     1.7739000
  H        2.4430930     2.0063180     0.1171350
  H       -0.4670580    -3.1628320    -0.4675050
  H       -3.5988730    -0.4222000     0.6058720
  H       -2.8229980    -2.7393000     0.2003190
  H       -1.5534710     2.4410460     1.1016880
  H       -2.2209110     2.4548110    -0.5213210
  H       -3.2087000     1.8617690     0.8360960
units angstrom
no_reorient  #important for SAPT in psi4, default
symmetry c1  #important for SAPT in psi4, default
}

set PROPERTIES_ORIGIN ["COM"]
properties('MP2/aug-cc-pvtz', properties = ['dipole'])
--------------------------------------------------------------------------

    Molecular point group: c1
  Charge       = 0
  Multiplicity = 1
  Basis Set: AUG-CC-PVTZ
    Blend: AUG-CC-PVTZ
  Basis Set: (AUG-CC-PVTZ AUX)
    Blend: AUG-CC-PVTZ-JKFIT

    Orbital Energies [Eh]
    ---------------------

    Doubly Occupied:

       1A    -20.514315     2A    -15.583365     3A    -11.352966
       4A    -11.274289     5A    -11.253791     6A    -11.247875
       7A    -11.244735     8A    -11.239540     9A    -11.237445
      10A    -11.235390    11A    -11.231568    12A    -11.229910
      13A    -11.215740    14A     -1.368933    15A     -1.235324
      16A     -1.171845    17A     -1.075559    18A     -1.048525
      19A     -1.030518    20A     -0.942553    21A     -0.933477
      22A     -0.872310    23A     -0.826188    24A     -0.784895
      25A     -0.776861    26A     -0.695238    27A     -0.681378
      28A     -0.663461    29A     -0.657593    30A     -0.619193
      31A     -0.613052    32A     -0.591859    33A     -0.583332
      34A     -0.572732    35A     -0.565735    36A     -0.549344
      37A     -0.532763    38A     -0.528821    39A     -0.513046
      40A     -0.505630    41A     -0.490693    42A     -0.484848
      43A     -0.453720    44A     -0.420247    45A     -0.385934
      46A     -0.341405    47A     -0.331854

  @DF-RHF Final Energy:  -553.63458888700177

   => Energetics <=

    Nuclear Repulsion Energy =            796.5188199686825783
    One-Electron Energy =               -2332.8872388085383136
    Two-Electron Energy =                 982.7338299528538528
    Total Energy =                       -553.6345888870017689
  Basis Set: (AUG-CC-PVTZ AUX)
    Blend: AUG-CC-PVTZ-RI
    Molecular point group: c1

    Geometry (in Angstrom), charge = 0, multiplicity = 1:

       Center              X                  Y                   Z               Mass
    ------------   -----------------  -----------------  -----------------  -----------------
         O            0.332647465705     2.351094682841    -1.029679119178    15.994914619570
         N            1.807873465705     1.229368682841     0.298770880822    14.003074004430
         C            1.548292465705    -1.351383317159    -0.792878119178    12.000000000000
         C            2.527791465705    -1.146679317159     0.373371880822    12.000000000000
         C            0.018132665705    -1.087354017159    -0.370771019178    12.000000000000
         C           -0.339802534295     0.209508682841    -0.154167119178    12.000000000000
         C            2.169583465705     0.115450682841     1.161906880822    12.000000000000
         C           -1.677761534295     0.468342682841     0.200256880822    12.000000000000
         C            0.607030465705     1.360056682841    -0.344882119178    12.000000000000
         C           -0.786169534295    -2.165399317159    -0.255890119178    12.000000000000
         C           -2.544043534295    -0.621868317159     0.340486880822    12.000000000000
         C           -2.109880534295    -1.927741317159     0.110244880822    12.000000000000
         C           -2.181033534295     1.870637682841     0.431713880822    12.000000000000
         H            1.650114465705    -2.368114317159    -1.188736119178     1.007825032230
         H            1.821830465705    -0.670342317159    -1.606470119178     1.007825032230
         H            2.498056465705    -2.006030317159     1.055011880822     1.007825032230
         H            3.549210465705    -1.077772317159    -0.019843119178     1.007825032230
         H            1.326647465705    -0.094241317159     1.827391880822     1.007825032230
         H            3.004078465705     0.436185682841     1.792579880822     1.007825032230
         H            2.462641465705     1.986968682841     0.135814880822     1.007825032230
         H           -0.447509534295    -3.182181317159    -0.448825119178     1.007825032230
         H           -3.579324534295    -0.441549317159     0.624551880822     1.007825032230
         H           -2.803449534295    -2.758649317159     0.218998880822     1.007825032230
         H           -1.533922534295     2.421696682841     1.120367880822     1.007825032230
         H           -2.201362534295     2.435461682841    -0.502641119178     1.007825032230
         H           -3.189151534295     1.842419682841     0.854775880822     1.007825032230

  Basis Set: AUG-CC-PVTZ
    Blend: AUG-CC-PVTZ
  Basis Set: (AUG-CC-PVTZ AUX)
    Blend: AUG-CC-PVTZ-JKFIT
	 Reference Energy          =    -553.6345888870017689 [Eh]
	 Singles Energy            =      -0.0000000000000000 [Eh]
	 Same-Spin Energy          =      -0.6034936883168303 [Eh]
	 Opposite-Spin Energy      =      -1.9023066186663362 [Eh]
	 Correlation Energy        =      -2.5058003069831667 [Eh]
	 Total Energy              =    -556.1403891939849018 [Eh]

	 ================> DF-SCS-MP2 Energies <==================
	-----------------------------------------------------------
	 SCS Same-Spin Scale       =       0.3333333333333333 [-]
	 SCS Opposite-Spin Scale   =       1.2000000000000000 [-]
	 SCS Same-Spin Energy      =      -0.2011645627722767 [Eh]
	 SCS Opposite-Spin Energy  =      -2.2827679423996035 [Eh]
	 SCS Correlation Energy    =      -2.4839325051718801 [Eh]
	 SCS Total Energy          =    -556.1185213921736477 [Eh]
	-----------------------------------------------------------

  Dipole Moment: [D]
     X:     1.6566      Y:    -2.5200      Z:     2.2140     Total:     3.7412

*** Psi4 exiting successfully. Buy a developer a beer!
