                               Psi4 1.4a3.dev225

  ==> Input File <==

--------------------------------------------------------------------------
#psi4
#
memory 32 gb

molecule  {
0 1
  O        0.3130990     2.3704440    -1.0483590
  N        1.7883250     1.2487180     0.2800910
  C        1.5287440    -1.3320340    -0.8115580
  C        2.5082430    -1.1273300     0.3546920
  C        0.0936770    -1.0844130    -0.4156830
  C       -0.3593510     0.2288580    -0.1728470
  C        2.1500350     0.1348000     1.1432270
  C       -1.6973100     0.4876920     0.1815770
  C        0.5874820     1.3794060    -0.3635620
  C       -0.8057180    -2.1460500    -0.2745700
  C       -2.5635920    -0.6025190     0.3218070
  C       -2.1294290    -1.9083920     0.0915650
  C       -2.2005820     1.8899870     0.4130340
  H        1.6305660    -2.3487650    -1.2074160
  H        1.8022820    -0.6509930    -1.6251500
  H        2.4785080    -1.9866810     1.0363320
  H        3.5296620    -1.0584230    -0.0385230
  H        1.3070990    -0.0748920     1.8087120
  H        2.9845300     0.4555350     1.7739000
  H        2.4430930     2.0063180     0.1171350
  H       -0.4670580    -3.1628320    -0.4675050
  H       -3.5988730    -0.4222000     0.6058720
  H       -2.9505176    -2.8920708     0.2203145
  H       -1.5534710     2.4410460     1.1016880
  H       -2.2209110     2.4548110    -0.5213210
  H       -3.2087000     1.8617690     0.8360960
units angstrom
no_reorient  #important for SAPT in psi4, default
symmetry c1  #important for SAPT in psi4, default
}

set PROPERTIES_ORIGIN ["COM"]
properties('MP2/aug-cc-pvtz', properties = ['dipole'])
--------------------------------------------------------------------------

    Molecular point group: c1
  Charge       = 0
  Multiplicity = 1
  Basis Set: AUG-CC-PVTZ
    Blend: AUG-CC-PVTZ
  Basis Set: (AUG-CC-PVTZ AUX)
    Blend: AUG-CC-PVTZ-JKFIT

    Orbital Energies [Eh]
    ---------------------

    Doubly Occupied:

       1A    -20.513372     2A    -15.583673     3A    -11.351037
       4A    -11.275470     5A    -11.265902     6A    -11.255910
       7A    -11.255103     8A    -11.243004     9A    -11.239189
      10A    -11.238066    11A    -11.237564    12A    -11.234969
      13A    -11.216878    14A     -1.368263    15A     -1.236011
      16A     -1.164608    17A     -1.085484    18A     -1.042976
      19A     -1.028551    20A     -0.944030    21A     -0.934298
      22A     -0.869866    23A     -0.827741    24A     -0.783398
      25A     -0.768279    26A     -0.694625    27A     -0.683501
      28A     -0.660185    29A     -0.646926    30A     -0.620205
      31A     -0.611521    32A     -0.585278    33A     -0.580669
      34A     -0.568737    35A     -0.565161    36A     -0.553929
      37A     -0.532371    38A     -0.530832    39A     -0.514668
      40A     -0.497887    41A     -0.484970    42A     -0.480677
      43A     -0.473516    44A     -0.417764    45A     -0.386662
      46A     -0.337701    47A     -0.328924

  @DF-RHF Final Energy:  -553.62102920223469

   => Energetics <=

    Nuclear Repulsion Energy =            794.9844973510433874
    One-Electron Energy =               -2329.7703434022982947
    Two-Electron Energy =                 981.1648168490200987
    Total Energy =                       -553.6210292022346948
  Basis Set: (AUG-CC-PVTZ AUX)
    Blend: AUG-CC-PVTZ-RI
    Molecular point group: c1

    Geometry (in Angstrom), charge = 0, multiplicity = 1:

       Center              X                  Y                   Z               Mass
    ------------   -----------------  -----------------  -----------------  -----------------
         O            0.326864497066     2.353098488720    -1.027996459465    15.994914619570
         N            1.802090497066     1.231372488720     0.300453540535    14.003074004430
         C            1.542509497066    -1.349379511280    -0.791195459465    12.000000000000
         C            2.522008497066    -1.144675511280     0.375054540535    12.000000000000
         C            0.107442497066    -1.101758511280    -0.395320459465    12.000000000000
         C           -0.345585502934     0.211512488720    -0.152484459465    12.000000000000
         C            2.163800497066     0.117454488720     1.163589540535    12.000000000000
         C           -1.683544502934     0.470346488720     0.201939540535    12.000000000000
         C            0.601247497066     1.362060488720    -0.343199459465    12.000000000000
         C           -0.791952502934    -2.163395511280    -0.254207459465    12.000000000000
         C           -2.549826502934    -0.619864511280     0.342169540535    12.000000000000
         C           -2.115663502934    -1.925737511280     0.111927540535    12.000000000000
         C           -2.186816502934     1.872641488720     0.433396540535    12.000000000000
         H            1.644331497066    -2.366110511280    -1.187053459465     1.007825032230
         H            1.816047497066    -0.668338511280    -1.604787459465     1.007825032230
         H            2.492273497066    -2.004026511280     1.056694540535     1.007825032230
         H            3.543427497066    -1.075768511280    -0.018160459465     1.007825032230
         H            1.320864497066    -0.092237511280     1.829074540535     1.007825032230
         H            2.998295497066     0.438189488720     1.794262540535     1.007825032230
         H            2.456858497066     1.988972488720     0.137497540535     1.007825032230
         H           -0.453292502934    -3.180177511280    -0.447142459465     1.007825032230
         H           -3.585107502934    -0.439545511280     0.626234540535     1.007825032230
         H           -2.936752102934    -2.909416311280     0.240677040535     1.007825032230
         H           -1.539705502934     2.423700488720     1.122050540535     1.007825032230
         H           -2.207145502934     2.437465488720    -0.500958459465     1.007825032230
         H           -3.194934502934     1.844423488720     0.856458540535     1.007825032230

  Basis Set: AUG-CC-PVTZ
    Blend: AUG-CC-PVTZ
  Basis Set: (AUG-CC-PVTZ AUX)
    Blend: AUG-CC-PVTZ-JKFIT
	 Reference Energy          =    -553.6210292022346948 [Eh]
	 Singles Energy            =      -0.0000000000000000 [Eh]
	 Same-Spin Energy          =      -0.6046879031984940 [Eh]
	 Opposite-Spin Energy      =      -1.9054380203670407 [Eh]
	 Correlation Energy        =      -2.5101259235655347 [Eh]
	 Total Energy              =    -556.1311551258002055 [Eh]

	 ================> DF-SCS-MP2 Energies <==================
	-----------------------------------------------------------
	 SCS Same-Spin Scale       =       0.3333333333333333 [-]
	 SCS Opposite-Spin Scale   =       1.2000000000000000 [-]
	 SCS Same-Spin Energy      =      -0.2015626343994980 [Eh]
	 SCS Opposite-Spin Energy  =      -2.2865256244404488 [Eh]
	 SCS Correlation Energy    =      -2.4880882588399467 [Eh]
	 SCS Total Energy          =    -556.1091174610746748 [Eh]
	-----------------------------------------------------------

  Dipole Moment: [D]
     X:     1.8145      Y:    -2.4407      Z:     2.1957     Total:     3.7511

*** Psi4 exiting successfully. Buy a developer a beer!
