                               Psi4 1.4a3.dev225

  ==> Input File <==

--------------------------------------------------------------------------
#psi4
#
memory 32 gb

molecule  {
0 1
  O        0.3130990     2.3704440    -1.0483590
  N        1.7883250     1.2487180     0.2800910
  C        1.5183663    -1.3836447    -0.8133907
  C        2.5082430    -1.1273300     0.3546920
  C        0.0936770    -1.0844130    -0.4156830
  C       -0.3593510     0.2288580    -0.1728470
  C        2.1500350     0.1348000     1.1432270
  C       -1.6973100     0.4876920     0.1815770
  C        0.5874820     1.3794060    -0.3635620
  C       -0.8057180    -2.1460500    -0.2745700
  C       -2.5635920    -0.6025190     0.3218070
  C       -2.1294290    -1.9083920     0.0915650
  C       -2.2005820     1.8899870     0.4130340
  H        1.6305660    -2.3487650    -1.2074160
  H        1.8022820    -0.6509930    -1.6251500
  H        2.4785080    -1.9866810     1.0363320
  H        3.5296620    -1.0584230    -0.0385230
  H        1.3070990    -0.0748920     1.8087120
  H        2.9845300     0.4555350     1.7739000
  H        2.4430930     2.0063180     0.1171350
  H       -0.4670580    -3.1628320    -0.4675050
  H       -3.5988730    -0.4222000     0.6058720
  H       -2.8229980    -2.7393000     0.2003190
  H       -1.5534710     2.4410460     1.1016880
  H       -2.2209110     2.4548110    -0.5213210
  H       -3.2087000     1.8617690     0.8360960
units angstrom
no_reorient  #important for SAPT in psi4, default
symmetry c1  #important for SAPT in psi4, default
}

set PROPERTIES_ORIGIN ["COM"]
properties('MP2/aug-cc-pvtz', properties = ['dipole'])
--------------------------------------------------------------------------

    Molecular point group: c1
  Charge       = 0
  Multiplicity = 1
  Basis Set: AUG-CC-PVTZ
    Blend: AUG-CC-PVTZ
  Basis Set: (AUG-CC-PVTZ AUX)
    Blend: AUG-CC-PVTZ-JKFIT

    Orbital Energies [Eh]
    ---------------------

    Doubly Occupied:

       1A    -20.512508     2A    -15.582993     3A    -11.350203
       4A    -11.275665     5A    -11.254677     6A    -11.253850
       7A    -11.244120     8A    -11.242628     9A    -11.238463
      10A    -11.237905    11A    -11.234410    12A    -11.232444
      13A    -11.216042    14A     -1.367389    15A     -1.234898
      16A     -1.163707    17A     -1.083678    18A     -1.044306
      19A     -1.028060    20A     -0.944825    21A     -0.932758
      22A     -0.873739    23A     -0.828872    24A     -0.786041
      25A     -0.770774    26A     -0.693521    27A     -0.683547
      28A     -0.659512    29A     -0.657214    30A     -0.622322
      31A     -0.614274    32A     -0.590404    33A     -0.582757
      34A     -0.571871    35A     -0.565794    36A     -0.555818
      37A     -0.531367    38A     -0.528136    39A     -0.512786
      40A     -0.506210    41A     -0.493721    42A     -0.475281
      43A     -0.473118    44A     -0.417137    45A     -0.385935
      46A     -0.336165    47A     -0.326907

  @DF-RHF Final Energy:  -553.64043927106241

   => Energetics <=

    Nuclear Repulsion Energy =            795.4436039232849680
    One-Electron Energy =               -2330.7305739705816450
    Two-Electron Energy =                 981.6465307762341581
    Total Energy =                       -553.6404392710624052
  Basis Set: (AUG-CC-PVTZ AUX)
    Blend: AUG-CC-PVTZ-RI
    Molecular point group: c1

    Geometry (in Angstrom), charge = 0, multiplicity = 1:

       Center              X                  Y                   Z               Mass
    ------------   -----------------  -----------------  -----------------  -----------------
         O            0.326841738348     2.355756186742    -1.027755771662    15.994914619570
         N            1.802067738348     1.234030186742     0.300694228338    14.003074004430
         C            1.532109038348    -1.398332513258    -0.792787471662    12.000000000000
         C            2.521985738348    -1.142017813258     0.375295228338    12.000000000000
         C            0.107419738348    -1.099100813258    -0.395079771662    12.000000000000
         C           -0.345608261652     0.214170186742    -0.152243771662    12.000000000000
         C            2.163777738348     0.120112186742     1.163830228338    12.000000000000
         C           -1.683567261652     0.473004186742     0.202180228338    12.000000000000
         C            0.601224738348     1.364718186742    -0.342958771662    12.000000000000
         C           -0.791975261652    -2.160737813258    -0.253966771662    12.000000000000
         C           -2.549849261652    -0.617206813258     0.342410228338    12.000000000000
         C           -2.115686261652    -1.923079813258     0.112168228338    12.000000000000
         C           -2.186839261652     1.875299186742     0.433637228338    12.000000000000
         H            1.644308738348    -2.363452813258    -1.186812771662     1.007825032230
         H            1.816024738348    -0.665680813258    -1.604546771662     1.007825032230
         H            2.492250738348    -2.001368813258     1.056935228338     1.007825032230
         H            3.543404738348    -1.073110813258    -0.017919771662     1.007825032230
         H            1.320841738348    -0.089579813258     1.829315228338     1.007825032230
         H            2.998272738348     0.440847186742     1.794503228338     1.007825032230
         H            2.456835738348     1.991630186742     0.137738228338     1.007825032230
         H           -0.453315261652    -3.177519813258    -0.446901771662     1.007825032230
         H           -3.585130261652    -0.436887813258     0.626475228338     1.007825032230
         H           -2.809255261652    -2.753987813258     0.220922228338     1.007825032230
         H           -1.539728261652     2.426358186742     1.122291228338     1.007825032230
         H           -2.207168261652     2.440123186742    -0.500717771662     1.007825032230
         H           -3.194957261652     1.847081186742     0.856699228338     1.007825032230

  Basis Set: AUG-CC-PVTZ
    Blend: AUG-CC-PVTZ
  Basis Set: (AUG-CC-PVTZ AUX)
    Blend: AUG-CC-PVTZ-JKFIT
	 Reference Energy          =    -553.6404392710624052 [Eh]
	 Singles Energy            =      -0.0000000000000000 [Eh]
	 Same-Spin Energy          =      -0.6040536569987752 [Eh]
	 Opposite-Spin Energy      =      -1.9030106954241031 [Eh]
	 Correlation Energy        =      -2.5070643524228782 [Eh]
	 Total Energy              =    -556.1475036234852496 [Eh]

	 ================> DF-SCS-MP2 Energies <==================
	-----------------------------------------------------------
	 SCS Same-Spin Scale       =       0.3333333333333333 [-]
	 SCS Opposite-Spin Scale   =       1.2000000000000000 [-]
	 SCS Same-Spin Energy      =      -0.2013512189995917 [Eh]
	 SCS Opposite-Spin Energy  =      -2.2836128345089235 [Eh]
	 SCS Correlation Energy    =      -2.4849640535085151 [Eh]
	 SCS Total Energy          =    -556.1254033245709252 [Eh]
	-----------------------------------------------------------

  Dipole Moment: [D]
     X:     1.7327      Y:    -2.5605      Z:     2.2079     Total:     3.7991

*** Psi4 exiting successfully. Buy a developer a beer!
