                               Psi4 1.4a3.dev225

  ==> Input File <==

--------------------------------------------------------------------------
#psi4
#
memory 32 gb

molecule  {
0 1
  O        0.3130990     2.3704440    -1.0483590
  N        1.7883250     1.2487180     0.2800910
  C        1.5287440    -1.3320340    -0.8115580
  C        2.5401131    -1.1206695     0.3926385
  C        0.0936770    -1.0844130    -0.4156830
  C       -0.3593510     0.2288580    -0.1728470
  C        2.1500350     0.1348000     1.1432270
  C       -1.6973100     0.4876920     0.1815770
  C        0.5874820     1.3794060    -0.3635620
  C       -0.8057180    -2.1460500    -0.2745700
  C       -2.5635920    -0.6025190     0.3218070
  C       -2.1294290    -1.9083920     0.0915650
  C       -2.2005820     1.8899870     0.4130340
  H        1.6305660    -2.3487650    -1.2074160
  H        1.8022820    -0.6509930    -1.6251500
  H        2.4785080    -1.9866810     1.0363320
  H        3.5296620    -1.0584230    -0.0385230
  H        1.3070990    -0.0748920     1.8087120
  H        2.9845300     0.4555350     1.7739000
  H        2.4430930     2.0063180     0.1171350
  H       -0.4670580    -3.1628320    -0.4675050
  H       -3.5988730    -0.4222000     0.6058720
  H       -2.8229980    -2.7393000     0.2003190
  H       -1.5534710     2.4410460     1.1016880
  H       -2.2209110     2.4548110    -0.5213210
  H       -3.2087000     1.8617690     0.8360960
units angstrom
no_reorient  #important for SAPT in psi4, default
symmetry c1  #important for SAPT in psi4, default
}

set PROPERTIES_ORIGIN ["COM"]
properties('MP2/aug-cc-pvtz', properties = ['dipole'])
--------------------------------------------------------------------------

    Molecular point group: c1
  Charge       = 0
  Multiplicity = 1
  Basis Set: AUG-CC-PVTZ
    Blend: AUG-CC-PVTZ
  Basis Set: (AUG-CC-PVTZ AUX)
    Blend: AUG-CC-PVTZ-JKFIT

    Orbital Energies [Eh]
    ---------------------

    Doubly Occupied:

       1A    -20.512852     2A    -15.583527     3A    -11.350420
       4A    -11.274434     5A    -11.254141     6A    -11.253329
       7A    -11.244240     8A    -11.241682     9A    -11.239667
      10A    -11.236770    11A    -11.234969    12A    -11.232429
      13A    -11.215800    14A     -1.367700    15A     -1.235452
      16A     -1.163182    17A     -1.080868    18A     -1.044268
      19A     -1.030267    20A     -0.942739    21A     -0.931477
      22A     -0.874046    23A     -0.831639    24A     -0.784786
      25A     -0.770069    26A     -0.693799    27A     -0.682971
      28A     -0.659844    29A     -0.659023    30A     -0.619729
      31A     -0.615482    32A     -0.592174    33A     -0.582553
      34A     -0.570066    35A     -0.565550    36A     -0.554041
      37A     -0.531584    38A     -0.530351    39A     -0.512918
      40A     -0.506607    41A     -0.488759    42A     -0.478636
      43A     -0.471010    44A     -0.417605    45A     -0.387667
      46A     -0.336038    47A     -0.326730

  @DF-RHF Final Energy:  -553.64140041246878

   => Energetics <=

    Nuclear Repulsion Energy =            795.3422740614372515
    One-Electron Energy =               -2330.5395666927224738
    Two-Electron Energy =                 981.5558922188163251
    Total Energy =                       -553.6414004124687835
  Basis Set: (AUG-CC-PVTZ AUX)
    Blend: AUG-CC-PVTZ-RI
    Molecular point group: c1

    Geometry (in Angstrom), charge = 0, multiplicity = 1:

       Center              X                  Y                   Z               Mass
    ------------   -----------------  -----------------  -----------------  -----------------
         O            0.323946396098     2.351762722767    -1.030481934881    15.994914619570
         N            1.799172396098     1.230036722767     0.297968065119    14.003074004430
         C            1.539591396098    -1.350715277233    -0.793680934881    12.000000000000
         C            2.550960496098    -1.139350777233     0.410515565119    12.000000000000
         C            0.104524396098    -1.103094277233    -0.397805934881    12.000000000000
         C           -0.348503603902     0.210176722767    -0.154969934881    12.000000000000
         C            2.160882396098     0.116118722767     1.161104065119    12.000000000000
         C           -1.686462603902     0.469010722767     0.199454065119    12.000000000000
         C            0.598329396098     1.360724722767    -0.345684934881    12.000000000000
         C           -0.794870603902    -2.164731277233    -0.256692934881    12.000000000000
         C           -2.552744603902    -0.621200277233     0.339684065119    12.000000000000
         C           -2.118581603902    -1.927073277233     0.109442065119    12.000000000000
         C           -2.189734603902     1.871305722767     0.430911065119    12.000000000000
         H            1.641413396098    -2.367446277233    -1.189538934881     1.007825032230
         H            1.813129396098    -0.669674277233    -1.607272934881     1.007825032230
         H            2.489355396098    -2.005362277233     1.054209065119     1.007825032230
         H            3.540509396098    -1.077104277233    -0.020645934881     1.007825032230
         H            1.317946396098    -0.093573277233     1.826589065119     1.007825032230
         H            2.995377396098     0.436853722767     1.791777065119     1.007825032230
         H            2.453940396098     1.987636722767     0.135012065119     1.007825032230
         H           -0.456210603902    -3.181513277233    -0.449627934881     1.007825032230
         H           -3.588025603902    -0.440881277233     0.623749065119     1.007825032230
         H           -2.812150603902    -2.757981277233     0.218196065119     1.007825032230
         H           -1.542623603902     2.422364722767     1.119565065119     1.007825032230
         H           -2.210063603902     2.436129722767    -0.503443934881     1.007825032230
         H           -3.197852603902     1.843087722767     0.853973065119     1.007825032230

  Basis Set: AUG-CC-PVTZ
    Blend: AUG-CC-PVTZ
  Basis Set: (AUG-CC-PVTZ AUX)
    Blend: AUG-CC-PVTZ-JKFIT
	 Reference Energy          =    -553.6414004124687835 [Eh]
	 Singles Energy            =      -0.0000000000000000 [Eh]
	 Same-Spin Energy          =      -0.6040988152279156 [Eh]
	 Opposite-Spin Energy      =      -1.9030395957310218 [Eh]
	 Correlation Energy        =      -2.5071384109589374 [Eh]
	 Total Energy              =    -556.1485388234277707 [Eh]

	 ================> DF-SCS-MP2 Energies <==================
	-----------------------------------------------------------
	 SCS Same-Spin Scale       =       0.3333333333333333 [-]
	 SCS Opposite-Spin Scale   =       1.2000000000000000 [-]
	 SCS Same-Spin Energy      =      -0.2013662717426385 [Eh]
	 SCS Opposite-Spin Energy  =      -2.2836475148772259 [Eh]
	 SCS Correlation Energy    =      -2.4850137866198643 [Eh]
	 SCS Total Energy          =    -556.1264141990886856 [Eh]
	-----------------------------------------------------------

  Dipole Moment: [D]
     X:     1.7462      Y:    -2.5484      Z:     2.2053     Total:     3.7956

*** Psi4 exiting successfully. Buy a developer a beer!
