                               Psi4 1.4a3.dev225

  ==> Input File <==

--------------------------------------------------------------------------
#psi4
#
memory 32 gb

molecule  {
0 1
  O        0.3130990     2.3704440    -1.0483590
  N        1.7883250     1.2487180     0.2800910
  C        1.5287440    -1.3320340    -0.8115580
  C        2.5082430    -1.1273300     0.3546920
  C        0.0936770    -1.0844130    -0.4156830
  C       -0.3593510     0.2288580    -0.1728470
  C        2.1500350     0.1348000     1.1432270
  C       -1.6973100     0.4876920     0.1815770
  C        0.5874820     1.3794060    -0.3635620
  C       -0.8057180    -2.1460500    -0.2745700
  C       -2.5635920    -0.6025190     0.3218070
  C       -2.1294290    -1.9083920     0.0915650
  C       -2.2005820     1.8899870     0.4130340
  H        1.6305660    -2.3487650    -1.2074160
  H        1.8022820    -0.6509930    -1.6251500
  H        2.4785080    -1.9866810     1.0363320
  H        3.5296620    -1.0584230    -0.0385230
  H        1.3759502    -0.0453922     1.8953610
  H        2.9845300     0.4555350     1.7739000
  H        2.4430930     2.0063180     0.1171350
  H       -0.4670580    -3.1628320    -0.4675050
  H       -3.5988730    -0.4222000     0.6058720
  H       -2.8229980    -2.7393000     0.2003190
  H       -1.5534710     2.4410460     1.1016880
  H       -2.2209110     2.4548110    -0.5213210
  H       -3.2087000     1.8617690     0.8360960
units angstrom
no_reorient  #important for SAPT in psi4, default
symmetry c1  #important for SAPT in psi4, default
}

set PROPERTIES_ORIGIN ["COM"]
properties('MP2/aug-cc-pvtz', properties = ['dipole'])
--------------------------------------------------------------------------

    Molecular point group: c1
  Charge       = 0
  Multiplicity = 1
  Basis Set: AUG-CC-PVTZ
    Blend: AUG-CC-PVTZ
  Basis Set: (AUG-CC-PVTZ AUX)
    Blend: AUG-CC-PVTZ-JKFIT

    Orbital Energies [Eh]
    ---------------------

    Doubly Occupied:

       1A    -20.512976     2A    -15.583794     3A    -11.350372
       4A    -11.274898     5A    -11.253990     6A    -11.253133
       7A    -11.244033     8A    -11.241772     9A    -11.238613
      10A    -11.237899    11A    -11.234957    12A    -11.232386
      13A    -11.215737    14A     -1.367753    15A     -1.235096
      16A     -1.163354    17A     -1.084359    18A     -1.044420
      19A     -1.028679    20A     -0.943136    21A     -0.933464
      22A     -0.873718    23A     -0.830111    24A     -0.784626
      25A     -0.769700    26A     -0.692654    27A     -0.686387
      28A     -0.659230    29A     -0.658786    30A     -0.620826
      31A     -0.614302    32A     -0.590703    33A     -0.582712
      34A     -0.569646    35A     -0.565403    36A     -0.552777
      37A     -0.531317    38A     -0.528628    39A     -0.515397
      40A     -0.504680    41A     -0.487031    42A     -0.479386
      43A     -0.473133    44A     -0.417481    45A     -0.387777
      46A     -0.336154    47A     -0.327205

  @DF-RHF Final Energy:  -553.64218823770659

   => Energetics <=

    Nuclear Repulsion Energy =            795.6441280645025245
    One-Electron Energy =               -2331.1434510692060940
    Two-Electron Energy =                 981.8571347669968645
    Total Energy =                       -553.6421882377065913
  Basis Set: (AUG-CC-PVTZ AUX)
    Blend: AUG-CC-PVTZ-RI
    Molecular point group: c1

    Geometry (in Angstrom), charge = 0, multiplicity = 1:

       Center              X                  Y                   Z               Mass
    ------------   -----------------  -----------------  -----------------  -----------------
         O            0.325734241606     2.352049390072    -1.028380098388    15.994914619570
         N            1.800960241606     1.230323390072     0.300069901612    14.003074004430
         C            1.541379241606    -1.350428609928    -0.791579098388    12.000000000000
         C            2.520878241606    -1.145724609928     0.374670901612    12.000000000000
         C            0.106312241606    -1.102807609928    -0.395704098388    12.000000000000
         C           -0.346715758394     0.210463390072    -0.152868098388    12.000000000000
         C            2.162670241606     0.116405390072     1.163205901612    12.000000000000
         C           -1.684674758394     0.469297390072     0.201555901612    12.000000000000
         C            0.600117241606     1.361011390072    -0.343583098388    12.000000000000
         C           -0.793082758394    -2.164444609928    -0.254591098388    12.000000000000
         C           -2.550956758394    -0.620913609928     0.341785901612    12.000000000000
         C           -2.116793758394    -1.926786609928     0.111543901612    12.000000000000
         C           -2.187946758394     1.871592390072     0.433012901612    12.000000000000
         H            1.643201241606    -2.367159609928    -1.187437098388     1.007825032230
         H            1.814917241606    -0.669387609928    -1.605171098388     1.007825032230
         H            2.491143241606    -2.005075609928     1.056310901612     1.007825032230
         H            3.542297241606    -1.076817609928    -0.018544098388     1.007825032230
         H            1.388585441606    -0.063786809928     1.915339901612     1.007825032230
         H            2.997165241606     0.437140390072     1.793878901612     1.007825032230
         H            2.455728241606     1.987923390072     0.137113901612     1.007825032230
         H           -0.454422758394    -3.181226609928    -0.447526098388     1.007825032230
         H           -3.586237758394    -0.440594609928     0.625850901612     1.007825032230
         H           -2.810362758394    -2.757694609928     0.220297901612     1.007825032230
         H           -1.540835758394     2.422651390072     1.121666901612     1.007825032230
         H           -2.208275758394     2.436416390072    -0.501342098388     1.007825032230
         H           -3.196064758394     1.843374390072     0.856074901612     1.007825032230

  Basis Set: AUG-CC-PVTZ
    Blend: AUG-CC-PVTZ
  Basis Set: (AUG-CC-PVTZ AUX)
    Blend: AUG-CC-PVTZ-JKFIT
	 Reference Energy          =    -553.6421882377065913 [Eh]
	 Singles Energy            =      -0.0000000000000000 [Eh]
	 Same-Spin Energy          =      -0.6040374560752850 [Eh]
	 Opposite-Spin Energy      =      -1.9028799287679408 [Eh]
	 Correlation Energy        =      -2.5069173848432258 [Eh]
	 Total Energy              =    -556.1491056225497687 [Eh]

	 ================> DF-SCS-MP2 Energies <==================
	-----------------------------------------------------------
	 SCS Same-Spin Scale       =       0.3333333333333333 [-]
	 SCS Opposite-Spin Scale   =       1.2000000000000000 [-]
	 SCS Same-Spin Energy      =      -0.2013458186917617 [Eh]
	 SCS Opposite-Spin Energy  =      -2.2834559145215287 [Eh]
	 SCS Correlation Energy    =      -2.4848017332132906 [Eh]
	 SCS Total Energy          =    -556.1269899709199080 [Eh]
	-----------------------------------------------------------

  Dipole Moment: [D]
     X:     1.7517      Y:    -2.5240      Z:     2.2412     Total:     3.8029

*** Psi4 exiting successfully. Buy a developer a beer!
