                               Psi4 1.4a3.dev225

  ==> Input File <==

--------------------------------------------------------------------------
#psi4
#
memory 32 gb

molecule  {
0 1
  O        0.3130990     2.3704440    -1.0483590
  N        1.7883250     1.2487180     0.2800910
  C        1.5287440    -1.3320340    -0.8115580
  C        2.5082430    -1.1273300     0.3546920
  C        0.0936770    -1.0844130    -0.4156830
  C       -0.3593510     0.2288580    -0.1728470
  C        2.1500350     0.1348000     1.1432270
  C       -1.6973100     0.4876920     0.1815770
  C        0.5874820     1.3794060    -0.3635620
  C       -0.8057180    -2.1460500    -0.2745700
  C       -2.5635920    -0.6025190     0.3218070
  C       -2.1294290    -1.9083920     0.0915650
  C       -2.2005820     1.8899870     0.4130340
  H        1.6305660    -2.3487650    -1.2074160
  H        1.8022820    -0.6509930    -1.6251500
  H        2.4812179    -1.9083638     0.9742106
  H        3.5296620    -1.0584230    -0.0385230
  H        1.3070990    -0.0748920     1.8087120
  H        2.9845300     0.4555350     1.7739000
  H        2.4430930     2.0063180     0.1171350
  H       -0.4670580    -3.1628320    -0.4675050
  H       -3.5988730    -0.4222000     0.6058720
  H       -2.8229980    -2.7393000     0.2003190
  H       -1.5534710     2.4410460     1.1016880
  H       -2.2209110     2.4548110    -0.5213210
  H       -3.2087000     1.8617690     0.8360960
units angstrom
no_reorient  #important for SAPT in psi4, default
symmetry c1  #important for SAPT in psi4, default
}

set PROPERTIES_ORIGIN ["COM"]
properties('MP2/aug-cc-pvtz', properties = ['dipole'])
--------------------------------------------------------------------------

    Molecular point group: c1
  Charge       = 0
  Multiplicity = 1
  Basis Set: AUG-CC-PVTZ
    Blend: AUG-CC-PVTZ
  Basis Set: (AUG-CC-PVTZ AUX)
    Blend: AUG-CC-PVTZ-JKFIT

    Orbital Energies [Eh]
    ---------------------

    Doubly Occupied:

       1A    -20.512230     2A    -15.582396     3A    -11.349887
       4A    -11.274205     5A    -11.254094     6A    -11.253344
       7A    -11.244295     8A    -11.241725     9A    -11.237279
      10A    -11.235125    11A    -11.232528    12A    -11.224960
      13A    -11.215746    14A     -1.367135    15A     -1.234872
      16A     -1.163525    17A     -1.086746    18A     -1.044975
      19A     -1.030815    20A     -0.942928    21A     -0.933038
      22A     -0.876112    23A     -0.834942    24A     -0.786428
      25A     -0.769862    26A     -0.694053    27A     -0.684149
      28A     -0.661843    29A     -0.658649    30A     -0.621383
      31A     -0.616148    32A     -0.591221    33A     -0.584943
      34A     -0.569988    35A     -0.565963    36A     -0.552805
      37A     -0.536414    38A     -0.530160    39A     -0.514737
      40A     -0.506902    41A     -0.490112    42A     -0.479898
      43A     -0.473457    44A     -0.417135    45A     -0.385440
      46A     -0.336242    47A     -0.327342

  @DF-RHF Final Energy:  -553.63751813518502

   => Energetics <=

    Nuclear Repulsion Energy =            796.5158825940784482
    One-Electron Energy =               -2332.8504502206578763
    Two-Electron Energy =                 982.6970494913944094
    Total Energy =                       -553.6375181351850188
  Basis Set: (AUG-CC-PVTZ AUX)
    Blend: AUG-CC-PVTZ-RI
    Molecular point group: c1

    Geometry (in Angstrom), charge = 0, multiplicity = 1:

       Center              X                  Y                   Z               Mass
    ------------   -----------------  -----------------  -----------------  -----------------
         O            0.326114932449     2.351768410757    -1.027523817531    15.994914619570
         N            1.801340932449     1.230042410757     0.300926182469    14.003074004430
         C            1.541759932449    -1.350709589243    -0.790722817531    12.000000000000
         C            2.521258932449    -1.146005589243     0.375527182469    12.000000000000
         C            0.106692932449    -1.103088589243    -0.394847817531    12.000000000000
         C           -0.346335067551     0.210182410757    -0.152011817531    12.000000000000
         C            2.163050932449     0.116124410757     1.164062182469    12.000000000000
         C           -1.684294067551     0.469016410757     0.202412182469    12.000000000000
         C            0.600497932449     1.360730410757    -0.342726817531    12.000000000000
         C           -0.792702067551    -2.164725589243    -0.253734817531    12.000000000000
         C           -2.550576067551    -0.621194589243     0.342642182469    12.000000000000
         C           -2.116413067551    -1.927067589243     0.112400182469    12.000000000000
         C           -2.187566067551     1.871311410757     0.433869182469    12.000000000000
         H            1.643581932449    -2.367440589243    -1.186580817531     1.007825032230
         H            1.815297932449    -0.669668589243    -1.604314817531     1.007825032230
         H            2.494233832449    -1.927039389243     0.995045782469     1.007825032230
         H            3.542677932449    -1.077098589243    -0.017687817531     1.007825032230
         H            1.320114932449    -0.093567589243     1.829547182469     1.007825032230
         H            2.997545932449     0.436859410757     1.794735182469     1.007825032230
         H            2.456108932449     1.987642410757     0.137970182469     1.007825032230
         H           -0.454042067551    -3.181507589243    -0.446669817531     1.007825032230
         H           -3.585857067551    -0.440875589243     0.626707182469     1.007825032230
         H           -2.809982067551    -2.757975589243     0.221154182469     1.007825032230
         H           -1.540455067551     2.422370410757     1.122523182469     1.007825032230
         H           -2.207895067551     2.436135410757    -0.500485817531     1.007825032230
         H           -3.195684067551     1.843093410757     0.856931182469     1.007825032230

  Basis Set: AUG-CC-PVTZ
    Blend: AUG-CC-PVTZ
  Basis Set: (AUG-CC-PVTZ AUX)
    Blend: AUG-CC-PVTZ-JKFIT
	 Reference Energy          =    -553.6375181351850188 [Eh]
	 Singles Energy            =      -0.0000000000000000 [Eh]
	 Same-Spin Energy          =      -0.6041584696727649 [Eh]
	 Opposite-Spin Energy      =      -1.9025217154982905 [Eh]
	 Correlation Energy        =      -2.5066801851710556 [Eh]
	 Total Energy              =    -556.1441983203560540 [Eh]

	 ================> DF-SCS-MP2 Energies <==================
	-----------------------------------------------------------
	 SCS Same-Spin Scale       =       0.3333333333333333 [-]
	 SCS Opposite-Spin Scale   =       1.2000000000000000 [-]
	 SCS Same-Spin Energy      =      -0.2013861565575883 [Eh]
	 SCS Opposite-Spin Energy  =      -2.2830260585979487 [Eh]
	 SCS Correlation Energy    =      -2.4844122151555368 [Eh]
	 SCS Total Energy          =    -556.1219303503405627 [Eh]
	-----------------------------------------------------------

  Dipole Moment: [D]
     X:     1.7548      Y:    -2.5820      Z:     2.2427     Total:     3.8439

*** Psi4 exiting successfully. Buy a developer a beer!
