                               Psi4 1.4a3.dev225

  ==> Input File <==

--------------------------------------------------------------------------
#psi4
#
memory 32 gb

molecule  {
0 1
  O        0.3130990     2.3704440    -1.0483590
  N        1.7883250     1.2487180     0.2800910
  C        1.5287440    -1.3320340    -0.8115580
  C        2.5082430    -1.1273300     0.3546920
  C        0.0936770    -1.0844130    -0.4156830
  C       -0.3593510     0.2288580    -0.1728470
  C        2.0118819     0.0777557     1.1140698
  C       -1.6973100     0.4876920     0.1815770
  C        0.5874820     1.3794060    -0.3635620
  C       -0.8057180    -2.1460500    -0.2745700
  C       -2.5635920    -0.6025190     0.3218070
  C       -2.1294290    -1.9083920     0.0915650
  C       -2.2005820     1.8899870     0.4130340
  H        1.6305660    -2.3487650    -1.2074160
  H        1.8022820    -0.6509930    -1.6251500
  H        2.4785080    -1.9866810     1.0363320
  H        3.5296620    -1.0584230    -0.0385230
  H        1.3070990    -0.0748920     1.8087120
  H        2.9845300     0.4555350     1.7739000
  H        2.4430930     2.0063180     0.1171350
  H       -0.4670580    -3.1628320    -0.4675050
  H       -3.5988730    -0.4222000     0.6058720
  H       -2.8229980    -2.7393000     0.2003190
  H       -1.5534710     2.4410460     1.1016880
  H       -2.2209110     2.4548110    -0.5213210
  H       -3.2087000     1.8617690     0.8360960
units angstrom
no_reorient  #important for SAPT in psi4, default
symmetry c1  #important for SAPT in psi4, default
}

set PROPERTIES_ORIGIN ["COM"]
properties('MP2/aug-cc-pvtz', properties = ['dipole'])
--------------------------------------------------------------------------

    Molecular point group: c1
  Charge       = 0
  Multiplicity = 1
  Basis Set: AUG-CC-PVTZ
    Blend: AUG-CC-PVTZ
  Basis Set: (AUG-CC-PVTZ AUX)
    Blend: AUG-CC-PVTZ-JKFIT

    Orbital Energies [Eh]
    ---------------------

    Doubly Occupied:

       1A    -20.512183     2A    -15.584729     3A    -11.347888
       4A    -11.278916     5A    -11.255006     6A    -11.254378
       7A    -11.245236     8A    -11.242952     9A    -11.238806
      10A    -11.236786    11A    -11.236309    12A    -11.233715
      13A    -11.216554    14A     -1.367740    15A     -1.238592
      16A     -1.164614    17A     -1.088457    18A     -1.046132
      19A     -1.029142    20A     -0.944868    21A     -0.932140
      22A     -0.871525    23A     -0.836533    24A     -0.783683
      25A     -0.773931    26A     -0.697900    27A     -0.690827
      28A     -0.663399    29A     -0.651747    30A     -0.627431
      31A     -0.610613    32A     -0.595594    33A     -0.581983
      34A     -0.569999    35A     -0.566535    36A     -0.554071
      37A     -0.536493    38A     -0.530815    39A     -0.511487
      40A     -0.505158    41A     -0.481359    42A     -0.479628
      43A     -0.465385    44A     -0.415643    45A     -0.389237
      46A     -0.337346    47A     -0.328423

  @DF-RHF Final Energy:  -553.61625987282048

   => Energetics <=

    Nuclear Repulsion Energy =            798.1383870807316043
    One-Electron Energy =               -2336.0055180456843118
    Two-Electron Energy =                 984.2508710921321153
    Total Energy =                       -553.6162598728204784
  Basis Set: (AUG-CC-PVTZ AUX)
    Blend: AUG-CC-PVTZ-RI
    Molecular point group: c1

    Geometry (in Angstrom), charge = 0, multiplicity = 1:

       Center              X                  Y                   Z               Mass
    ------------   -----------------  -----------------  -----------------  -----------------
         O            0.335598490513     2.356128564277    -1.025883158667    15.994914619570
         N            1.810824490513     1.234402564277     0.302566841333    14.003074004430
         C            1.551243490513    -1.346349435723    -0.789082158667    12.000000000000
         C            2.530742490513    -1.141645435723     0.377167841333    12.000000000000
         C            0.116176490513    -1.098728435723    -0.393207158667    12.000000000000
         C           -0.336851509487     0.214542564277    -0.150371158667    12.000000000000
         C            2.034381390513     0.063440264277     1.136545641333    12.000000000000
         C           -1.674810509487     0.473376564277     0.204052841333    12.000000000000
         C            0.609981490513     1.365090564277    -0.341086158667    12.000000000000
         C           -0.783218509487    -2.160365435723    -0.252094158667    12.000000000000
         C           -2.541092509487    -0.616834435723     0.344282841333    12.000000000000
         C           -2.106929509487    -1.922707435723     0.114040841333    12.000000000000
         C           -2.178082509487     1.875671564277     0.435509841333    12.000000000000
         H            1.653065490513    -2.363080435723    -1.184940158667     1.007825032230
         H            1.824781490513    -0.665308435723    -1.602674158667     1.007825032230
         H            2.501007490513    -2.000996435723     1.058807841333     1.007825032230
         H            3.552161490513    -1.072738435723    -0.016047158667     1.007825032230
         H            1.329598490513    -0.089207435723     1.831187841333     1.007825032230
         H            3.007029490513     0.441219564277     1.796375841333     1.007825032230
         H            2.465592490513     1.992002564277     0.139610841333     1.007825032230
         H           -0.444558509487    -3.177147435723    -0.445029158667     1.007825032230
         H           -3.576373509487    -0.436515435723     0.628347841333     1.007825032230
         H           -2.800498509487    -2.753615435723     0.222794841333     1.007825032230
         H           -1.530971509487     2.426730564277     1.124163841333     1.007825032230
         H           -2.198411509487     2.440495564277    -0.498845158667     1.007825032230
         H           -3.186200509487     1.847453564277     0.858571841333     1.007825032230

  Basis Set: AUG-CC-PVTZ
    Blend: AUG-CC-PVTZ
  Basis Set: (AUG-CC-PVTZ AUX)
    Blend: AUG-CC-PVTZ-JKFIT
	 Reference Energy          =    -553.6162598728204784 [Eh]
	 Singles Energy            =      -0.0000000000000000 [Eh]
	 Same-Spin Energy          =      -0.6053197857075603 [Eh]
	 Opposite-Spin Energy      =      -1.9053421919386662 [Eh]
	 Correlation Energy        =      -2.5106619776462265 [Eh]
	 Total Energy              =    -556.1269218504667151 [Eh]

	 ================> DF-SCS-MP2 Energies <==================
	-----------------------------------------------------------
	 SCS Same-Spin Scale       =       0.3333333333333333 [-]
	 SCS Opposite-Spin Scale   =       1.2000000000000000 [-]
	 SCS Same-Spin Energy      =      -0.2017732619025201 [Eh]
	 SCS Opposite-Spin Energy  =      -2.2864106303263991 [Eh]
	 SCS Correlation Energy    =      -2.4881838922289190 [Eh]
	 SCS Total Energy          =    -556.1044437650493819 [Eh]
	-----------------------------------------------------------

  Dipole Moment: [D]
     X:     1.5998      Y:    -2.6014      Z:     2.1401     Total:     3.7291

*** Psi4 exiting successfully. Buy a developer a beer!
