                               Psi4 1.4a3.dev225

  ==> Input File <==

--------------------------------------------------------------------------
#psi4
#
memory 32 gb

molecule  {
0 1
  O        0.3130990     2.3704440    -1.0483590
  N        1.7883250     1.2487180     0.2800910
  C        1.5287440    -1.3320340    -0.8115580
  C        2.5082430    -1.1273300     0.3546920
  C        0.0936770    -1.0844130    -0.4156830
  C       -0.3593510     0.2288580    -0.1728470
  C        2.1500350     0.1348000     1.1432270
  C       -1.6973100     0.4876920     0.1815770
  C        0.5874820     1.3794060    -0.3635620
  C       -0.8057180    -2.1460500    -0.2745700
  C       -2.5635920    -0.6025190     0.3218070
  C       -2.1294290    -1.9083920     0.0915650
  C       -2.2005820     1.8899870     0.4130340
  H        1.6305660    -2.3487650    -1.2074160
  H        1.8022820    -0.6509930    -1.6251500
  H        2.4785080    -1.9866810     1.0363320
  H        3.5296620    -1.0584230    -0.0385230
  H        1.3070990    -0.0748920     1.8087120
  H        2.9845300     0.4555350     1.7739000
  H        2.4430930     2.0063180     0.1171350
  H       -0.4670580    -3.1628320    -0.4675050
  H       -3.7890800    -0.3890709     0.6580618
  H       -2.8229980    -2.7393000     0.2003190
  H       -1.5534710     2.4410460     1.1016880
  H       -2.2209110     2.4548110    -0.5213210
  H       -3.2087000     1.8617690     0.8360960
units angstrom
no_reorient  #important for SAPT in psi4, default
symmetry c1  #important for SAPT in psi4, default
}

set PROPERTIES_ORIGIN ["COM"]
properties('MP2/aug-cc-pvtz', properties = ['dipole'])
--------------------------------------------------------------------------

    Molecular point group: c1
  Charge       = 0
  Multiplicity = 1
  Basis Set: AUG-CC-PVTZ
    Blend: AUG-CC-PVTZ
  Basis Set: (AUG-CC-PVTZ AUX)
    Blend: AUG-CC-PVTZ-JKFIT

    Orbital Energies [Eh]
    ---------------------

    Doubly Occupied:

       1A    -20.513460     2A    -15.583810     3A    -11.351346
       4A    -11.275521     5A    -11.256207     6A    -11.255469
       7A    -11.254318     8A    -11.246767     9A    -11.243888
      10A    -11.239054    11A    -11.238066    12A    -11.237041
      13A    -11.215668    14A     -1.368360    15A     -1.236116
      16A     -1.164639    17A     -1.084561    18A     -1.046118
      19A     -1.027407    20A     -0.943693    21A     -0.930646
      22A     -0.873682    23A     -0.829625    24A     -0.780597
      25A     -0.770088    26A     -0.687552    27A     -0.679693
      28A     -0.660220    29A     -0.659240    30A     -0.618805
      31A     -0.615052    32A     -0.591452    33A     -0.580124
      34A     -0.570719    35A     -0.560155    36A     -0.550887
      37A     -0.532025    38A     -0.520781    39A     -0.511598
      40A     -0.505436    41A     -0.489404    42A     -0.480615
      43A     -0.469075    44A     -0.418186    45A     -0.386716
      46A     -0.337934    47A     -0.329032

  @DF-RHF Final Energy:  -553.62101469995696

   => Energetics <=

    Nuclear Repulsion Energy =            794.9794748544215963
    One-Electron Energy =               -2329.7592799803915113
    Two-Electron Energy =                 981.1587904260129562
    Total Energy =                       -553.6210146999569588
  Basis Set: (AUG-CC-PVTZ AUX)
    Blend: AUG-CC-PVTZ-RI
    Molecular point group: c1

    Geometry (in Angstrom), charge = 0, multiplicity = 1:

       Center              X                  Y                   Z               Mass
    ------------   -----------------  -----------------  -----------------  -----------------
         O            0.327225308226     2.352028500835    -1.028181760861    15.994914619570
         N            1.802451308226     1.230302500835     0.300268239139    14.003074004430
         C            1.542870308226    -1.350449499165    -0.791380760861    12.000000000000
         C            2.522369308226    -1.145745499165     0.374869239139    12.000000000000
         C            0.107803308226    -1.102828499165    -0.395505760861    12.000000000000
         C           -0.345224691774     0.210442500835    -0.152669760861    12.000000000000
         C            2.164161308226     0.116384500835     1.163404239139    12.000000000000
         C           -1.683183691774     0.469276500835     0.201754239139    12.000000000000
         C            0.601608308226     1.360990500835    -0.343384760861    12.000000000000
         C           -0.791591691774    -2.164465499165    -0.254392760861    12.000000000000
         C           -2.549465691774    -0.620934499165     0.341984239139    12.000000000000
         C           -2.115302691774    -1.926807499165     0.111742239139    12.000000000000
         C           -2.186455691774     1.871571500835     0.433211239139    12.000000000000
         H            1.644692308226    -2.367180499165    -1.187238760861     1.007825032230
         H            1.816408308226    -0.669408499165    -1.604972760861     1.007825032230
         H            2.492634308226    -2.005096499165     1.056509239139     1.007825032230
         H            3.543788308226    -1.076838499165    -0.018345760861     1.007825032230
         H            1.321225308226    -0.093307499165     1.828889239139     1.007825032230
         H            2.998656308226     0.437119500835     1.794077239139     1.007825032230
         H            2.457219308226     1.987902500835     0.137312239139     1.007825032230
         H           -0.452931691774    -3.181247499165    -0.447327760861     1.007825032230
         H           -3.774953691774    -0.407486399165     0.678239039139     1.007825032230
         H           -2.808871691774    -2.757715499165     0.220496239139     1.007825032230
         H           -1.539344691774     2.422630500835     1.121865239139     1.007825032230
         H           -2.206784691774     2.436395500835    -0.501143760861     1.007825032230
         H           -3.194573691774     1.843353500835     0.856273239139     1.007825032230

  Basis Set: AUG-CC-PVTZ
    Blend: AUG-CC-PVTZ
  Basis Set: (AUG-CC-PVTZ AUX)
    Blend: AUG-CC-PVTZ-JKFIT
	 Reference Energy          =    -553.6210146999569588 [Eh]
	 Singles Energy            =      -0.0000000000000000 [Eh]
	 Same-Spin Energy          =      -0.6047703617133051 [Eh]
	 Opposite-Spin Energy      =      -1.9053509289367543 [Eh]
	 Correlation Energy        =      -2.5101212906500594 [Eh]
	 Total Energy              =    -556.1311359906070493 [Eh]

	 ================> DF-SCS-MP2 Energies <==================
	-----------------------------------------------------------
	 SCS Same-Spin Scale       =       0.3333333333333333 [-]
	 SCS Opposite-Spin Scale   =       1.2000000000000000 [-]
	 SCS Same-Spin Energy      =      -0.2015901205711017 [Eh]
	 SCS Opposite-Spin Energy  =      -2.2864211147241051 [Eh]
	 SCS Correlation Energy    =      -2.4880112352952066 [Eh]
	 SCS Total Energy          =    -556.1090259352521343 [Eh]
	-----------------------------------------------------------

  Dipole Moment: [D]
     X:     1.8503      Y:    -2.5516      Z:     2.1748     Total:     3.8293

*** Psi4 exiting successfully. Buy a developer a beer!
