                               Psi4 1.4a3.dev225

  ==> Input File <==

--------------------------------------------------------------------------
#psi4
#
memory 32 gb

molecule  {
0 1
  O        0.3130990     2.3704440    -1.0483590
  N        1.7883250     1.2487180     0.2800910
  C        1.5287440    -1.3320340    -0.8115580
  C        2.5082430    -1.1273300     0.3546920
  C        0.0936770    -1.0844130    -0.4156830
  C       -0.3593510     0.2288580    -0.1728470
  C        2.1500350     0.1348000     1.1432270
  C       -1.6973100     0.4876920     0.1815770
  C        0.5874820     1.3794060    -0.3635620
  C       -0.8057180    -2.1460500    -0.2745700
  C       -2.5635920    -0.6025190     0.3218070
  C       -2.1605455    -1.8148000     0.1080665
  C       -2.2005820     1.8899870     0.4130340
  H        1.6305660    -2.3487650    -1.2074160
  H        1.8022820    -0.6509930    -1.6251500
  H        2.4785080    -1.9866810     1.0363320
  H        3.5296620    -1.0584230    -0.0385230
  H        1.3070990    -0.0748920     1.8087120
  H        2.9845300     0.4555350     1.7739000
  H        2.4430930     2.0063180     0.1171350
  H       -0.4670580    -3.1628320    -0.4675050
  H       -3.5988730    -0.4222000     0.6058720
  H       -2.8229980    -2.7393000     0.2003190
  H       -1.5534710     2.4410460     1.1016880
  H       -2.2209110     2.4548110    -0.5213210
  H       -3.2087000     1.8617690     0.8360960
units angstrom
no_reorient  #important for SAPT in psi4, default
symmetry c1  #important for SAPT in psi4, default
}

set PROPERTIES_ORIGIN ["COM"]
properties('MP2/aug-cc-pvtz', properties = ['dipole'])
--------------------------------------------------------------------------

    Molecular point group: c1
  Charge       = 0
  Multiplicity = 1
  Basis Set: AUG-CC-PVTZ
    Blend: AUG-CC-PVTZ
  Basis Set: (AUG-CC-PVTZ AUX)
    Blend: AUG-CC-PVTZ-JKFIT

    Orbital Energies [Eh]
    ---------------------

    Doubly Occupied:

       1A    -20.512314     2A    -15.582635     3A    -11.349939
       4A    -11.274720     5A    -11.255899     6A    -11.252783
       7A    -11.241921     8A    -11.240461     9A    -11.238176
      10A    -11.237422    11A    -11.236801    12A    -11.222010
      13A    -11.216930    14A     -1.367216    15A     -1.235077
      16A     -1.168664    17A     -1.087874    18A     -1.043539
      19A     -1.032608    20A     -0.943491    21A     -0.937747
      22A     -0.867004    23A     -0.833124    24A     -0.781013
      25A     -0.770812    26A     -0.695200    27A     -0.683963
      28A     -0.660935    29A     -0.656059    30A     -0.620036
      31A     -0.612300    32A     -0.592381    33A     -0.585138
      34A     -0.570594    35A     -0.563226    36A     -0.553350
      37A     -0.531801    38A     -0.531007    39A     -0.516042
      40A     -0.501144    41A     -0.488938    42A     -0.483692
      43A     -0.466979    44A     -0.416825    45A     -0.385986
      46A     -0.347417    47A     -0.321848

  @DF-RHF Final Energy:  -553.63006023716537

   => Energetics <=

    Nuclear Repulsion Energy =            797.0932914103775602
    One-Electron Energy =               -2334.0166197606522474
    Two-Electron Energy =                 983.2932681131093204
    Total Energy =                       -553.6300602371653667
  Basis Set: (AUG-CC-PVTZ AUX)
    Blend: AUG-CC-PVTZ-RI
    Molecular point group: c1

    Geometry (in Angstrom), charge = 0, multiplicity = 1:

       Center              X                  Y                   Z               Mass
    ------------   -----------------  -----------------  -----------------  -----------------
         O            0.328263017654     2.345805100245    -1.029012258009    15.994914619570
         N            1.803489017654     1.224079100245     0.299437741991    14.003074004430
         C            1.543908017654    -1.356672899755    -0.792211258009    12.000000000000
         C            2.523407017654    -1.151968899755     0.374038741991    12.000000000000
         C            0.108841017654    -1.109051899755    -0.396336258009    12.000000000000
         C           -0.344186982346     0.204219100245    -0.153500258009    12.000000000000
         C            2.165199017654     0.110161100245     1.162573741991    12.000000000000
         C           -1.682145982346     0.463053100245     0.200923741991    12.000000000000
         C            0.602646017654     1.354767100245    -0.344215258009    12.000000000000
         C           -0.790553982346    -2.170688899755    -0.255223258009    12.000000000000
         C           -2.548427982346    -0.627157899755     0.341153741991    12.000000000000
         C           -2.145381482346    -1.839438899755     0.127413241991    12.000000000000
         C           -2.185417982346     1.865348100245     0.432380741991    12.000000000000
         H            1.645730017654    -2.373403899755    -1.188069258009     1.007825032230
         H            1.817446017654    -0.675631899755    -1.605803258009     1.007825032230
         H            2.493672017654    -2.011319899755     1.055678741991     1.007825032230
         H            3.544826017654    -1.083061899755    -0.019176258009     1.007825032230
         H            1.322263017654    -0.099530899755     1.828058741991     1.007825032230
         H            2.999694017654     0.430896100245     1.793246741991     1.007825032230
         H            2.458257017654     1.981679100245     0.136481741991     1.007825032230
         H           -0.451893982346    -3.187470899755    -0.448158258009     1.007825032230
         H           -3.583708982346    -0.446838899755     0.625218741991     1.007825032230
         H           -2.807833982346    -2.763938899755     0.219665741991     1.007825032230
         H           -1.538306982346     2.416407100245     1.121034741991     1.007825032230
         H           -2.205746982346     2.430172100245    -0.501974258009     1.007825032230
         H           -3.193535982346     1.837130100245     0.855442741991     1.007825032230

  Basis Set: AUG-CC-PVTZ
    Blend: AUG-CC-PVTZ
  Basis Set: (AUG-CC-PVTZ AUX)
    Blend: AUG-CC-PVTZ-JKFIT
	 Reference Energy          =    -553.6300602371653667 [Eh]
	 Singles Energy            =      -0.0000000000000000 [Eh]
	 Same-Spin Energy          =      -0.6039056436916609 [Eh]
	 Opposite-Spin Energy      =      -1.9030962139857683 [Eh]
	 Correlation Energy        =      -2.5070018576774293 [Eh]
	 Total Energy              =    -556.1370620948428041 [Eh]

	 ================> DF-SCS-MP2 Energies <==================
	-----------------------------------------------------------
	 SCS Same-Spin Scale       =       0.3333333333333333 [-]
	 SCS Opposite-Spin Scale   =       1.2000000000000000 [-]
	 SCS Same-Spin Energy      =      -0.2013018812305536 [Eh]
	 SCS Opposite-Spin Energy  =      -2.2837154567829221 [Eh]
	 SCS Correlation Energy    =      -2.4850173380134759 [Eh]
	 SCS Total Energy          =    -556.1150775751788160 [Eh]
	-----------------------------------------------------------

  Dipole Moment: [D]
     X:     1.7435      Y:    -2.5237      Z:     2.1997     Total:     3.7746

*** Psi4 exiting successfully. Buy a developer a beer!
