                               Psi4 1.4a3.dev225

  ==> Input File <==

--------------------------------------------------------------------------
#psi4
#
memory 32 gb

molecule  {
0 1
  O        0.3130990     2.3704440    -1.0483590
  N        1.7883250     1.2487180     0.2800910
  C        1.5287440    -1.3320340    -0.8115580
  C        2.4445028    -1.1406510     0.2787991
  C        0.0936770    -1.0844130    -0.4156830
  C       -0.3593510     0.2288580    -0.1728470
  C        2.1500350     0.1348000     1.1432270
  C       -1.6973100     0.4876920     0.1815770
  C        0.5874820     1.3794060    -0.3635620
  C       -0.8057180    -2.1460500    -0.2745700
  C       -2.5635920    -0.6025190     0.3218070
  C       -2.1294290    -1.9083920     0.0915650
  C       -2.2005820     1.8899870     0.4130340
  H        1.6305660    -2.3487650    -1.2074160
  H        1.8022820    -0.6509930    -1.6251500
  H        2.4785080    -1.9866810     1.0363320
  H        3.5296620    -1.0584230    -0.0385230
  H        1.3070990    -0.0748920     1.8087120
  H        2.9845300     0.4555350     1.7739000
  H        2.4430930     2.0063180     0.1171350
  H       -0.4670580    -3.1628320    -0.4675050
  H       -3.5988730    -0.4222000     0.6058720
  H       -2.8229980    -2.7393000     0.2003190
  H       -1.5534710     2.4410460     1.1016880
  H       -2.2209110     2.4548110    -0.5213210
  H       -3.2087000     1.8617690     0.8360960
units angstrom
no_reorient  #important for SAPT in psi4, default
symmetry c1  #important for SAPT in psi4, default
}

set PROPERTIES_ORIGIN ["COM"]
properties('MP2/aug-cc-pvtz', properties = ['dipole'])
--------------------------------------------------------------------------

    Molecular point group: c1
  Charge       = 0
  Multiplicity = 1
  Basis Set: AUG-CC-PVTZ
    Blend: AUG-CC-PVTZ
  Basis Set: (AUG-CC-PVTZ AUX)
    Blend: AUG-CC-PVTZ-JKFIT

    Orbital Energies [Eh]
    ---------------------

    Doubly Occupied:

       1A    -20.512504     2A    -15.582295     3A    -11.350238
       4A    -11.276612     5A    -11.254893     6A    -11.253870
       7A    -11.244784     8A    -11.242744     9A    -11.240936
      10A    -11.235986    11A    -11.234310    12A    -11.233275
      13A    -11.216146    14A     -1.367487    15A     -1.235432
      16A     -1.165163    17A     -1.095297    18A     -1.045858
      19A     -1.026546    20A     -0.944481    21A     -0.936283
      22A     -0.872877    23A     -0.827048    24A     -0.784727
      25A     -0.769401    26A     -0.694592    27A     -0.683190
      28A     -0.661458    29A     -0.659135    30A     -0.621103
      31A     -0.616177    32A     -0.591135    33A     -0.586628
      34A     -0.570291    35A     -0.567320    36A     -0.551312
      37A     -0.541292    38A     -0.530984    39A     -0.514300
      40A     -0.503257    41A     -0.488960    42A     -0.477242
      43A     -0.465555    44A     -0.417199    45A     -0.381909
      46A     -0.337298    47A     -0.328782

  @DF-RHF Final Energy:  -553.63188496591022

   => Energetics <=

    Nuclear Repulsion Energy =            797.2825305857085141
    One-Electron Energy =               -2334.3522014508444045
    Two-Electron Energy =                 983.4377858992255597
    Total Energy =                       -553.6318849659102170
  Basis Set: (AUG-CC-PVTZ AUX)
    Blend: AUG-CC-PVTZ-RI
    Molecular point group: c1

    Geometry (in Angstrom), charge = 0, multiplicity = 1:

       Center              X                  Y                   Z               Mass
    ------------   -----------------  -----------------  -----------------  -----------------
         O            0.330498797433     2.353132102502    -1.022680249952    15.994914619570
         N            1.805724797433     1.231406102502     0.305769750048    14.003074004430
         C            1.546143797433    -1.349345897498    -0.785879249952    12.000000000000
         C            2.461902597433    -1.157962897498     0.304477850048    12.000000000000
         C            0.111076797433    -1.101724897498    -0.390004249952    12.000000000000
         C           -0.341951202567     0.211546102502    -0.147168249952    12.000000000000
         C            2.167434797433     0.117488102502     1.168905750048    12.000000000000
         C           -1.679910202567     0.470380102502     0.207255750048    12.000000000000
         C            0.604881797433     1.362094102502    -0.337883249952    12.000000000000
         C           -0.788318202567    -2.163361897498    -0.248891249952    12.000000000000
         C           -2.546192202567    -0.619830897498     0.347485750048    12.000000000000
         C           -2.112029202567    -1.925703897498     0.117243750048    12.000000000000
         C           -2.183182202567     1.872675102502     0.438712750048    12.000000000000
         H            1.647965797433    -2.366076897498    -1.181737249952     1.007825032230
         H            1.819681797433    -0.668304897498    -1.599471249952     1.007825032230
         H            2.495907797433    -2.003992897498     1.062010750048     1.007825032230
         H            3.547061797433    -1.075734897498    -0.012844249952     1.007825032230
         H            1.324498797433    -0.092203897498     1.834390750048     1.007825032230
         H            3.001929797433     0.438223102502     1.799578750048     1.007825032230
         H            2.460492797433     1.989006102502     0.142813750048     1.007825032230
         H           -0.449658202567    -3.180143897498    -0.441826249952     1.007825032230
         H           -3.581473202567    -0.439511897498     0.631550750048     1.007825032230
         H           -2.805598202567    -2.756611897498     0.225997750048     1.007825032230
         H           -1.536071202567     2.423734102502     1.127366750048     1.007825032230
         H           -2.203511202567     2.437499102502    -0.495642249952     1.007825032230
         H           -3.191300202567     1.844457102502     0.861774750048     1.007825032230

  Basis Set: AUG-CC-PVTZ
    Blend: AUG-CC-PVTZ
  Basis Set: (AUG-CC-PVTZ AUX)
    Blend: AUG-CC-PVTZ-JKFIT
	 Reference Energy          =    -553.6318849659102170 [Eh]
	 Singles Energy            =      -0.0000000000000000 [Eh]
	 Same-Spin Energy          =      -0.6050037859877891 [Eh]
	 Opposite-Spin Energy      =      -1.9042574469020477 [Eh]
	 Correlation Energy        =      -2.5092612328898367 [Eh]
	 Total Energy              =    -556.1411461988000156 [Eh]

	 ================> DF-SCS-MP2 Energies <==================
	-----------------------------------------------------------
	 SCS Same-Spin Scale       =       0.3333333333333333 [-]
	 SCS Opposite-Spin Scale   =       1.2000000000000000 [-]
	 SCS Same-Spin Energy      =      -0.2016679286625964 [Eh]
	 SCS Opposite-Spin Energy  =      -2.2851089362824570 [Eh]
	 SCS Correlation Energy    =      -2.4867768649450532 [Eh]
	 SCS Total Energy          =    -556.1186618308552170 [Eh]
	-----------------------------------------------------------

  Dipole Moment: [D]
     X:     1.6722      Y:    -2.5137      Z:     2.1938     Total:     3.7320

*** Psi4 exiting successfully. Buy a developer a beer!
