                               Psi4 1.4a3.dev225

  ==> Input File <==

--------------------------------------------------------------------------
#psi4
#
memory 32 gb

molecule  {
0 1
  O        0.3130990     2.3704440    -1.0483590
  N        1.7883250     1.2487180     0.2800910
  C        1.5287440    -1.3320340    -0.8115580
  C        2.5082430    -1.1273300     0.3546920
  C        0.0936770    -1.0844130    -0.4156830
  C       -0.3593510     0.2288580    -0.1728470
  C        2.1500350     0.1348000     1.1432270
  C       -1.6973100     0.4876920     0.1815770
  C        0.5874820     1.3794060    -0.3635620
  C       -0.8057180    -2.1460500    -0.2745700
  C       -2.5635920    -0.6025190     0.3218070
  C       -2.1499401    -2.0525130     0.0818914
  C       -2.2005820     1.8899870     0.4130340
  H        1.6305660    -2.3487650    -1.2074160
  H        1.8022820    -0.6509930    -1.6251500
  H        2.4785080    -1.9866810     1.0363320
  H        3.5296620    -1.0584230    -0.0385230
  H        1.3070990    -0.0748920     1.8087120
  H        2.9845300     0.4555350     1.7739000
  H        2.4430930     2.0063180     0.1171350
  H       -0.4670580    -3.1628320    -0.4675050
  H       -3.5988730    -0.4222000     0.6058720
  H       -2.8229980    -2.7393000     0.2003190
  H       -1.5534710     2.4410460     1.1016880
  H       -2.2209110     2.4548110    -0.5213210
  H       -3.2087000     1.8617690     0.8360960
units angstrom
no_reorient  #important for SAPT in psi4, default
symmetry c1  #important for SAPT in psi4, default
}

set PROPERTIES_ORIGIN ["COM"]
properties('MP2/aug-cc-pvtz', properties = ['dipole'])
--------------------------------------------------------------------------

    Molecular point group: c1
  Charge       = 0
  Multiplicity = 1
  Basis Set: AUG-CC-PVTZ
    Blend: AUG-CC-PVTZ
  Basis Set: (AUG-CC-PVTZ AUX)
    Blend: AUG-CC-PVTZ-JKFIT

    Orbital Energies [Eh]
    ---------------------

    Doubly Occupied:

       1A    -20.513836     2A    -15.583941     3A    -11.351410
       4A    -11.275294     5A    -11.255880     6A    -11.251742
       7A    -11.249066     8A    -11.245721     9A    -11.244718
      10A    -11.239836    11A    -11.239290    12A    -11.237827
      13A    -11.215323    14A     -1.368639    15A     -1.236098
      16A     -1.156711    17A     -1.082436    18A     -1.044920
      19A     -1.024100    20A     -0.943160    21A     -0.925534
      22A     -0.882964    23A     -0.831144    24A     -0.789110
      25A     -0.771693    26A     -0.691622    27A     -0.687825
      28A     -0.669376    29A     -0.655402    30A     -0.626927
      31A     -0.617279    32A     -0.594501    33A     -0.581815
      34A     -0.569874    35A     -0.562763    36A     -0.552530
      37A     -0.532186    38A     -0.531519    39A     -0.513606
      40A     -0.503279    41A     -0.490220    42A     -0.472320
      43A     -0.465454    44A     -0.418597    45A     -0.386560
      46A     -0.336725    47A     -0.320738

  @DF-RHF Final Energy:  -553.61342281506347

   => Energetics <=

    Nuclear Repulsion Energy =            793.3939398708338331
    One-Electron Energy =               -2326.5316965760266612
    Two-Electron Energy =                 979.5243338901292418
    Total Energy =                       -553.6134228150634726
  Basis Set: (AUG-CC-PVTZ AUX)
    Blend: AUG-CC-PVTZ-RI
    Molecular point group: c1

    Geometry (in Angstrom), charge = 0, multiplicity = 1:

       Center              X                  Y                   Z               Mass
    ------------   -----------------  -----------------  -----------------  -----------------
         O            0.327536204359     2.362096137701    -1.027218416130    15.994914619570
         N            1.802762204359     1.240370137701     0.301231583870    14.003074004430
         C            1.543181204359    -1.340381862299    -0.790417416130    12.000000000000
         C            2.522680204359    -1.135677862299     0.375832583870    12.000000000000
         C            0.108114204359    -1.092760862299    -0.394542416130    12.000000000000
         C           -0.344913795641     0.220510137701    -0.151706416130    12.000000000000
         C            2.164472204359     0.126452137701     1.164367583870    12.000000000000
         C           -1.682872795641     0.479344137701     0.202717583870    12.000000000000
         C            0.601919204359     1.371058137701    -0.342421416130    12.000000000000
         C           -0.791280795641    -2.154397862299    -0.253429416130    12.000000000000
         C           -2.549154795641    -0.610866862299     0.342947583870    12.000000000000
         C           -2.135502895641    -2.060860862299     0.103031983870    12.000000000000
         C           -2.186144795641     1.881639137701     0.434174583870    12.000000000000
         H            1.645003204359    -2.357112862299    -1.186275416130     1.007825032230
         H            1.816719204359    -0.659340862299    -1.604009416130     1.007825032230
         H            2.492945204359    -1.995028862299     1.057472583870     1.007825032230
         H            3.544099204359    -1.066770862299    -0.017382416130     1.007825032230
         H            1.321536204359    -0.083239862299     1.829852583870     1.007825032230
         H            2.998967204359     0.447187137701     1.795040583870     1.007825032230
         H            2.457530204359     1.997970137701     0.138275583870     1.007825032230
         H           -0.452620795641    -3.171179862299    -0.446364416130     1.007825032230
         H           -3.584435795641    -0.430547862299     0.627012583870     1.007825032230
         H           -2.808560795641    -2.747647862299     0.221459583870     1.007825032230
         H           -1.539033795641     2.432698137701     1.122828583870     1.007825032230
         H           -2.206473795641     2.446463137701    -0.500180416130     1.007825032230
         H           -3.194262795641     1.853421137701     0.857236583870     1.007825032230

  Basis Set: AUG-CC-PVTZ
    Blend: AUG-CC-PVTZ
  Basis Set: (AUG-CC-PVTZ AUX)
    Blend: AUG-CC-PVTZ-JKFIT
	 Reference Energy          =    -553.6134228150634726 [Eh]
	 Singles Energy            =      -0.0000000000000000 [Eh]
	 Same-Spin Energy          =      -0.6046673095859754 [Eh]
	 Opposite-Spin Energy      =      -1.9059448602347548 [Eh]
	 Correlation Energy        =      -2.5106121698207300 [Eh]
	 Total Energy              =    -556.1240349848842470 [Eh]

	 ================> DF-SCS-MP2 Energies <==================
	-----------------------------------------------------------
	 SCS Same-Spin Scale       =       0.3333333333333333 [-]
	 SCS Opposite-Spin Scale   =       1.2000000000000000 [-]
	 SCS Same-Spin Energy      =      -0.2015557698619918 [Eh]
	 SCS Opposite-Spin Energy  =      -2.2871338322817056 [Eh]
	 SCS Correlation Energy    =      -2.4886896021436975 [Eh]
	 SCS Total Energy          =    -556.1021124172071950 [Eh]
	-----------------------------------------------------------

  Dipole Moment: [D]
     X:     1.7439      Y:    -2.5297      Z:     2.2093     Total:     3.7843

*** Psi4 exiting successfully. Buy a developer a beer!
