                               Psi4 1.4a3.dev225

  ==> Input File <==

--------------------------------------------------------------------------
#psi4
#
memory 32 gb

molecule  {
0 1
  O        0.3130990     2.3704440    -1.0483590
  N        1.7883250     1.2487180     0.2800910
  C        1.5287440    -1.3320340    -0.8115580
  C        2.5082430    -1.1273300     0.3546920
  C        0.0936770    -1.0844130    -0.4156830
  C       -0.3593510     0.2288580    -0.1728470
  C        2.1032321     0.2997078     1.2462557
  C       -1.6973100     0.4876920     0.1815770
  C        0.5874820     1.3794060    -0.3635620
  C       -0.8057180    -2.1460500    -0.2745700
  C       -2.5635920    -0.6025190     0.3218070
  C       -2.1294290    -1.9083920     0.0915650
  C       -2.2005820     1.8899870     0.4130340
  H        1.6305660    -2.3487650    -1.2074160
  H        1.8022820    -0.6509930    -1.6251500
  H        2.4785080    -1.9866810     1.0363320
  H        3.5296620    -1.0584230    -0.0385230
  H        1.3070990    -0.0748920     1.8087120
  H        2.9845300     0.4555350     1.7739000
  H        2.4430930     2.0063180     0.1171350
  H       -0.4670580    -3.1628320    -0.4675050
  H       -3.5988730    -0.4222000     0.6058720
  H       -2.8229980    -2.7393000     0.2003190
  H       -1.5534710     2.4410460     1.1016880
  H       -2.2209110     2.4548110    -0.5213210
  H       -3.2087000     1.8617690     0.8360960
units angstrom
no_reorient  #important for SAPT in psi4, default
symmetry c1  #important for SAPT in psi4, default
}

set PROPERTIES_ORIGIN ["COM"]
properties('MP2/aug-cc-pvtz', properties = ['dipole'])
--------------------------------------------------------------------------

    Molecular point group: c1
  Charge       = 0
  Multiplicity = 1
  Basis Set: AUG-CC-PVTZ
    Blend: AUG-CC-PVTZ
  Basis Set: (AUG-CC-PVTZ AUX)
    Blend: AUG-CC-PVTZ-JKFIT

    Orbital Energies [Eh]
    ---------------------

    Doubly Occupied:

       1A    -20.516659     2A    -15.587153     3A    -11.354406
       4A    -11.272544     5A    -11.254267     6A    -11.254217
       7A    -11.244770     8A    -11.242357     9A    -11.236808
      10A    -11.235342    11A    -11.234746    12A    -11.232633
      13A    -11.216940    14A     -1.372252    15A     -1.250020
      16A     -1.164557    17A     -1.076540    18A     -1.044662
      19A     -1.015086    20A     -0.942764    21A     -0.936904
      22A     -0.875160    23A     -0.830770    24A     -0.785089
      25A     -0.773324    26A     -0.699538    27A     -0.696316
      28A     -0.665853    29A     -0.658358    30A     -0.614822
      31A     -0.610144    32A     -0.591013    33A     -0.587550
      34A     -0.573233    35A     -0.569453    36A     -0.555936
      37A     -0.540178    38A     -0.532026    39A     -0.511202
      40A     -0.501098    41A     -0.481580    42A     -0.478975
      43A     -0.468022    44A     -0.421431    45A     -0.363260
      46A     -0.337184    47A     -0.327216

  @DF-RHF Final Energy:  -553.61561089062661

   => Energetics <=

    Nuclear Repulsion Energy =            794.7712177525297648
    One-Electron Energy =               -2329.3049375362597857
    Two-Electron Energy =                 980.9181088931034083
    Total Energy =                       -553.6156108906266127
  Basis Set: (AUG-CC-PVTZ AUX)
    Blend: AUG-CC-PVTZ-RI
    Molecular point group: c1

    Geometry (in Angstrom), charge = 0, multiplicity = 1:

       Center              X                  Y                   Z               Mass
    ------------   -----------------  -----------------  -----------------  -----------------
         O            0.329338043967     2.340917658797    -1.034942172890    15.994914619570
         N            1.804564043967     1.219191658797     0.293507827110    14.003074004430
         C            1.544983043967    -1.361560341203    -0.798141172890    12.000000000000
         C            2.524482043967    -1.156856341203     0.368108827110    12.000000000000
         C            0.109916043967    -1.113939341203    -0.402266172890    12.000000000000
         C           -0.343111956033     0.199331658797    -0.159430172890    12.000000000000
         C            2.119471143967     0.270181458797     1.259672527110    12.000000000000
         C           -1.681070956033     0.458165658797     0.194993827110    12.000000000000
         C            0.603721043967     1.349879658797    -0.350145172890    12.000000000000
         C           -0.789478956033    -2.175576341203    -0.261153172890    12.000000000000
         C           -2.547352956033    -0.632045341203     0.335223827110    12.000000000000
         C           -2.113189956033    -1.937918341203     0.104981827110    12.000000000000
         C           -2.184342956033     1.860460658797     0.426450827110    12.000000000000
         H            1.646805043967    -2.378291341203    -1.193999172890     1.007825032230
         H            1.818521043967    -0.680519341203    -1.611733172890     1.007825032230
         H            2.494747043967    -2.016207341203     1.049748827110     1.007825032230
         H            3.545901043967    -1.087949341203    -0.025106172890     1.007825032230
         H            1.323338043967    -0.104418341203     1.822128827110     1.007825032230
         H            3.000769043967     0.426008658797     1.787316827110     1.007825032230
         H            2.459332043967     1.976791658797     0.130551827110     1.007825032230
         H           -0.450818956033    -3.192358341203    -0.454088172890     1.007825032230
         H           -3.582633956033    -0.451726341203     0.619288827110     1.007825032230
         H           -2.806758956033    -2.768826341203     0.213735827110     1.007825032230
         H           -1.537231956033     2.411519658797     1.115104827110     1.007825032230
         H           -2.204671956033     2.425284658797    -0.507904172890     1.007825032230
         H           -3.192460956033     1.832242658797     0.849512827110     1.007825032230

  Basis Set: AUG-CC-PVTZ
    Blend: AUG-CC-PVTZ
  Basis Set: (AUG-CC-PVTZ AUX)
    Blend: AUG-CC-PVTZ-JKFIT
	 Reference Energy          =    -553.6156108906266127 [Eh]
	 Singles Energy            =      -0.0000000000000000 [Eh]
	 Same-Spin Energy          =      -0.6047789530099927 [Eh]
	 Opposite-Spin Energy      =      -1.9044950919680235 [Eh]
	 Correlation Energy        =      -2.5092740449780164 [Eh]
	 Total Energy              =    -556.1248849356046549 [Eh]

	 ================> DF-SCS-MP2 Energies <==================
	-----------------------------------------------------------
	 SCS Same-Spin Scale       =       0.3333333333333333 [-]
	 SCS Opposite-Spin Scale   =       1.2000000000000000 [-]
	 SCS Same-Spin Energy      =      -0.2015929843366642 [Eh]
	 SCS Opposite-Spin Energy  =      -2.2853941103616280 [Eh]
	 SCS Correlation Energy    =      -2.4869870946982924 [Eh]
	 SCS Total Energy          =    -556.1025979853249055 [Eh]
	-----------------------------------------------------------

  Dipole Moment: [D]
     X:     1.5997      Y:    -2.2427      Z:     2.2166     Total:     3.5359

*** Psi4 exiting successfully. Buy a developer a beer!
