                               Psi4 1.4a3.dev225

  ==> Input File <==

--------------------------------------------------------------------------
#psi4
#
memory 32 gb

molecule  {
0 1
  O        0.3130990     2.3704440    -1.0483590
  N        1.7883250     1.2487180     0.2800910
  C        1.5287440    -1.3320340    -0.8115580
  C        2.5082430    -1.1273300     0.3546920
  C        0.0936770    -1.0844130    -0.4156830
  C       -0.3593510     0.2288580    -0.1728470
  C        2.1500350     0.1348000     1.1432270
  C       -1.7163137     0.4913684     0.1866111
  C        0.5874820     1.3794060    -0.3635620
  C       -0.8057180    -2.1460500    -0.2745700
  C       -2.5635920    -0.6025190     0.3218070
  C       -2.1294290    -1.9083920     0.0915650
  C       -2.2005820     1.8899870     0.4130340
  H        1.6305660    -2.3487650    -1.2074160
  H        1.8022820    -0.6509930    -1.6251500
  H        2.4785080    -1.9866810     1.0363320
  H        3.5296620    -1.0584230    -0.0385230
  H        1.3070990    -0.0748920     1.8087120
  H        2.9845300     0.4555350     1.7739000
  H        2.4430930     2.0063180     0.1171350
  H       -0.4670580    -3.1628320    -0.4675050
  H       -3.5988730    -0.4222000     0.6058720
  H       -2.8229980    -2.7393000     0.2003190
  H       -1.5534710     2.4410460     1.1016880
  H       -2.2209110     2.4548110    -0.5213210
  H       -3.2087000     1.8617690     0.8360960
units angstrom
no_reorient  #important for SAPT in psi4, default
symmetry c1  #important for SAPT in psi4, default
}

set PROPERTIES_ORIGIN ["COM"]
properties('MP2/aug-cc-pvtz', properties = ['dipole'])
--------------------------------------------------------------------------

    Molecular point group: c1
  Charge       = 0
  Multiplicity = 1
  Basis Set: AUG-CC-PVTZ
    Blend: AUG-CC-PVTZ
  Basis Set: (AUG-CC-PVTZ AUX)
    Blend: AUG-CC-PVTZ-JKFIT

    Orbital Energies [Eh]
    ---------------------

    Doubly Occupied:

       1A    -20.512542     2A    -15.582957     3A    -11.350225
       4A    -11.274763     5A    -11.254327     6A    -11.254151
       7A    -11.244716     8A    -11.243602     9A    -11.238245
      10A    -11.237368    11A    -11.235473    12A    -11.231739
      13A    -11.215630    14A     -1.367416    15A     -1.235202
      16A     -1.162857    17A     -1.085156    18A     -1.044560
      19A     -1.029023    20A     -0.943036    21A     -0.934141
      22A     -0.874185    23A     -0.829369    24A     -0.782917
      25A     -0.770514    26A     -0.693523    27A     -0.682801
      28A     -0.660100    29A     -0.659134    30A     -0.619617
      31A     -0.615056    32A     -0.591566    33A     -0.583389
      34A     -0.569928    35A     -0.566940    36A     -0.553450
      37A     -0.531379    38A     -0.530525    39A     -0.513896
      40A     -0.506881    41A     -0.489021    42A     -0.478904
      43A     -0.472615    44A     -0.417502    45A     -0.385945
      46A     -0.335056    47A     -0.327915

  @DF-RHF Final Energy:  -553.64241055373282

   => Energetics <=

    Nuclear Repulsion Energy =            795.7140636543815617
    One-Electron Energy =               -2331.2744373591581279
    Two-Electron Energy =                 981.9179631510437503
    Total Energy =                       -553.6424105537328160
  Basis Set: (AUG-CC-PVTZ AUX)
    Blend: AUG-CC-PVTZ-RI
    Molecular point group: c1

    Geometry (in Angstrom), charge = 0, multiplicity = 1:

       Center              X                  Y                   Z               Mass
    ------------   -----------------  -----------------  -----------------  -----------------
         O            0.327432898651     2.351967230240    -1.028226369804    15.994914619570
         N            1.802658898651     1.230241230240     0.300223630196    14.003074004430
         C            1.543077898651    -1.350510769760    -0.791425369804    12.000000000000
         C            2.522576898651    -1.145806769760     0.374824630196    12.000000000000
         C            0.108010898651    -1.102889769760    -0.395550369804    12.000000000000
         C           -0.345017101349     0.210381230240    -0.152714369804    12.000000000000
         C            2.164368898651     0.116323230240     1.163359630196    12.000000000000
         C           -1.701979801349     0.472891630240     0.206743730196    12.000000000000
         C            0.601815898651     1.360929230240    -0.343429369804    12.000000000000
         C           -0.791384101349    -2.164526769760    -0.254437369804    12.000000000000
         C           -2.549258101349    -0.620995769760     0.341939630196    12.000000000000
         C           -2.115095101349    -1.926868769760     0.111697630196    12.000000000000
         C           -2.186248101349     1.871510230240     0.433166630196    12.000000000000
         H            1.644899898651    -2.367241769760    -1.187283369804     1.007825032230
         H            1.816615898651    -0.669469769760    -1.605017369804     1.007825032230
         H            2.492841898651    -2.005157769760     1.056464630196     1.007825032230
         H            3.543995898651    -1.076899769760    -0.018390369804     1.007825032230
         H            1.321432898651    -0.093368769760     1.828844630196     1.007825032230
         H            2.998863898651     0.437058230240     1.794032630196     1.007825032230
         H            2.457426898651     1.987841230240     0.137267630196     1.007825032230
         H           -0.452724101349    -3.181308769760    -0.447372369804     1.007825032230
         H           -3.584539101349    -0.440676769760     0.626004630196     1.007825032230
         H           -2.808664101349    -2.757776769760     0.220451630196     1.007825032230
         H           -1.539137101349     2.422569230240     1.121820630196     1.007825032230
         H           -2.206577101349     2.436334230240    -0.501188369804     1.007825032230
         H           -3.194366101349     1.843292230240     0.856228630196     1.007825032230

  Basis Set: AUG-CC-PVTZ
    Blend: AUG-CC-PVTZ
  Basis Set: (AUG-CC-PVTZ AUX)
    Blend: AUG-CC-PVTZ-JKFIT
	 Reference Energy          =    -553.6424105537328160 [Eh]
	 Singles Energy            =      -0.0000000000000000 [Eh]
	 Same-Spin Energy          =      -0.6043101061604323 [Eh]
	 Opposite-Spin Energy      =      -1.9032592209534029 [Eh]
	 Correlation Energy        =      -2.5075693271138353 [Eh]
	 Total Energy              =    -556.1499798808466721 [Eh]

	 ================> DF-SCS-MP2 Energies <==================
	-----------------------------------------------------------
	 SCS Same-Spin Scale       =       0.3333333333333333 [-]
	 SCS Opposite-Spin Scale   =       1.2000000000000000 [-]
	 SCS Same-Spin Energy      =      -0.2014367020534774 [Eh]
	 SCS Opposite-Spin Energy  =      -2.2839110651440833 [Eh]
	 SCS Correlation Energy    =      -2.4853477671975606 [Eh]
	 SCS Total Energy          =    -556.1277583209304112 [Eh]
	-----------------------------------------------------------

  Dipole Moment: [D]
     X:     1.7265      Y:    -2.5277      Z:     2.2060     Total:     3.7731

*** Psi4 exiting successfully. Buy a developer a beer!
