                               Psi4 1.4a3.dev225

  ==> Input File <==

--------------------------------------------------------------------------
#psi4
#
memory 32 gb

molecule  {
0 1
  O        0.3130990     2.3704440    -1.0483590
  N        1.7883250     1.2487180     0.2800910
  C        1.5287440    -1.3320340    -0.8115580
  C        2.6357235    -1.1006881     0.5064778
  C        0.0936770    -1.0844130    -0.4156830
  C       -0.3593510     0.2288580    -0.1728470
  C        2.1500350     0.1348000     1.1432270
  C       -1.6973100     0.4876920     0.1815770
  C        0.5874820     1.3794060    -0.3635620
  C       -0.8057180    -2.1460500    -0.2745700
  C       -2.5635920    -0.6025190     0.3218070
  C       -2.1294290    -1.9083920     0.0915650
  C       -2.2005820     1.8899870     0.4130340
  H        1.6305660    -2.3487650    -1.2074160
  H        1.8022820    -0.6509930    -1.6251500
  H        2.4785080    -1.9866810     1.0363320
  H        3.5296620    -1.0584230    -0.0385230
  H        1.3070990    -0.0748920     1.8087120
  H        2.9845300     0.4555350     1.7739000
  H        2.4430930     2.0063180     0.1171350
  H       -0.4670580    -3.1628320    -0.4675050
  H       -3.5988730    -0.4222000     0.6058720
  H       -2.8229980    -2.7393000     0.2003190
  H       -1.5534710     2.4410460     1.1016880
  H       -2.2209110     2.4548110    -0.5213210
  H       -3.2087000     1.8617690     0.8360960
units angstrom
no_reorient  #important for SAPT in psi4, default
symmetry c1  #important for SAPT in psi4, default
}

set PROPERTIES_ORIGIN ["COM"]
properties('MP2/aug-cc-pvtz', properties = ['dipole'])
--------------------------------------------------------------------------

    Molecular point group: c1
  Charge       = 0
  Multiplicity = 1
  Basis Set: AUG-CC-PVTZ
    Blend: AUG-CC-PVTZ
  Basis Set: (AUG-CC-PVTZ AUX)
    Blend: AUG-CC-PVTZ-JKFIT

    Orbital Energies [Eh]
    ---------------------

    Doubly Occupied:

       1A    -20.513436     2A    -15.585192     3A    -11.350883
       4A    -11.274661     5A    -11.253962     6A    -11.252954
       7A    -11.243841     8A    -11.242629     9A    -11.240918
      10A    -11.238949    11A    -11.234196    12A    -11.231722
      13A    -11.215580    14A     -1.368161    15A     -1.236037
      16A     -1.162136    17A     -1.073925    18A     -1.043483
      19A     -1.035752    20A     -0.942093    21A     -0.926426
      22A     -0.875401    23A     -0.835772    24A     -0.784199
      25A     -0.770730    26A     -0.694072    27A     -0.684239
      28A     -0.662868    29A     -0.659185    30A     -0.624059
      31A     -0.615084    32A     -0.596851    33A     -0.580161
      34A     -0.570209    35A     -0.564115    36A     -0.556439
      37A     -0.536814    38A     -0.532459    39A     -0.516130
      40A     -0.506247    41A     -0.488057    42A     -0.481141
      43A     -0.438221    44A     -0.417942    45A     -0.391224
      46A     -0.334905    47A     -0.323126

  @DF-RHF Final Energy:  -553.61494909530802

   => Energetics <=

    Nuclear Repulsion Energy =            793.4674075368388912
    One-Electron Energy =               -2326.7515396241774397
    Two-Electron Energy =                 979.6691829920305281
    Total Energy =                       -553.6149490953080203
  Basis Set: (AUG-CC-PVTZ AUX)
    Blend: AUG-CC-PVTZ-RI
    Molecular point group: c1

    Geometry (in Angstrom), charge = 0, multiplicity = 1:

       Center              X                  Y                   Z               Mass
    ------------   -----------------  -----------------  -----------------  -----------------
         O            0.317393987910     2.350393349885    -1.038283612956    15.994914619570
         N            1.792619987910     1.228667349885     0.290166387044    14.003074004430
         C            1.533038987910    -1.352084650115    -0.801482612956    12.000000000000
         C            2.640018487910    -1.120738750115     0.516553187044    12.000000000000
         C            0.097971987910    -1.104463650115    -0.405607612956    12.000000000000
         C           -0.355056012090     0.208807349885    -0.162771612956    12.000000000000
         C            2.154329987910     0.114749349885     1.153302387044    12.000000000000
         C           -1.693015012090     0.467641349885     0.191652387044    12.000000000000
         C            0.591776987910     1.359355349885    -0.353486612956    12.000000000000
         C           -0.801423012090    -2.166100650115    -0.264494612956    12.000000000000
         C           -2.559297012090    -0.622569650115     0.331882387044    12.000000000000
         C           -2.125134012090    -1.928442650115     0.101640387044    12.000000000000
         C           -2.196287012090     1.869936349885     0.423109387044    12.000000000000
         H            1.634860987910    -2.368815650115    -1.197340612956     1.007825032230
         H            1.806576987910    -0.671043650115    -1.615074612956     1.007825032230
         H            2.482802987910    -2.006731650115     1.046407387044     1.007825032230
         H            3.533956987910    -1.078473650115    -0.028447612956     1.007825032230
         H            1.311393987910    -0.094942650115     1.818787387044     1.007825032230
         H            2.988824987910     0.435484349885     1.783975387044     1.007825032230
         H            2.447387987910     1.986267349885     0.127210387044     1.007825032230
         H           -0.462763012090    -3.182882650115    -0.457429612956     1.007825032230
         H           -3.594578012090    -0.442250650115     0.615947387044     1.007825032230
         H           -2.818703012090    -2.759350650115     0.210394387044     1.007825032230
         H           -1.549176012090     2.420995349885     1.111763387044     1.007825032230
         H           -2.216616012090     2.434760349885    -0.511245612956     1.007825032230
         H           -3.204405012090     1.841718349885     0.846171387044     1.007825032230

  Basis Set: AUG-CC-PVTZ
    Blend: AUG-CC-PVTZ
  Basis Set: (AUG-CC-PVTZ AUX)
    Blend: AUG-CC-PVTZ-JKFIT
	 Reference Energy          =    -553.6149490953080203 [Eh]
	 Singles Energy            =      -0.0000000000000000 [Eh]
	 Same-Spin Energy          =      -0.6049805556886345 [Eh]
	 Opposite-Spin Energy      =      -1.9049302560832229 [Eh]
	 Correlation Energy        =      -2.5099108117718574 [Eh]
	 Total Energy              =    -556.1248599070798946 [Eh]

	 ================> DF-SCS-MP2 Energies <==================
	-----------------------------------------------------------
	 SCS Same-Spin Scale       =       0.3333333333333333 [-]
	 SCS Opposite-Spin Scale   =       1.2000000000000000 [-]
	 SCS Same-Spin Energy      =      -0.2016601852295448 [Eh]
	 SCS Opposite-Spin Energy  =      -2.2859163072998672 [Eh]
	 SCS Correlation Energy    =      -2.4875764925294122 [Eh]
	 SCS Total Energy          =    -556.1025255878374765 [Eh]
	-----------------------------------------------------------

  Dipole Moment: [D]
     X:     1.7600      Y:    -2.5607      Z:     2.1869     Total:     3.7997

*** Psi4 exiting successfully. Buy a developer a beer!
