                               Psi4 1.4a3.dev225

  ==> Input File <==

--------------------------------------------------------------------------
#psi4
#
memory 32 gb

molecule  {
0 1
  O        0.3130990     2.3704440    -1.0483590
  N        1.7883250     1.2487180     0.2800910
  C        1.5436584    -1.2844061    -0.8312105
  C        2.5082430    -1.1273300     0.3546920
  C        0.0936770    -1.0844130    -0.4156830
  C       -0.3593510     0.2288580    -0.1728470
  C        2.1500350     0.1348000     1.1432270
  C       -1.6973100     0.4876920     0.1815770
  C        0.5874820     1.3794060    -0.3635620
  C       -0.8057180    -2.1460500    -0.2745700
  C       -2.5635920    -0.6025190     0.3218070
  C       -2.1294290    -1.9083920     0.0915650
  C       -2.2005820     1.8899870     0.4130340
  H        1.6305660    -2.3487650    -1.2074160
  H        1.8022820    -0.6509930    -1.6251500
  H        2.4785080    -1.9866810     1.0363320
  H        3.5296620    -1.0584230    -0.0385230
  H        1.3070990    -0.0748920     1.8087120
  H        2.9845300     0.4555350     1.7739000
  H        2.4430930     2.0063180     0.1171350
  H       -0.4670580    -3.1628320    -0.4675050
  H       -3.5988730    -0.4222000     0.6058720
  H       -2.8229980    -2.7393000     0.2003190
  H       -1.5534710     2.4410460     1.1016880
  H       -2.2209110     2.4548110    -0.5213210
  H       -3.2087000     1.8617690     0.8360960
units angstrom
no_reorient  #important for SAPT in psi4, default
symmetry c1  #important for SAPT in psi4, default
}

set PROPERTIES_ORIGIN ["COM"]
properties('MP2/aug-cc-pvtz', properties = ['dipole'])
--------------------------------------------------------------------------

    Molecular point group: c1
  Charge       = 0
  Multiplicity = 1
  Basis Set: AUG-CC-PVTZ
    Blend: AUG-CC-PVTZ
  Basis Set: (AUG-CC-PVTZ AUX)
    Blend: AUG-CC-PVTZ-JKFIT

    Orbital Energies [Eh]
    ---------------------

    Doubly Occupied:

       1A    -20.512916     2A    -15.583213     3A    -11.350447
       4A    -11.274341     5A    -11.254750     6A    -11.253133
       7A    -11.244638     8A    -11.241378     9A    -11.238277
      10A    -11.237575    11A    -11.236010    12A    -11.232781
      13A    -11.215747    14A     -1.367832    15A     -1.235710
      16A     -1.163259    17A     -1.083825    18A     -1.044931
      19A     -1.028684    20A     -0.942175    21A     -0.933986
      22A     -0.872987    23A     -0.830993    24A     -0.786100
      25A     -0.769067    26A     -0.694235    27A     -0.682181
      28A     -0.663143    29A     -0.658416    30A     -0.617851
      31A     -0.615510    32A     -0.591939    33A     -0.583951
      34A     -0.568968    35A     -0.566929    36A     -0.550652
      37A     -0.535577    38A     -0.530095    39A     -0.515167
      40A     -0.504893    41A     -0.487016    42A     -0.479601
      43A     -0.471139    44A     -0.417793    45A     -0.386237
      46A     -0.336693    47A     -0.327865

  @DF-RHF Final Energy:  -553.63976030486742

   => Energetics <=

    Nuclear Repulsion Energy =            796.1138343980617265
    One-Electron Energy =               -2332.0659789533447110
    Two-Electron Energy =                 982.3123842504155618
    Total Energy =                       -553.6397603048674227
  Basis Set: (AUG-CC-PVTZ AUX)
    Blend: AUG-CC-PVTZ-RI
    Molecular point group: c1

    Geometry (in Angstrom), charge = 0, multiplicity = 1:

       Center              X                  Y                   Z               Mass
    ------------   -----------------  -----------------  -----------------  -----------------
         O            0.325108410560     2.348955129376    -1.026534538371    15.994914619570
         N            1.800334410560     1.227229129376     0.301915461629    14.003074004430
         C            1.555667810560    -1.305894970624    -0.809386038371    12.000000000000
         C            2.520252410560    -1.148818870624     0.376516461629    12.000000000000
         C            0.105686410560    -1.105901870624    -0.393858538371    12.000000000000
         C           -0.347341589440     0.207369129376    -0.151022538371    12.000000000000
         C            2.162044410560     0.113311129376     1.165051461629    12.000000000000
         C           -1.685300589440     0.466203129376     0.203401461629    12.000000000000
         C            0.599491410560     1.357917129376    -0.341737538371    12.000000000000
         C           -0.793708589440    -2.167538870624    -0.252745538371    12.000000000000
         C           -2.551582589440    -0.624007870624     0.343631461629    12.000000000000
         C           -2.117419589440    -1.929880870624     0.113389461629    12.000000000000
         C           -2.188572589440     1.868498129376     0.434858461629    12.000000000000
         H            1.642575410560    -2.370253870624    -1.185591538371     1.007825032230
         H            1.814291410560    -0.672481870624    -1.603325538371     1.007825032230
         H            2.490517410560    -2.008169870624     1.058156461629     1.007825032230
         H            3.541671410560    -1.079911870624    -0.016698538371     1.007825032230
         H            1.319108410560    -0.096380870624     1.830536461629     1.007825032230
         H            2.996539410560     0.434046129376     1.795724461629     1.007825032230
         H            2.455102410560     1.984829129376     0.138959461629     1.007825032230
         H           -0.455048589440    -3.184320870624    -0.445680538371     1.007825032230
         H           -3.586863589440    -0.443688870624     0.627696461629     1.007825032230
         H           -2.810988589440    -2.760788870624     0.222143461629     1.007825032230
         H           -1.541461589440     2.419557129376     1.123512461629     1.007825032230
         H           -2.208901589440     2.433322129376    -0.499496538371     1.007825032230
         H           -3.196690589440     1.840280129376     0.857920461629     1.007825032230

  Basis Set: AUG-CC-PVTZ
    Blend: AUG-CC-PVTZ
  Basis Set: (AUG-CC-PVTZ AUX)
    Blend: AUG-CC-PVTZ-JKFIT
	 Reference Energy          =    -553.6397603048674227 [Eh]
	 Singles Energy            =      -0.0000000000000000 [Eh]
	 Same-Spin Energy          =      -0.6042285529288356 [Eh]
	 Opposite-Spin Energy      =      -1.9032936255365698 [Eh]
	 Correlation Energy        =      -2.5075221784654054 [Eh]
	 Total Energy              =    -556.1472824833327877 [Eh]

	 ================> DF-SCS-MP2 Energies <==================
	-----------------------------------------------------------
	 SCS Same-Spin Scale       =       0.3333333333333333 [-]
	 SCS Opposite-Spin Scale   =       1.2000000000000000 [-]
	 SCS Same-Spin Energy      =      -0.2014095176429452 [Eh]
	 SCS Opposite-Spin Energy  =      -2.2839523506438835 [Eh]
	 SCS Correlation Energy    =      -2.4853618682868288 [Eh]
	 SCS Total Energy          =    -556.1251221731542955 [Eh]
	-----------------------------------------------------------

  Dipole Moment: [D]
     X:     1.7239      Y:    -2.5175      Z:     2.2004     Total:     3.7618

*** Psi4 exiting successfully. Buy a developer a beer!
