                               Psi4 1.4a3.dev225

  ==> Input File <==

--------------------------------------------------------------------------
#psi4
#
memory 32 gb

molecule  {
0 1
  O        0.3130990     2.3704440    -1.0483590
  N        1.7883250     1.2487180     0.2800910
  C        1.5287440    -1.3320340    -0.8115580
  C        2.5082430    -1.1273300     0.3546920
  C        0.0936770    -1.0844130    -0.4156830
  C       -0.3593510     0.2288580    -0.1728470
  C        2.1500350     0.1348000     1.1432270
  C       -1.6973100     0.4876920     0.1815770
  C        0.5874820     1.3794060    -0.3635620
  C       -0.8057180    -2.1460500    -0.2745700
  C       -2.5635920    -0.6025190     0.3218070
  C       -2.1294290    -1.9083920     0.0915650
  C       -2.2005820     1.8899870     0.4130340
  H        1.6305660    -2.3487650    -1.2074160
  H        1.8022820    -0.6509930    -1.6251500
  H        2.4839278    -1.8300466     0.9120891
  H        3.5296620    -1.0584230    -0.0385230
  H        1.3070990    -0.0748920     1.8087120
  H        2.9845300     0.4555350     1.7739000
  H        2.4430930     2.0063180     0.1171350
  H       -0.4670580    -3.1628320    -0.4675050
  H       -3.5988730    -0.4222000     0.6058720
  H       -2.8229980    -2.7393000     0.2003190
  H       -1.5534710     2.4410460     1.1016880
  H       -2.2209110     2.4548110    -0.5213210
  H       -3.2087000     1.8617690     0.8360960
units angstrom
no_reorient  #important for SAPT in psi4, default
symmetry c1  #important for SAPT in psi4, default
}

set PROPERTIES_ORIGIN ["COM"]
properties('MP2/aug-cc-pvtz', properties = ['dipole'])
--------------------------------------------------------------------------

    Molecular point group: c1
  Charge       = 0
  Multiplicity = 1
  Basis Set: AUG-CC-PVTZ
    Blend: AUG-CC-PVTZ
  Basis Set: (AUG-CC-PVTZ AUX)
    Blend: AUG-CC-PVTZ-JKFIT

    Orbital Energies [Eh]
    ---------------------

    Doubly Occupied:

       1A    -20.511891     2A    -15.581925     3A    -11.349576
       4A    -11.273738     5A    -11.253956     6A    -11.253255
       7A    -11.244229     8A    -11.241529     9A    -11.236662
      10A    -11.235021    11A    -11.232415    12A    -11.215645
      13A    -11.212423    14A     -1.366805    15A     -1.234612
      16A     -1.163443    17A     -1.090526    18A     -1.045635
      19A     -1.033539    20A     -0.942883    21A     -0.932991
      22A     -0.880623    23A     -0.840728    24A     -0.788084
      25A     -0.769937    26A     -0.694679    27A     -0.685843
      28A     -0.664006    29A     -0.658485    30A     -0.624508
      31A     -0.616253    32A     -0.591664    33A     -0.585882
      34A     -0.569946    35A     -0.565889    36A     -0.552670
      37A     -0.541327    38A     -0.529957    39A     -0.515568
      40A     -0.507589    41A     -0.490812    42A     -0.480086
      43A     -0.473222    44A     -0.416903    45A     -0.385011
      46A     -0.336107    47A     -0.327222

  @DF-RHF Final Energy:  -553.61040551977180

   => Energetics <=

    Nuclear Repulsion Energy =            797.1262768521578437
    One-Electron Energy =               -2333.9819623808066353
    Two-Electron Energy =                 983.2452800088769891
    Total Energy =                       -553.6104055197718026
  Basis Set: (AUG-CC-PVTZ AUX)
    Blend: AUG-CC-PVTZ-RI
    Molecular point group: c1

    Geometry (in Angstrom), charge = 0, multiplicity = 1:

       Center              X                  Y                   Z               Mass
    ------------   -----------------  -----------------  -----------------  -----------------
         O            0.326099335022     2.351317638835    -1.027166263534    15.994914619570
         N            1.801325335022     1.229591638835     0.301283736466    14.003074004430
         C            1.541744335022    -1.351160361165    -0.790365263534    12.000000000000
         C            2.521243335022    -1.146456361165     0.375884736466    12.000000000000
         C            0.106677335022    -1.103539361165    -0.394490263534    12.000000000000
         C           -0.346350664978     0.209731638835    -0.151654263534    12.000000000000
         C            2.163035335022     0.115673638835     1.164419736466    12.000000000000
         C           -1.684309664978     0.468565638835     0.202769736466    12.000000000000
         C            0.600482335022     1.360279638835    -0.342369263534    12.000000000000
         C           -0.792717664978    -2.165176361165    -0.253377263534    12.000000000000
         C           -2.550591664978    -0.621645361165     0.342999736466    12.000000000000
         C           -2.116428664978    -1.927518361165     0.112757736466    12.000000000000
         C           -2.187581664978     1.870860638835     0.434226736466    12.000000000000
         H            1.643566335022    -2.367891361165    -1.186223263534     1.007825032230
         H            1.815282335022    -0.670119361165    -1.603957263534     1.007825032230
         H            2.496928135022    -1.849172961165     0.933281836466     1.007825032230
         H            3.542662335022    -1.077549361165    -0.017330263534     1.007825032230
         H            1.320099335022    -0.094018361165     1.829904736466     1.007825032230
         H            2.997530335022     0.436408638835     1.795092736466     1.007825032230
         H            2.456093335022     1.987191638835     0.138327736466     1.007825032230
         H           -0.454057664978    -3.181958361165    -0.446312263534     1.007825032230
         H           -3.585872664978    -0.441326361165     0.627064736466     1.007825032230
         H           -2.809997664978    -2.758426361165     0.221511736466     1.007825032230
         H           -1.540470664978     2.421919638835     1.122880736466     1.007825032230
         H           -2.207910664978     2.435684638835    -0.500128263534     1.007825032230
         H           -3.195699664978     1.842642638835     0.857288736466     1.007825032230

  Basis Set: AUG-CC-PVTZ
    Blend: AUG-CC-PVTZ
  Basis Set: (AUG-CC-PVTZ AUX)
    Blend: AUG-CC-PVTZ-JKFIT
	 Reference Energy          =    -553.6104055197718026 [Eh]
	 Singles Energy            =      -0.0000000000000000 [Eh]
	 Same-Spin Energy          =      -0.6041882854489234 [Eh]
	 Opposite-Spin Energy      =      -1.9023139198835664 [Eh]
	 Correlation Energy        =      -2.5065022053324899 [Eh]
	 Total Energy              =    -556.1169077251042836 [Eh]

	 ================> DF-SCS-MP2 Energies <==================
	-----------------------------------------------------------
	 SCS Same-Spin Scale       =       0.3333333333333333 [-]
	 SCS Opposite-Spin Scale   =       1.2000000000000000 [-]
	 SCS Same-Spin Energy      =      -0.2013960951496411 [Eh]
	 SCS Opposite-Spin Energy  =      -2.2827767038602795 [Eh]
	 SCS Correlation Energy    =      -2.4841727990099205 [Eh]
	 SCS Total Energy          =    -556.0945783187817142 [Eh]
	-----------------------------------------------------------

  Dipole Moment: [D]
     X:     1.7756      Y:    -2.6103      Z:     2.2689     Total:     3.8878

*** Psi4 exiting successfully. Buy a developer a beer!
