                               Psi4 1.4a3.dev225

  ==> Input File <==

--------------------------------------------------------------------------
#psi4
#
memory 32 gb

molecule  {
0 1
  O        0.3130990     2.3704440    -1.0483590
  N        1.7883250     1.2487180     0.2800910
  C        1.5287440    -1.3320340    -0.8115580
  C        2.5082430    -1.1273300     0.3546920
  C        0.1126956    -1.0876947    -0.4209294
  C       -0.3593510     0.2288580    -0.1728470
  C        2.1500350     0.1348000     1.1432270
  C       -1.6973100     0.4876920     0.1815770
  C        0.5874820     1.3794060    -0.3635620
  C       -0.8057180    -2.1460500    -0.2745700
  C       -2.5635920    -0.6025190     0.3218070
  C       -2.1294290    -1.9083920     0.0915650
  C       -2.2005820     1.8899870     0.4130340
  H        1.6305660    -2.3487650    -1.2074160
  H        1.8022820    -0.6509930    -1.6251500
  H        2.4785080    -1.9866810     1.0363320
  H        3.5296620    -1.0584230    -0.0385230
  H        1.3070990    -0.0748920     1.8087120
  H        2.9845300     0.4555350     1.7739000
  H        2.4430930     2.0063180     0.1171350
  H       -0.4670580    -3.1628320    -0.4675050
  H       -3.5988730    -0.4222000     0.6058720
  H       -2.8229980    -2.7393000     0.2003190
  H       -1.5534710     2.4410460     1.1016880
  H       -2.2209110     2.4548110    -0.5213210
  H       -3.2087000     1.8617690     0.8360960
units angstrom
no_reorient  #important for SAPT in psi4, default
symmetry c1  #important for SAPT in psi4, default
}

set PROPERTIES_ORIGIN ["COM"]
properties('MP2/aug-cc-pvtz', properties = ['dipole'])
--------------------------------------------------------------------------

    Molecular point group: c1
  Charge       = 0
  Multiplicity = 1
  Basis Set: AUG-CC-PVTZ
    Blend: AUG-CC-PVTZ
  Basis Set: (AUG-CC-PVTZ AUX)
    Blend: AUG-CC-PVTZ-JKFIT

    Orbital Energies [Eh]
    ---------------------

    Doubly Occupied:

       1A    -20.512385     2A    -15.583005     3A    -11.349809
       4A    -11.275049     5A    -11.255795     6A    -11.253460
       7A    -11.244375     8A    -11.242989     9A    -11.238173
      10A    -11.237489    11A    -11.236442    12A    -11.232884
      13A    -11.215930    14A     -1.367332    15A     -1.235403
      16A     -1.162365    17A     -1.086887    18A     -1.044049
      19A     -1.028337    20A     -0.943723    21A     -0.932859
      22A     -0.873999    23A     -0.830773    24A     -0.784818
      25A     -0.768486    26A     -0.693760    27A     -0.683283
      28A     -0.660443    29A     -0.658613    30A     -0.619699
      31A     -0.615617    32A     -0.591018    33A     -0.584273
      34A     -0.570223    35A     -0.565660    36A     -0.553591
      37A     -0.532044    38A     -0.530128    39A     -0.514242
      40A     -0.505560    41A     -0.487914    42A     -0.478749
      43A     -0.476324    44A     -0.416672    45A     -0.386063
      46A     -0.335609    47A     -0.326352

  @DF-RHF Final Energy:  -553.64206174667891

   => Energetics <=

    Nuclear Repulsion Energy =            795.8805911055449087
    One-Electron Energy =               -2331.5999960905382977
    Two-Electron Energy =                 982.0773432383144836
    Total Energy =                       -553.6420617466789054
  Basis Set: (AUG-CC-PVTZ AUX)
    Blend: AUG-CC-PVTZ-RI
    Molecular point group: c1

    Geometry (in Angstrom), charge = 0, multiplicity = 1:

       Center              X                  Y                   Z               Mass
    ------------   -----------------  -----------------  -----------------  -----------------
         O            0.324827139969     2.352444085388    -1.027521822679    15.994914619570
         N            1.800053139969     1.230718085388     0.300928177321    14.003074004430
         C            1.540472139969    -1.350033914612    -0.790720822679    12.000000000000
         C            2.519971139969    -1.145329914612     0.375529177321    12.000000000000
         C            0.124423739969    -1.105694614612    -0.400092222679    12.000000000000
         C           -0.347622860031     0.210858085388    -0.152009822679    12.000000000000
         C            2.161763139969     0.116800085388     1.164064177321    12.000000000000
         C           -1.685581860031     0.469692085388     0.202414177321    12.000000000000
         C            0.599210139969     1.361406085388    -0.342724822679    12.000000000000
         C           -0.793989860031    -2.164049914612    -0.253732822679    12.000000000000
         C           -2.551863860031    -0.620518914612     0.342644177321    12.000000000000
         C           -2.117700860031    -1.926391914612     0.112402177321    12.000000000000
         C           -2.188853860031     1.871987085388     0.433871177321    12.000000000000
         H            1.642294139969    -2.366764914612    -1.186578822679     1.007825032230
         H            1.814010139969    -0.668992914612    -1.604312822679     1.007825032230
         H            2.490236139969    -2.004680914612     1.057169177321     1.007825032230
         H            3.541390139969    -1.076422914612    -0.017685822679     1.007825032230
         H            1.318827139969    -0.092891914612     1.829549177321     1.007825032230
         H            2.996258139969     0.437535085388     1.794737177321     1.007825032230
         H            2.454821139969     1.988318085388     0.137972177321     1.007825032230
         H           -0.455329860031    -3.180831914612    -0.446667822679     1.007825032230
         H           -3.587144860031    -0.440199914612     0.626709177321     1.007825032230
         H           -2.811269860031    -2.757299914612     0.221156177321     1.007825032230
         H           -1.541742860031     2.423046085388     1.122525177321     1.007825032230
         H           -2.209182860031     2.436811085388    -0.500483822679     1.007825032230
         H           -3.196971860031     1.843769085388     0.856933177321     1.007825032230

  Basis Set: AUG-CC-PVTZ
    Blend: AUG-CC-PVTZ
  Basis Set: (AUG-CC-PVTZ AUX)
    Blend: AUG-CC-PVTZ-JKFIT
	 Reference Energy          =    -553.6420617466789054 [Eh]
	 Singles Energy            =      -0.0000000000000000 [Eh]
	 Same-Spin Energy          =      -0.6044607567838363 [Eh]
	 Opposite-Spin Energy      =      -1.9034658708846948 [Eh]
	 Correlation Energy        =      -2.5079266276685308 [Eh]
	 Total Energy              =    -556.1499883743474584 [Eh]

	 ================> DF-SCS-MP2 Energies <==================
	-----------------------------------------------------------
	 SCS Same-Spin Scale       =       0.3333333333333333 [-]
	 SCS Opposite-Spin Scale   =       1.2000000000000000 [-]
	 SCS Same-Spin Energy      =      -0.2014869189279454 [Eh]
	 SCS Opposite-Spin Energy  =      -2.2841590450616338 [Eh]
	 SCS Correlation Energy    =      -2.4856459639895792 [Eh]
	 SCS Total Energy          =    -556.1277077106684601 [Eh]
	-----------------------------------------------------------

  Dipole Moment: [D]
     X:     1.7426      Y:    -2.5425      Z:     2.2034     Total:     3.7889

*** Psi4 exiting successfully. Buy a developer a beer!
