                               Psi4 1.4a3.dev225

  ==> Input File <==

--------------------------------------------------------------------------
#psi4
#
memory 32 gb

molecule  {
0 1
  O        0.3130990     2.3704440    -1.0483590
  N        1.7883250     1.2487180     0.2800910
  C        1.5287440    -1.3320340    -0.8115580
  C        2.5082430    -1.1273300     0.3546920
  C        0.0936770    -1.0844130    -0.4156830
  C       -0.3593510     0.2288580    -0.1728470
  C        2.1500350     0.1348000     1.1432270
  C       -1.6973100     0.4876920     0.1815770
  C        0.5874820     1.3794060    -0.3635620
  C       -0.8057180    -2.1460500    -0.2745700
  C       -2.5635920    -0.6025190     0.3218070
  C       -2.1071645    -1.8998828     0.0865747
  C       -2.2005820     1.8899870     0.4130340
  H        1.6305660    -2.3487650    -1.2074160
  H        1.8022820    -0.6509930    -1.6251500
  H        2.4785080    -1.9866810     1.0363320
  H        3.5296620    -1.0584230    -0.0385230
  H        1.3070990    -0.0748920     1.8087120
  H        2.9845300     0.4555350     1.7739000
  H        2.4430930     2.0063180     0.1171350
  H       -0.4670580    -3.1628320    -0.4675050
  H       -3.5988730    -0.4222000     0.6058720
  H       -2.8229980    -2.7393000     0.2003190
  H       -1.5534710     2.4410460     1.1016880
  H       -2.2209110     2.4548110    -0.5213210
  H       -3.2087000     1.8617690     0.8360960
units angstrom
no_reorient  #important for SAPT in psi4, default
symmetry c1  #important for SAPT in psi4, default
}

set PROPERTIES_ORIGIN ["COM"]
properties('MP2/aug-cc-pvtz', properties = ['dipole'])
--------------------------------------------------------------------------

    Molecular point group: c1
  Charge       = 0
  Multiplicity = 1
  Basis Set: AUG-CC-PVTZ
    Blend: AUG-CC-PVTZ
  Basis Set: (AUG-CC-PVTZ AUX)
    Blend: AUG-CC-PVTZ-JKFIT

    Orbital Energies [Eh]
    ---------------------

    Doubly Occupied:

       1A    -20.512619     2A    -15.583050     3A    -11.350270
       4A    -11.274952     5A    -11.254605     6A    -11.253242
       7A    -11.243679     8A    -11.241642     9A    -11.238365
      10A    -11.237554    11A    -11.233039    12A    -11.232229
      13A    -11.215756    14A     -1.367535    15A     -1.235364
      16A     -1.165422    17A     -1.084695    18A     -1.046803
      19A     -1.028470    20A     -0.943223    21A     -0.933957
      22A     -0.873669    23A     -0.829350    24A     -0.784945
      25A     -0.769414    26A     -0.694689    27A     -0.683179
      28A     -0.660012    29A     -0.657375    30A     -0.619934
      31A     -0.615283    32A     -0.588815    33A     -0.583932
      34A     -0.570487    35A     -0.567059    36A     -0.553242
      37A     -0.531928    38A     -0.531646    39A     -0.514260
      40A     -0.502430    41A     -0.487801    42A     -0.480787
      43A     -0.474953    44A     -0.417237    45A     -0.386051
      46A     -0.337379    47A     -0.327995

  @DF-RHF Final Energy:  -553.64268312544459

   => Energetics <=

    Nuclear Repulsion Energy =            796.4646092196740028
    One-Electron Energy =               -2332.7739410293411311
    Two-Electron Energy =                 982.6666486842225368
    Total Energy =                       -553.6426831254445915
  Basis Set: (AUG-CC-PVTZ AUX)
    Blend: AUG-CC-PVTZ-RI
    Molecular point group: c1

    Geometry (in Angstrom), charge = 0, multiplicity = 1:

       Center              X                  Y                   Z               Mass
    ------------   -----------------  -----------------  -----------------  -----------------
         O            0.324604690720     2.351636026958    -1.027539373822    15.994914619570
         N            1.799830690720     1.229910026958     0.300910626178    14.003074004430
         C            1.540249690720    -1.350841973042    -0.790738373822    12.000000000000
         C            2.519748690720    -1.146137973042     0.375511626178    12.000000000000
         C            0.105182690720    -1.103220973042    -0.394863373822    12.000000000000
         C           -0.347845309280     0.210050026958    -0.152027373822    12.000000000000
         C            2.161540690720     0.115992026958     1.164046626178    12.000000000000
         C           -1.685804309280     0.468884026958     0.202396626178    12.000000000000
         C            0.598987690720     1.360598026958    -0.342742373822    12.000000000000
         C           -0.794212309280    -2.164857973042    -0.253750373822    12.000000000000
         C           -2.552086309280    -0.621326973042     0.342626626178    12.000000000000
         C           -2.095658809280    -1.918690773042     0.107394326178    12.000000000000
         C           -2.189076309280     1.871179026958     0.433853626178    12.000000000000
         H            1.642071690720    -2.367572973042    -1.186596373822     1.007825032230
         H            1.813787690720    -0.669800973042    -1.604330373822     1.007825032230
         H            2.490013690720    -2.005488973042     1.057151626178     1.007825032230
         H            3.541167690720    -1.077230973042    -0.017703373822     1.007825032230
         H            1.318604690720    -0.093699973042     1.829531626178     1.007825032230
         H            2.996035690720     0.436727026958     1.794719626178     1.007825032230
         H            2.454598690720     1.987510026958     0.137954626178     1.007825032230
         H           -0.455552309280    -3.181639973042    -0.446685373822     1.007825032230
         H           -3.587367309280    -0.441007973042     0.626691626178     1.007825032230
         H           -2.811492309280    -2.758107973042     0.221138626178     1.007825032230
         H           -1.541965309280     2.422238026958     1.122507626178     1.007825032230
         H           -2.209405309280     2.436003026958    -0.500501373822     1.007825032230
         H           -3.197194309280     1.842961026958     0.856915626178     1.007825032230

  Basis Set: AUG-CC-PVTZ
    Blend: AUG-CC-PVTZ
  Basis Set: (AUG-CC-PVTZ AUX)
    Blend: AUG-CC-PVTZ-JKFIT
	 Reference Energy          =    -553.6426831254445915 [Eh]
	 Singles Energy            =      -0.0000000000000000 [Eh]
	 Same-Spin Energy          =      -0.6041791557716631 [Eh]
	 Opposite-Spin Energy      =      -1.9029366000317482 [Eh]
	 Correlation Energy        =      -2.5071157558034116 [Eh]
	 Total Energy              =    -556.1497988812479889 [Eh]

	 ================> DF-SCS-MP2 Energies <==================
	-----------------------------------------------------------
	 SCS Same-Spin Scale       =       0.3333333333333333 [-]
	 SCS Opposite-Spin Scale   =       1.2000000000000000 [-]
	 SCS Same-Spin Energy      =      -0.2013930519238877 [Eh]
	 SCS Opposite-Spin Energy  =      -2.2835239200380979 [Eh]
	 SCS Correlation Energy    =      -2.4849169719619857 [Eh]
	 SCS Total Energy          =    -556.1276000974065710 [Eh]
	-----------------------------------------------------------

  Dipole Moment: [D]
     X:     1.7321      Y:    -2.5322      Z:     2.2039     Total:     3.7775

*** Psi4 exiting successfully. Buy a developer a beer!
