                               Psi4 1.4a3.dev225

  ==> Input File <==

--------------------------------------------------------------------------
#psi4
#
memory 32 gb

molecule  {
0 1
  O        0.3130990     2.3704440    -1.0483590
  N        1.7883250     1.2487180     0.2800910
  C        1.5287440    -1.3320340    -0.8115580
  C        2.5082430    -1.1273300     0.3546920
  C        0.0936770    -1.0844130    -0.4156830
  C       -0.3593510     0.2288580    -0.1728470
  C        2.1500350     0.1348000     1.1432270
  C       -1.6973100     0.4876920     0.1815770
  C        0.7629516     1.3603096    -0.2695101
  C       -0.8057180    -2.1460500    -0.2745700
  C       -2.5635920    -0.6025190     0.3218070
  C       -2.1294290    -1.9083920     0.0915650
  C       -2.2005820     1.8899870     0.4130340
  H        1.6305660    -2.3487650    -1.2074160
  H        1.8022820    -0.6509930    -1.6251500
  H        2.4785080    -1.9866810     1.0363320
  H        3.5296620    -1.0584230    -0.0385230
  H        1.3070990    -0.0748920     1.8087120
  H        2.9845300     0.4555350     1.7739000
  H        2.4430930     2.0063180     0.1171350
  H       -0.4670580    -3.1628320    -0.4675050
  H       -3.5988730    -0.4222000     0.6058720
  H       -2.8229980    -2.7393000     0.2003190
  H       -1.5534710     2.4410460     1.1016880
  H       -2.2209110     2.4548110    -0.5213210
  H       -3.2087000     1.8617690     0.8360960
units angstrom
no_reorient  #important for SAPT in psi4, default
symmetry c1  #important for SAPT in psi4, default
}

set PROPERTIES_ORIGIN ["COM"]
properties('MP2/aug-cc-pvtz', properties = ['dipole'])
--------------------------------------------------------------------------

    Molecular point group: c1
  Charge       = 0
  Multiplicity = 1
  Basis Set: AUG-CC-PVTZ
    Blend: AUG-CC-PVTZ
  Basis Set: (AUG-CC-PVTZ AUX)
    Blend: AUG-CC-PVTZ-JKFIT

    Orbital Energies [Eh]
    ---------------------

    Doubly Occupied:

       1A    -20.476892     2A    -15.618548     3A    -11.338361
       4A    -11.297148     5A    -11.251636     6A    -11.247886
       7A    -11.247280     8A    -11.246114     9A    -11.243087
      10A    -11.237992    11A    -11.231867    12A    -11.229326
      13A    -11.207157    14A     -1.377964    15A     -1.234251
      16A     -1.160335    17A     -1.097382    18A     -1.043969
      19A     -1.029004    20A     -0.961173    21A     -0.929801
      22A     -0.882076    23A     -0.844400    24A     -0.800758
      25A     -0.776320    26A     -0.711205    27A     -0.688386
      28A     -0.671055    29A     -0.658564    30A     -0.628878
      31A     -0.618798    32A     -0.591457    33A     -0.580622
      34A     -0.562692    35A     -0.560139    36A     -0.545882
      37A     -0.537153    38A     -0.517611    39A     -0.513994
      40A     -0.501545    41A     -0.482777    42A     -0.474619
      43A     -0.472322    44A     -0.390189    45A     -0.381235
      46A     -0.326678    47A     -0.322208

  @DF-RHF Final Energy:  -553.57719923591696

   => Energetics <=

    Nuclear Repulsion Energy =            796.2788688606935921
    One-Electron Energy =               -2332.2146601491199362
    Two-Electron Energy =                 982.3585920525093798
    Total Energy =                       -553.5771992359169644
  Basis Set: (AUG-CC-PVTZ AUX)
    Blend: AUG-CC-PVTZ-RI
    Molecular point group: c1

    Geometry (in Angstrom), charge = 0, multiplicity = 1:

       Center              X                  Y                   Z               Mass
    ------------   -----------------  -----------------  -----------------  -----------------
         O            0.314105180712     2.353527904405    -1.034326971428    15.994914619570
         N            1.789331180712     1.231801904405     0.294123028572    14.003074004430
         C            1.529750180712    -1.348950095595    -0.797525971428    12.000000000000
         C            2.509249180712    -1.144246095595     0.368724028572    12.000000000000
         C            0.094683180712    -1.101329095595    -0.401650971428    12.000000000000
         C           -0.358344819288     0.211941904405    -0.158814971428    12.000000000000
         C            2.151041180712     0.117883904405     1.157259028572    12.000000000000
         C           -1.696303819288     0.470775904405     0.195609028572    12.000000000000
         C            0.763957780712     1.343393504405    -0.255478071428    12.000000000000
         C           -0.804711819288    -2.162966095595    -0.260537971428    12.000000000000
         C           -2.562585819288    -0.619435095595     0.335839028572    12.000000000000
         C           -2.128422819288    -1.925308095595     0.105597028572    12.000000000000
         C           -2.199575819288     1.873070904405     0.427066028572    12.000000000000
         H            1.631572180712    -2.365681095595    -1.193383971428     1.007825032230
         H            1.803288180712    -0.667909095595    -1.611117971428     1.007825032230
         H            2.479514180712    -2.003597095595     1.050364028572     1.007825032230
         H            3.530668180712    -1.075339095595    -0.024490971428     1.007825032230
         H            1.308105180712    -0.091808095595     1.822744028572     1.007825032230
         H            2.985536180712     0.438618904405     1.787932028572     1.007825032230
         H            2.444099180712     1.989401904405     0.131167028572     1.007825032230
         H           -0.466051819288    -3.179748095595    -0.453472971428     1.007825032230
         H           -3.597866819288    -0.439116095595     0.619904028572     1.007825032230
         H           -2.821991819288    -2.756216095595     0.214351028572     1.007825032230
         H           -1.552464819288     2.424129904405     1.115720028572     1.007825032230
         H           -2.219904819288     2.437894904405    -0.507288971428     1.007825032230
         H           -3.207693819288     1.844852904405     0.850128028572     1.007825032230

  Basis Set: AUG-CC-PVTZ
    Blend: AUG-CC-PVTZ
  Basis Set: (AUG-CC-PVTZ AUX)
    Blend: AUG-CC-PVTZ-JKFIT
	 Reference Energy          =    -553.5771992359169644 [Eh]
	 Singles Energy            =      -0.0000000000000000 [Eh]
	 Same-Spin Energy          =      -0.6054736549455519 [Eh]
	 Opposite-Spin Energy      =      -1.9054536275331984 [Eh]
	 Correlation Energy        =      -2.5109272824787503 [Eh]
	 Total Energy              =    -556.0881265183957112 [Eh]

	 ================> DF-SCS-MP2 Energies <==================
	-----------------------------------------------------------
	 SCS Same-Spin Scale       =       0.3333333333333333 [-]
	 SCS Opposite-Spin Scale   =       1.2000000000000000 [-]
	 SCS Same-Spin Energy      =      -0.2018245516485173 [Eh]
	 SCS Opposite-Spin Energy  =      -2.2865443530398379 [Eh]
	 SCS Correlation Energy    =      -2.4883689046883553 [Eh]
	 SCS Total Energy          =    -556.0655681406053645 [Eh]
	-----------------------------------------------------------

  Dipole Moment: [D]
     X:     3.1091      Y:    -3.0635      Z:     3.1052     Total:     5.3566

*** Psi4 exiting successfully. Buy a developer a beer!
