                               Psi4 1.4a3.dev225

  ==> Input File <==

--------------------------------------------------------------------------
#psi4
#
memory 32 gb

molecule  {
0 1
  O        0.3130990     2.3704440    -1.0483590
  N        1.7883250     1.2487180     0.2800910
  C        1.5287440    -1.3320340    -0.8115580
  C        2.5082430    -1.1273300     0.3546920
  C        0.0936770    -1.0844130    -0.4156830
  C       -0.3593510     0.2288580    -0.1728470
  C        2.1500350     0.1348000     1.1432270
  C       -1.6973100     0.4876920     0.1815770
  C        0.5874820     1.3794060    -0.3635620
  C       -0.8057180    -2.1460500    -0.2745700
  C       -2.5635920    -0.6025190     0.3218070
  C       -1.9980614    -1.8514651     0.0627279
  C       -2.2005820     1.8899870     0.4130340
  H        1.6305660    -2.3487650    -1.2074160
  H        1.8022820    -0.6509930    -1.6251500
  H        2.4785080    -1.9866810     1.0363320
  H        3.5296620    -1.0584230    -0.0385230
  H        1.3070990    -0.0748920     1.8087120
  H        2.9845300     0.4555350     1.7739000
  H        2.4430930     2.0063180     0.1171350
  H       -0.4670580    -3.1628320    -0.4675050
  H       -3.5988730    -0.4222000     0.6058720
  H       -2.8229980    -2.7393000     0.2003190
  H       -1.5534710     2.4410460     1.1016880
  H       -2.2209110     2.4548110    -0.5213210
  H       -3.2087000     1.8617690     0.8360960
units angstrom
no_reorient  #important for SAPT in psi4, default
symmetry c1  #important for SAPT in psi4, default
}

set PROPERTIES_ORIGIN ["COM"]
properties('MP2/aug-cc-pvtz', properties = ['dipole'])
--------------------------------------------------------------------------

    Molecular point group: c1
  Charge       = 0
  Multiplicity = 1
  Basis Set: AUG-CC-PVTZ
    Blend: AUG-CC-PVTZ
  Basis Set: (AUG-CC-PVTZ AUX)
    Blend: AUG-CC-PVTZ-JKFIT

    Orbital Energies [Eh]
    ---------------------

    Doubly Occupied:

       1A    -20.512487     2A    -15.583266     3A    -11.350337
       4A    -11.275402     5A    -11.256670     6A    -11.252580
       7A    -11.240752     8A    -11.240326     9A    -11.239171
      10A    -11.238519    11A    -11.231339    12A    -11.221837
      13A    -11.215290    14A     -1.367521    15A     -1.235674
      16A     -1.176787    17A     -1.085534    18A     -1.058707
      19A     -1.027634    20A     -0.944061    21A     -0.938326
      22A     -0.875303    23A     -0.825420    24A     -0.786317
      25A     -0.767388    26A     -0.698594    27A     -0.685524
      28A     -0.662938    29A     -0.652450    30A     -0.622631
      31A     -0.616752    32A     -0.585932    33A     -0.582005
      34A     -0.572075    35A     -0.567826    36A     -0.553972
      37A     -0.536990    38A     -0.532924    39A     -0.516632
      40A     -0.495142    41A     -0.489648    42A     -0.480402
      43A     -0.466729    44A     -0.415585    45A     -0.386325
      46A     -0.346711    47A     -0.327287

  @DF-RHF Final Energy:  -553.61564510163441

   => Energetics <=

    Nuclear Repulsion Energy =            799.0592787721839159
    One-Electron Energy =               -2337.8664003702656373
    Two-Electron Energy =                 985.1914764964473079
    Total Energy =                       -553.6156451016344135
  Basis Set: (AUG-CC-PVTZ AUX)
    Blend: AUG-CC-PVTZ-RI
    Molecular point group: c1

    Geometry (in Angstrom), charge = 0, multiplicity = 1:

       Center              X                  Y                   Z               Mass
    ------------   -----------------  -----------------  -----------------  -----------------
         O            0.317127595699     2.348317846781    -1.025905095881    15.994914619570
         N            1.792353595699     1.226591846781     0.302544904119    14.003074004430
         C            1.532772595699    -1.354160153219    -0.789104095881    12.000000000000
         C            2.512271595699    -1.149456153219     0.377145904119    12.000000000000
         C            0.097705595699    -1.106539153219    -0.393229095881    12.000000000000
         C           -0.355322404301     0.206731846781    -0.150393095881    12.000000000000
         C            2.154063595699     0.112673846781     1.165680904119    12.000000000000
         C           -1.693281404301     0.465565846781     0.204030904119    12.000000000000
         C            0.591510595699     1.357279846781    -0.341108095881    12.000000000000
         C           -0.801689404301    -2.168176153219    -0.252116095881    12.000000000000
         C           -2.559563404301    -0.624645153219     0.344260904119    12.000000000000
         C           -1.994032804301    -1.873591253219     0.085181804119    12.000000000000
         C           -2.196553404301     1.867860846781     0.435487904119    12.000000000000
         H            1.634594595699    -2.370891153219    -1.184962095881     1.007825032230
         H            1.806310595699    -0.673119153219    -1.602696095881     1.007825032230
         H            2.482536595699    -2.008807153219     1.058785904119     1.007825032230
         H            3.533690595699    -1.080549153219    -0.016069095881     1.007825032230
         H            1.311127595699    -0.097018153219     1.831165904119     1.007825032230
         H            2.988558595699     0.433408846781     1.796353904119     1.007825032230
         H            2.447121595699     1.984191846781     0.139588904119     1.007825032230
         H           -0.463029404301    -3.184958153219    -0.445051095881     1.007825032230
         H           -3.594844404301    -0.444326153219     0.628325904119     1.007825032230
         H           -2.818969404301    -2.761426153219     0.222772904119     1.007825032230
         H           -1.549442404301     2.418919846781     1.124141904119     1.007825032230
         H           -2.216882404301     2.432684846781    -0.498867095881     1.007825032230
         H           -3.204671404301     1.839642846781     0.858549904119     1.007825032230

  Basis Set: AUG-CC-PVTZ
    Blend: AUG-CC-PVTZ
  Basis Set: (AUG-CC-PVTZ AUX)
    Blend: AUG-CC-PVTZ-JKFIT
	 Reference Energy          =    -553.6156451016344135 [Eh]
	 Singles Energy            =      -0.0000000000000000 [Eh]
	 Same-Spin Energy          =      -0.6044228217816435 [Eh]
	 Opposite-Spin Energy      =      -1.9034601648207725 [Eh]
	 Correlation Energy        =      -2.5078829866024162 [Eh]
	 Total Energy              =    -556.1235280882368670 [Eh]

	 ================> DF-SCS-MP2 Energies <==================
	-----------------------------------------------------------
	 SCS Same-Spin Scale       =       0.3333333333333333 [-]
	 SCS Opposite-Spin Scale   =       1.2000000000000000 [-]
	 SCS Same-Spin Energy      =      -0.2014742739272145 [Eh]
	 SCS Opposite-Spin Energy  =      -2.2841521977849268 [Eh]
	 SCS Correlation Energy    =      -2.4856264717121412 [Eh]
	 SCS Total Energy          =    -556.1012715733465939 [Eh]
	-----------------------------------------------------------

  Dipole Moment: [D]
     X:     1.7978      Y:    -2.4508      Z:     2.1928     Total:     3.7480

*** Psi4 exiting successfully. Buy a developer a beer!
