                               Psi4 1.4a3.dev225

  ==> Input File <==

--------------------------------------------------------------------------
#psi4
#
memory 32 gb

molecule  {
0 1
  O        0.3130990     2.3704440    -1.0483590
  N        1.7883250     1.2487180     0.2800910
  C        1.5287440    -1.3320340    -0.8115580
  C        2.5082430    -1.1273300     0.3546920
  C        0.0936770    -1.0844130    -0.4156830
  C       -0.3593510     0.2288580    -0.1728470
  C        2.1383343     0.1760270     1.1689842
  C       -1.6973100     0.4876920     0.1815770
  C        0.5874820     1.3794060    -0.3635620
  C       -0.8057180    -2.1460500    -0.2745700
  C       -2.5635920    -0.6025190     0.3218070
  C       -2.1294290    -1.9083920     0.0915650
  C       -2.2005820     1.8899870     0.4130340
  H        1.6305660    -2.3487650    -1.2074160
  H        1.8022820    -0.6509930    -1.6251500
  H        2.4785080    -1.9866810     1.0363320
  H        3.5296620    -1.0584230    -0.0385230
  H        1.3070990    -0.0748920     1.8087120
  H        2.9845300     0.4555350     1.7739000
  H        2.4430930     2.0063180     0.1171350
  H       -0.4670580    -3.1628320    -0.4675050
  H       -3.5988730    -0.4222000     0.6058720
  H       -2.8229980    -2.7393000     0.2003190
  H       -1.5534710     2.4410460     1.1016880
  H       -2.2209110     2.4548110    -0.5213210
  H       -3.2087000     1.8617690     0.8360960
units angstrom
no_reorient  #important for SAPT in psi4, default
symmetry c1  #important for SAPT in psi4, default
}

set PROPERTIES_ORIGIN ["COM"]
properties('MP2/aug-cc-pvtz', properties = ['dipole'])
--------------------------------------------------------------------------

    Molecular point group: c1
  Charge       = 0
  Multiplicity = 1
  Basis Set: AUG-CC-PVTZ
    Blend: AUG-CC-PVTZ
  Basis Set: (AUG-CC-PVTZ AUX)
    Blend: AUG-CC-PVTZ-JKFIT

    Orbital Energies [Eh]
    ---------------------

    Doubly Occupied:

       1A    -20.513590     2A    -15.583850     3A    -11.351337
       4A    -11.273171     5A    -11.254275     6A    -11.253676
       7A    -11.244491     8A    -11.242065     9A    -11.238016
      10A    -11.237213    11A    -11.235127    12A    -11.232666
      13A    -11.216142    14A     -1.368671    15A     -1.238892
      16A     -1.163934    17A     -1.081704    18A     -1.044525
      19A     -1.024891    20A     -0.942711    21A     -0.934237
      22A     -0.874215    23A     -0.830463    24A     -0.784692
      25A     -0.770855    26A     -0.695164    27A     -0.685190
      28A     -0.661666    29A     -0.659094    30A     -0.616635
      31A     -0.614264    32A     -0.590972    33A     -0.584482
      34A     -0.570724    35A     -0.567160    36A     -0.553542
      37A     -0.533878    38A     -0.531564    39A     -0.511396
      40A     -0.505212    41A     -0.487442    42A     -0.479300
      43A     -0.473547    44A     -0.418416    45A     -0.382612
      46A     -0.336633    47A     -0.327443

  @DF-RHF Final Energy:  -553.64158831820043

   => Energetics <=

    Nuclear Repulsion Energy =            795.6794798696955695
    One-Electron Energy =               -2331.1986393891156695
    Two-Electron Energy =                 981.8775712012196664
    Total Energy =                       -553.6415883182004336
  Basis Set: (AUG-CC-PVTZ AUX)
    Blend: AUG-CC-PVTZ-RI
    Molecular point group: c1

    Geometry (in Angstrom), charge = 0, multiplicity = 1:

       Center              X                  Y                   Z               Mass
    ------------   -----------------  -----------------  -----------------  -----------------
         O            0.326932406686     2.349393798282    -1.029646573151    15.994914619570
         N            1.802158406686     1.227667798282     0.298803426849    14.003074004430
         C            1.542577406686    -1.353084201718    -0.792845573151    12.000000000000
         C            2.522076406686    -1.148380201718     0.373404426849    12.000000000000
         C            0.107510406686    -1.105463201718    -0.396970573151    12.000000000000
         C           -0.345517593314     0.207807798282    -0.154134573151    12.000000000000
         C            2.152167706686     0.154976798282     1.187696626849    12.000000000000
         C           -1.683476593314     0.466641798282     0.200289426849    12.000000000000
         C            0.601315406686     1.358355798282    -0.344849573151    12.000000000000
         C           -0.791884593314    -2.167100201718    -0.255857573151    12.000000000000
         C           -2.549758593314    -0.623569201718     0.340519426849    12.000000000000
         C           -2.115595593314    -1.929442201718     0.110277426849    12.000000000000
         C           -2.186748593314     1.868936798282     0.431746426849    12.000000000000
         H            1.644399406686    -2.369815201718    -1.188703573151     1.007825032230
         H            1.816115406686    -0.672043201718    -1.606437573151     1.007825032230
         H            2.492341406686    -2.007731201718     1.055044426849     1.007825032230
         H            3.543495406686    -1.079473201718    -0.019810573151     1.007825032230
         H            1.320932406686    -0.095942201718     1.827424426849     1.007825032230
         H            2.998363406686     0.434484798282     1.792612426849     1.007825032230
         H            2.456926406686     1.985267798282     0.135847426849     1.007825032230
         H           -0.453224593314    -3.183882201718    -0.448792573151     1.007825032230
         H           -3.585039593314    -0.443250201718     0.624584426849     1.007825032230
         H           -2.809164593314    -2.760350201718     0.219031426849     1.007825032230
         H           -1.539637593314     2.419995798282     1.120400426849     1.007825032230
         H           -2.207077593314     2.433760798282    -0.502608573151     1.007825032230
         H           -3.194866593314     1.840718798282     0.854808426849     1.007825032230

  Basis Set: AUG-CC-PVTZ
    Blend: AUG-CC-PVTZ
  Basis Set: (AUG-CC-PVTZ AUX)
    Blend: AUG-CC-PVTZ-JKFIT
	 Reference Energy          =    -553.6415883182004336 [Eh]
	 Singles Energy            =      -0.0000000000000000 [Eh]
	 Same-Spin Energy          =      -0.6040411073902543 [Eh]
	 Opposite-Spin Energy      =      -1.9029182723191693 [Eh]
	 Correlation Energy        =      -2.5069593797094236 [Eh]
	 Total Energy              =    -556.1485476979098621 [Eh]

	 ================> DF-SCS-MP2 Energies <==================
	-----------------------------------------------------------
	 SCS Same-Spin Scale       =       0.3333333333333333 [-]
	 SCS Opposite-Spin Scale   =       1.2000000000000000 [-]
	 SCS Same-Spin Energy      =      -0.2013470357967514 [Eh]
	 SCS Opposite-Spin Energy  =      -2.2835019267830030 [Eh]
	 SCS Correlation Energy    =      -2.4848489625797545 [Eh]
	 SCS Total Energy          =    -556.1264372807802374 [Eh]
	-----------------------------------------------------------

  Dipole Moment: [D]
     X:     1.6980      Y:    -2.4626      Z:     2.2155     Total:     3.7223

*** Psi4 exiting successfully. Buy a developer a beer!
