                               Psi4 1.4a3.dev225

  ==> Input File <==

--------------------------------------------------------------------------
#psi4
#
memory 32 gb

molecule  {
0 1
  O        0.3130990     2.3704440    -1.0483590
  N        1.7883250     1.2487180     0.2800910
  C        1.5287440    -1.3320340    -0.8115580
  C        2.5082430    -1.1273300     0.3546920
  C        0.0936770    -1.0844130    -0.4156830
  C       -0.3593510     0.2288580    -0.1728470
  C        2.2842251     0.2040487     1.1629275
  C       -1.6973100     0.4876920     0.1815770
  C        0.5874820     1.3794060    -0.3635620
  C       -0.8057180    -2.1460500    -0.2745700
  C       -2.5635920    -0.6025190     0.3218070
  C       -2.1294290    -1.9083920     0.0915650
  C       -2.2005820     1.8899870     0.4130340
  H        1.6305660    -2.3487650    -1.2074160
  H        1.8022820    -0.6509930    -1.6251500
  H        2.4785080    -1.9866810     1.0363320
  H        3.5296620    -1.0584230    -0.0385230
  H        1.3070990    -0.0748920     1.8087120
  H        2.9845300     0.4555350     1.7739000
  H        2.4430930     2.0063180     0.1171350
  H       -0.4670580    -3.1628320    -0.4675050
  H       -3.5988730    -0.4222000     0.6058720
  H       -2.8229980    -2.7393000     0.2003190
  H       -1.5534710     2.4410460     1.1016880
  H       -2.2209110     2.4548110    -0.5213210
  H       -3.2087000     1.8617690     0.8360960
units angstrom
no_reorient  #important for SAPT in psi4, default
symmetry c1  #important for SAPT in psi4, default
}

set PROPERTIES_ORIGIN ["COM"]
properties('MP2/aug-cc-pvtz', properties = ['dipole'])
--------------------------------------------------------------------------

    Molecular point group: c1
  Charge       = 0
  Multiplicity = 1
  Basis Set: AUG-CC-PVTZ
    Blend: AUG-CC-PVTZ
  Basis Set: (AUG-CC-PVTZ AUX)
    Blend: AUG-CC-PVTZ-JKFIT

    Orbital Energies [Eh]
    ---------------------

    Doubly Occupied:

       1A    -20.514206     2A    -15.584420     3A    -11.354156
       4A    -11.277131     5A    -11.254422     6A    -11.253343
       7A    -11.244271     8A    -11.242022     9A    -11.240422
      10A    -11.239810    11A    -11.234965    12A    -11.232372
      13A    -11.215735    14A     -1.368645    15A     -1.234340
      16A     -1.163701    17A     -1.081878    18A     -1.044227
      19A     -1.028625    20A     -0.945365    21A     -0.936222
      22A     -0.876652    23A     -0.828328    24A     -0.785897
      25A     -0.767764    26A     -0.703102    27A     -0.687577
      28A     -0.666468    29A     -0.656228    30A     -0.621392
      31A     -0.614576    32A     -0.585737    33A     -0.583265
      34A     -0.571387    35A     -0.562798    36A     -0.551843
      37A     -0.537755    38A     -0.528534    39A     -0.509346
      40A     -0.500337    41A     -0.494246    42A     -0.478408
      43A     -0.467893    44A     -0.419777    45A     -0.378297
      46A     -0.336095    47A     -0.327273

  @DF-RHF Final Energy:  -553.61383220609207

   => Energetics <=

    Nuclear Repulsion Energy =            793.9092939421225310
    One-Electron Energy =               -2327.5837488813540403
    Two-Electron Energy =                 980.0606227331394393
    Total Energy =                       -553.6138322060920700
  Basis Set: (AUG-CC-PVTZ AUX)
    Blend: AUG-CC-PVTZ-RI
    Molecular point group: c1

    Geometry (in Angstrom), charge = 0, multiplicity = 1:

       Center              X                  Y                   Z               Mass
    ------------   -----------------  -----------------  -----------------  -----------------
         O            0.316934163059     2.347473404512    -1.029231493090    15.994914619570
         N            1.792160163059     1.225747404512     0.299218506910    14.003074004430
         C            1.532579163059    -1.355004595488    -0.792430493090    12.000000000000
         C            2.512078163059    -1.150300595488     0.373819506910    12.000000000000
         C            0.097512163059    -1.107383595488    -0.396555493090    12.000000000000
         C           -0.355515836941     0.205887404512    -0.153719493090    12.000000000000
         C            2.288060263059     0.181078104512     1.182055006910    12.000000000000
         C           -1.693474836941     0.464721404512     0.200704506910    12.000000000000
         C            0.591317163059     1.356435404512    -0.344434493090    12.000000000000
         C           -0.801882836941    -2.169020595488    -0.255442493090    12.000000000000
         C           -2.559756836941    -0.625489595488     0.340934506910    12.000000000000
         C           -2.125593836941    -1.931362595488     0.110692506910    12.000000000000
         C           -2.196746836941     1.867016404512     0.432161506910    12.000000000000
         H            1.634401163059    -2.371735595488    -1.188288493090     1.007825032230
         H            1.806117163059    -0.673963595488    -1.606022493090     1.007825032230
         H            2.482343163059    -2.009651595488     1.055459506910     1.007825032230
         H            3.533497163059    -1.081393595488    -0.019395493090     1.007825032230
         H            1.310934163059    -0.097862595488     1.827839506910     1.007825032230
         H            2.988365163059     0.432564404512     1.793027506910     1.007825032230
         H            2.446928163059     1.983347404512     0.136262506910     1.007825032230
         H           -0.463222836941    -3.185802595488    -0.448377493090     1.007825032230
         H           -3.595037836941    -0.445170595488     0.624999506910     1.007825032230
         H           -2.819162836941    -2.762270595488     0.219446506910     1.007825032230
         H           -1.549635836941     2.418075404512     1.120815506910     1.007825032230
         H           -2.217075836941     2.431840404512    -0.502193493090     1.007825032230
         H           -3.204864836941     1.838798404512     0.855223506910     1.007825032230

  Basis Set: AUG-CC-PVTZ
    Blend: AUG-CC-PVTZ
  Basis Set: (AUG-CC-PVTZ AUX)
    Blend: AUG-CC-PVTZ-JKFIT
	 Reference Energy          =    -553.6138322060920700 [Eh]
	 Singles Energy            =      -0.0000000000000000 [Eh]
	 Same-Spin Energy          =      -0.6043445310659719 [Eh]
	 Opposite-Spin Energy      =      -1.9042075531084230 [Eh]
	 Correlation Energy        =      -2.5085520841743949 [Eh]
	 Total Energy              =    -556.1223842902664956 [Eh]

	 ================> DF-SCS-MP2 Energies <==================
	-----------------------------------------------------------
	 SCS Same-Spin Scale       =       0.3333333333333333 [-]
	 SCS Opposite-Spin Scale   =       1.2000000000000000 [-]
	 SCS Same-Spin Energy      =      -0.2014481770219906 [Eh]
	 SCS Opposite-Spin Energy  =      -2.2850490637301077 [Eh]
	 SCS Correlation Energy    =      -2.4864972407520982 [Eh]
	 SCS Total Energy          =    -556.1003294468441709 [Eh]
	-----------------------------------------------------------

  Dipole Moment: [D]
     X:     1.7787      Y:    -2.4738      Z:     2.1585     Total:     3.7340

*** Psi4 exiting successfully. Buy a developer a beer!
