                               Psi4 1.4a3.dev225

  ==> Input File <==

--------------------------------------------------------------------------
#psi4
#
memory 32 gb

molecule  {
0 1
  O        0.3130990     2.3704440    -1.0483590
  N        1.7883250     1.2487180     0.2800910
  C        1.5332779    -1.3061116    -0.8104606
  C        2.5082430    -1.1273300     0.3546920
  C        0.0936770    -1.0844130    -0.4156830
  C       -0.3593510     0.2288580    -0.1728470
  C        2.1500350     0.1348000     1.1432270
  C       -1.6973100     0.4876920     0.1815770
  C        0.5874820     1.3794060    -0.3635620
  C       -0.8057180    -2.1460500    -0.2745700
  C       -2.5635920    -0.6025190     0.3218070
  C       -2.1294290    -1.9083920     0.0915650
  C       -2.2005820     1.8899870     0.4130340
  H        1.6305660    -2.3487650    -1.2074160
  H        1.8022820    -0.6509930    -1.6251500
  H        2.4785080    -1.9866810     1.0363320
  H        3.5296620    -1.0584230    -0.0385230
  H        1.3070990    -0.0748920     1.8087120
  H        2.9845300     0.4555350     1.7739000
  H        2.4430930     2.0063180     0.1171350
  H       -0.4670580    -3.1628320    -0.4675050
  H       -3.5988730    -0.4222000     0.6058720
  H       -2.8229980    -2.7393000     0.2003190
  H       -1.5534710     2.4410460     1.1016880
  H       -2.2209110     2.4548110    -0.5213210
  H       -3.2087000     1.8617690     0.8360960
units angstrom
no_reorient  #important for SAPT in psi4, default
symmetry c1  #important for SAPT in psi4, default
}

set PROPERTIES_ORIGIN ["COM"]
properties('MP2/aug-cc-pvtz', properties = ['dipole'])
--------------------------------------------------------------------------

    Molecular point group: c1
  Charge       = 0
  Multiplicity = 1
  Basis Set: AUG-CC-PVTZ
    Blend: AUG-CC-PVTZ
  Basis Set: (AUG-CC-PVTZ AUX)
    Blend: AUG-CC-PVTZ-JKFIT

    Orbital Energies [Eh]
    ---------------------

    Doubly Occupied:

       1A    -20.512835     2A    -15.583129     3A    -11.350417
       4A    -11.274576     5A    -11.254267     6A    -11.253335
       7A    -11.244563     8A    -11.241724     9A    -11.238489
      10A    -11.237264    11A    -11.235735    12A    -11.232837
      13A    -11.215848    14A     -1.367735    15A     -1.235665
      16A     -1.163735    17A     -1.085167    18A     -1.044963
      19A     -1.029082    20A     -0.942452    21A     -0.933538
      22A     -0.873599    23A     -0.830793    24A     -0.784775
      25A     -0.769406    26A     -0.694199    27A     -0.682580
      28A     -0.661341    29A     -0.658862    30A     -0.618703
      31A     -0.615792    32A     -0.591406    33A     -0.584321
      34A     -0.569592    35A     -0.566264    36A     -0.551851
      37A     -0.533481    38A     -0.530039    39A     -0.514479
      40A     -0.505098    41A     -0.485875    42A     -0.480451
      43A     -0.473627    44A     -0.417645    45A     -0.386142
      46A     -0.336619    47A     -0.327785

  @DF-RHF Final Energy:  -553.64215160017443

   => Energetics <=

    Nuclear Repulsion Energy =            796.2481409825729770
    One-Electron Energy =               -2332.3364347682213520
    Two-Electron Energy =                 982.4461421854739456
    Total Energy =                       -553.6421516001744294
  Basis Set: (AUG-CC-PVTZ AUX)
    Blend: AUG-CC-PVTZ-RI
    Molecular point group: c1

    Geometry (in Angstrom), charge = 0, multiplicity = 1:

       Center              X                  Y                   Z               Mass
    ------------   -----------------  -----------------  -----------------  -----------------
         O            0.325819810922     2.350442658932    -1.027956578386    15.994914619570
         N            1.801045810922     1.228716658932     0.300493421614    14.003074004430
         C            1.545998710922    -1.326112941068    -0.790058178386    12.000000000000
         C            2.520963810922    -1.147331341068     0.375094421614    12.000000000000
         C            0.106397810922    -1.104414341068    -0.395280578386    12.000000000000
         C           -0.346630189078     0.208856658932    -0.152444578386    12.000000000000
         C            2.162755810922     0.114798658932     1.163629421614    12.000000000000
         C           -1.684589189078     0.467690658932     0.201979421614    12.000000000000
         C            0.600202810922     1.359404658932    -0.343159578386    12.000000000000
         C           -0.792997189078    -2.166051341068    -0.254167578386    12.000000000000
         C           -2.550871189078    -0.622520341068     0.342209421614    12.000000000000
         C           -2.116708189078    -1.928393341068     0.111967421614    12.000000000000
         C           -2.187861189078     1.869985658932     0.433436421614    12.000000000000
         H            1.643286810922    -2.368766341068    -1.187013578386     1.007825032230
         H            1.815002810922    -0.670994341068    -1.604747578386     1.007825032230
         H            2.491228810922    -2.006682341068     1.056734421614     1.007825032230
         H            3.542382810922    -1.078424341068    -0.018120578386     1.007825032230
         H            1.319819810922    -0.094893341068     1.829114421614     1.007825032230
         H            2.997250810922     0.435533658932     1.794302421614     1.007825032230
         H            2.455813810922     1.986316658932     0.137537421614     1.007825032230
         H           -0.454337189078    -3.182833341068    -0.447102578386     1.007825032230
         H           -3.586152189078    -0.442201341068     0.626274421614     1.007825032230
         H           -2.810277189078    -2.759301341068     0.220721421614     1.007825032230
         H           -1.540750189078     2.421044658932     1.122090421614     1.007825032230
         H           -2.208190189078     2.434809658932    -0.500918578386     1.007825032230
         H           -3.195979189078     1.841767658932     0.856498421614     1.007825032230

  Basis Set: AUG-CC-PVTZ
    Blend: AUG-CC-PVTZ
  Basis Set: (AUG-CC-PVTZ AUX)
    Blend: AUG-CC-PVTZ-JKFIT
	 Reference Energy          =    -553.6421516001744294 [Eh]
	 Singles Energy            =      -0.0000000000000000 [Eh]
	 Same-Spin Energy          =      -0.6043041256645398 [Eh]
	 Opposite-Spin Energy      =      -1.9032578465038279 [Eh]
	 Correlation Energy        =      -2.5075619721683680 [Eh]
	 Total Energy              =    -556.1497135723427618 [Eh]

	 ================> DF-SCS-MP2 Energies <==================
	-----------------------------------------------------------
	 SCS Same-Spin Scale       =       0.3333333333333333 [-]
	 SCS Opposite-Spin Scale   =       1.2000000000000000 [-]
	 SCS Same-Spin Energy      =      -0.2014347085548466 [Eh]
	 SCS Opposite-Spin Energy  =      -2.2839094158045934 [Eh]
	 SCS Correlation Energy    =      -2.4853441243594401 [Eh]
	 SCS Total Energy          =    -556.1274957245339010 [Eh]
	-----------------------------------------------------------

  Dipole Moment: [D]
     X:     1.7238      Y:    -2.5260      Z:     2.2068     Total:     3.7712

*** Psi4 exiting successfully. Buy a developer a beer!
