                               Psi4 1.4a3.dev225

  ==> Input File <==

--------------------------------------------------------------------------
#psi4
#
memory 32 gb

molecule  {
0 1
  O        0.3130990     2.3704440    -1.0483590
  N        1.7883250     1.2487180     0.2800910
  C        1.5287440    -1.3320340    -0.8115580
  C        2.5082430    -1.1273300     0.3546920
  C        0.0936770    -1.0844130    -0.4156830
  C       -0.3593510     0.2288580    -0.1728470
  C        2.1500350     0.1348000     1.1432270
  C       -1.6973100     0.4876920     0.1815770
  C        0.5874820     1.3794060    -0.3635620
  C       -0.8057180    -2.1460500    -0.2745700
  C       -2.5635920    -0.6025190     0.3218070
  C       -2.1294290    -1.9083920     0.0915650
  C       -2.2005820     1.8899870     0.4130340
  H        1.6305660    -2.3487650    -1.2074160
  H        1.8022820    -0.6509930    -1.6251500
  H        2.4785080    -1.9866810     1.0363320
  H        3.5296620    -1.0584230    -0.0385230
  H        1.3070990    -0.0748920     1.8087120
  H        2.9845300     0.4555350     1.7739000
  H        2.4430930     2.0063180     0.1171350
  H       -0.4670580    -3.1628320    -0.4675050
  H       -3.5513213    -0.4304823     0.5928245
  H       -2.8229980    -2.7393000     0.2003190
  H       -1.5534710     2.4410460     1.1016880
  H       -2.2209110     2.4548110    -0.5213210
  H       -3.2087000     1.8617690     0.8360960
units angstrom
no_reorient  #important for SAPT in psi4, default
symmetry c1  #important for SAPT in psi4, default
}

set PROPERTIES_ORIGIN ["COM"]
properties('MP2/aug-cc-pvtz', properties = ['dipole'])
--------------------------------------------------------------------------

    Molecular point group: c1
  Charge       = 0
  Multiplicity = 1
  Basis Set: AUG-CC-PVTZ
    Blend: AUG-CC-PVTZ
  Basis Set: (AUG-CC-PVTZ AUX)
    Blend: AUG-CC-PVTZ-JKFIT

    Orbital Energies [Eh]
    ---------------------

    Doubly Occupied:

       1A    -20.512568     2A    -15.582924     3A    -11.350131
       4A    -11.274809     5A    -11.254133     6A    -11.253023
       7A    -11.243953     8A    -11.241624     9A    -11.238135
      10A    -11.237300    11A    -11.234936    12A    -11.226736
      13A    -11.215975    14A     -1.367459    15A     -1.235234
      16A     -1.163685    17A     -1.084874    18A     -1.044496
      19A     -1.029441    20A     -0.943082    21A     -0.934477
      22A     -0.873879    23A     -0.830528    24A     -0.786866
      25A     -0.769849    26A     -0.697442    27A     -0.683108
      28A     -0.660167    29A     -0.658651    30A     -0.620105
      31A     -0.615387    32A     -0.591437    33A     -0.585365
      34A     -0.569989    35A     -0.567733    36A     -0.553360
      37A     -0.532288    38A     -0.531447    39A     -0.513976
      40A     -0.505194    41A     -0.488736    42A     -0.479079
      43A     -0.474314    44A     -0.417326    45A     -0.385934
      46A     -0.336184    47A     -0.327278

  @DF-RHF Final Energy:  -553.64250007674696

   => Energetics <=

    Nuclear Repulsion Energy =            796.2582646391817889
    One-Electron Energy =               -2332.3523023070692943
    Two-Electron Energy =                 982.4515375911405499
    Total Energy =                       -553.6425000767469555
  Basis Set: (AUG-CC-PVTZ AUX)
    Blend: AUG-CC-PVTZ-RI
    Molecular point group: c1

    Geometry (in Angstrom), charge = 0, multiplicity = 1:

       Center              X                  Y                   Z               Mass
    ------------   -----------------  -----------------  -----------------  -----------------
         O            0.325856835577     2.352266853284    -1.027806273189    15.994914619570
         N            1.801082835577     1.230540853284     0.300643726811    14.003074004430
         C            1.541501835577    -1.350211146716    -0.791005273189    12.000000000000
         C            2.521000835577    -1.145507146716     0.375244726811    12.000000000000
         C            0.106434835577    -1.102590146716    -0.395130273189    12.000000000000
         C           -0.346593164423     0.210680853284    -0.152294273189    12.000000000000
         C            2.162792835577     0.116622853284     1.163779726811    12.000000000000
         C           -1.684552164423     0.469514853284     0.202129726811    12.000000000000
         C            0.600239835577     1.361228853284    -0.343009273189    12.000000000000
         C           -0.792960164423    -2.164227146716    -0.254017273189    12.000000000000
         C           -2.550834164423    -0.620696146716     0.342359726811    12.000000000000
         C           -2.116671164423    -1.926569146716     0.112117726811    12.000000000000
         C           -2.187824164423     1.871809853284     0.433586726811    12.000000000000
         H            1.643323835577    -2.366942146716    -1.186863273189     1.007825032230
         H            1.815039835577    -0.669170146716    -1.604597273189     1.007825032230
         H            2.491265835577    -2.004858146716     1.056884726811     1.007825032230
         H            3.542419835577    -1.076600146716    -0.017970273189     1.007825032230
         H            1.319856835577    -0.093069146716     1.829264726811     1.007825032230
         H            2.997287835577     0.437357853284     1.794452726811     1.007825032230
         H            2.455850835577     1.988140853284     0.137687726811     1.007825032230
         H           -0.454300164423    -3.181009146716    -0.446952273189     1.007825032230
         H           -3.538563464423    -0.448659446716     0.613377226811     1.007825032230
         H           -2.810240164423    -2.757477146716     0.220871726811     1.007825032230
         H           -1.540713164423     2.422868853284     1.122240726811     1.007825032230
         H           -2.208153164423     2.436633853284    -0.500768273189     1.007825032230
         H           -3.195942164423     1.843591853284     0.856648726811     1.007825032230

  Basis Set: AUG-CC-PVTZ
    Blend: AUG-CC-PVTZ
  Basis Set: (AUG-CC-PVTZ AUX)
    Blend: AUG-CC-PVTZ-JKFIT
	 Reference Energy          =    -553.6425000767469555 [Eh]
	 Singles Energy            =      -0.0000000000000000 [Eh]
	 Same-Spin Energy          =      -0.6040727485185527 [Eh]
	 Opposite-Spin Energy      =      -1.9027235403759304 [Eh]
	 Correlation Energy        =      -2.5067962888944830 [Eh]
	 Total Energy              =    -556.1492963656414759 [Eh]

	 ================> DF-SCS-MP2 Energies <==================
	-----------------------------------------------------------
	 SCS Same-Spin Scale       =       0.3333333333333333 [-]
	 SCS Opposite-Spin Scale   =       1.2000000000000000 [-]
	 SCS Same-Spin Energy      =      -0.2013575828395176 [Eh]
	 SCS Opposite-Spin Energy  =      -2.2832682484511162 [Eh]
	 SCS Correlation Energy    =      -2.4846258312906340 [Eh]
	 SCS Total Energy          =    -556.1271259080375557 [Eh]
	-----------------------------------------------------------

  Dipole Moment: [D]
     X:     1.7080      Y:    -2.5369      Z:     2.2099     Total:     3.7731

*** Psi4 exiting successfully. Buy a developer a beer!
