                               Psi4 1.4a3.dev225

  ==> Input File <==

--------------------------------------------------------------------------
#psi4
#
memory 32 gb

molecule  {
0 1
  O        0.3130990     2.3704440    -1.0483590
  N        1.7883250     1.2487180     0.2800910
  C        1.5287440    -1.3320340    -0.8115580
  C        2.5082430    -1.1273300     0.3546920
  C        0.0936770    -1.0844130    -0.4156830
  C       -0.3593510     0.2288580    -0.1728470
  C        2.1500350     0.1348000     1.1432270
  C       -1.6973100     0.4876920     0.1815770
  C        0.6050290     1.3774964    -0.3541568
  C       -0.8057180    -2.1460500    -0.2745700
  C       -2.5635920    -0.6025190     0.3218070
  C       -2.1294290    -1.9083920     0.0915650
  C       -2.2005820     1.8899870     0.4130340
  H        1.6305660    -2.3487650    -1.2074160
  H        1.8022820    -0.6509930    -1.6251500
  H        2.4785080    -1.9866810     1.0363320
  H        3.5296620    -1.0584230    -0.0385230
  H        1.3070990    -0.0748920     1.8087120
  H        2.9845300     0.4555350     1.7739000
  H        2.4430930     2.0063180     0.1171350
  H       -0.4670580    -3.1628320    -0.4675050
  H       -3.5988730    -0.4222000     0.6058720
  H       -2.8229980    -2.7393000     0.2003190
  H       -1.5534710     2.4410460     1.1016880
  H       -2.2209110     2.4548110    -0.5213210
  H       -3.2087000     1.8617690     0.8360960
units angstrom
no_reorient  #important for SAPT in psi4, default
symmetry c1  #important for SAPT in psi4, default
}

set PROPERTIES_ORIGIN ["COM"]
properties('MP2/aug-cc-pvtz', properties = ['dipole'])
--------------------------------------------------------------------------

    Molecular point group: c1
  Charge       = 0
  Multiplicity = 1
  Basis Set: AUG-CC-PVTZ
    Blend: AUG-CC-PVTZ
  Basis Set: (AUG-CC-PVTZ AUX)
    Blend: AUG-CC-PVTZ-JKFIT

    Orbital Energies [Eh]
    ---------------------

    Doubly Occupied:

       1A    -20.509239     2A    -15.586963     3A    -11.349654
       4A    -11.277157     5A    -11.253517     6A    -11.252843
       7A    -11.243719     8A    -11.242241     9A    -11.239077
      10A    -11.238433    11A    -11.234884    12A    -11.232314
      13A    -11.214987    14A     -1.361717    15A     -1.240358
      16A     -1.163378    17A     -1.085579    18A     -1.043991
      19A     -1.029222    20A     -0.944089    21A     -0.933650
      22A     -0.873702    23A     -0.831257    24A     -0.786021
      25A     -0.771017    26A     -0.694104    27A     -0.684813
      28A     -0.659746    29A     -0.659204    30A     -0.619266
      31A     -0.616219    32A     -0.590920    33A     -0.582222
      34A     -0.568733    35A     -0.565789    36A     -0.553106
      37A     -0.531530    38A     -0.530209    39A     -0.513344
      40A     -0.504622    41A     -0.489276    42A     -0.479041
      43A     -0.473545    44A     -0.415544    45A     -0.387360
      46A     -0.335477    47A     -0.327082

  @DF-RHF Final Energy:  -553.64239961175099

   => Energetics <=

    Nuclear Repulsion Energy =            795.9701103435842242
    One-Electron Energy =               -2331.7846947604930392
    Two-Electron Energy =                 982.1721848051579400
    Total Energy =                       -553.6423996117509887
  Basis Set: (AUG-CC-PVTZ AUX)
    Blend: AUG-CC-PVTZ-RI
    Molecular point group: c1

    Geometry (in Angstrom), charge = 0, multiplicity = 1:

       Center              X                  Y                   Z               Mass
    ------------   -----------------  -----------------  -----------------  -----------------
         O            0.324927992219     2.352350052110    -1.028525931686    15.994914619570
         N            1.800153992219     1.230624052110     0.299924068314    14.003074004430
         C            1.540572992219    -1.350127947890    -0.791724931686    12.000000000000
         C            2.520071992219    -1.145423947890     0.374525068314    12.000000000000
         C            0.105505992219    -1.102506947890    -0.395849931686    12.000000000000
         C           -0.347522007781     0.210764052110    -0.153013931686    12.000000000000
         C            2.161863992219     0.116706052110     1.163060068314    12.000000000000
         C           -1.685481007781     0.469598052110     0.201410068314    12.000000000000
         C            0.616857992219     1.359402452110    -0.334323731686    12.000000000000
         C           -0.793889007781    -2.164143947890    -0.254736931686    12.000000000000
         C           -2.551763007781    -0.620612947890     0.341640068314    12.000000000000
         C           -2.117600007781    -1.926485947890     0.111398068314    12.000000000000
         C           -2.188753007781     1.871893052110     0.432867068314    12.000000000000
         H            1.642394992219    -2.366858947890    -1.187582931686     1.007825032230
         H            1.814110992219    -0.669086947890    -1.605316931686     1.007825032230
         H            2.490336992219    -2.004774947890     1.056165068314     1.007825032230
         H            3.541490992219    -1.076516947890    -0.018689931686     1.007825032230
         H            1.318927992219    -0.092985947890     1.828545068314     1.007825032230
         H            2.996358992219     0.437441052110     1.793733068314     1.007825032230
         H            2.454921992219     1.988224052110     0.136968068314     1.007825032230
         H           -0.455229007781    -3.180925947890    -0.447671931686     1.007825032230
         H           -3.587044007781    -0.440293947890     0.625705068314     1.007825032230
         H           -2.811169007781    -2.757393947890     0.220152068314     1.007825032230
         H           -1.541642007781     2.422952052110     1.121521068314     1.007825032230
         H           -2.209082007781     2.436717052110    -0.501487931686     1.007825032230
         H           -3.196871007781     1.843675052110     0.855929068314     1.007825032230

  Basis Set: AUG-CC-PVTZ
    Blend: AUG-CC-PVTZ
  Basis Set: (AUG-CC-PVTZ AUX)
    Blend: AUG-CC-PVTZ-JKFIT
	 Reference Energy          =    -553.6423996117509887 [Eh]
	 Singles Energy            =      -0.0000000000000000 [Eh]
	 Same-Spin Energy          =      -0.6042925738753320 [Eh]
	 Opposite-Spin Energy      =      -1.9032685619543532 [Eh]
	 Correlation Energy        =      -2.5075611358296852 [Eh]
	 Total Energy              =    -556.1499607475806215 [Eh]

	 ================> DF-SCS-MP2 Energies <==================
	-----------------------------------------------------------
	 SCS Same-Spin Scale       =       0.3333333333333333 [-]
	 SCS Opposite-Spin Scale   =       1.2000000000000000 [-]
	 SCS Same-Spin Energy      =      -0.2014308579584440 [Eh]
	 SCS Opposite-Spin Energy  =      -2.2839222743452239 [Eh]
	 SCS Correlation Energy    =      -2.4853531323036679 [Eh]
	 SCS Total Energy          =    -556.1277527440546464 [Eh]
	-----------------------------------------------------------

  Dipole Moment: [D]
     X:     1.8779      Y:    -2.5796      Z:     2.2935     Total:     3.9295

*** Psi4 exiting successfully. Buy a developer a beer!
