                               Psi4 1.4a3.dev225

  ==> Input File <==

--------------------------------------------------------------------------
#psi4
#
memory 32 gb

molecule  {
0 1
  O        0.3130990     2.3704440    -1.0483590
  N        1.7883250     1.2487180     0.2800910
  C        1.5769933    -1.1886345    -0.8661589
  C        2.5082430    -1.1273300     0.3546920
  C        0.0936770    -1.0844130    -0.4156830
  C       -0.3593510     0.2288580    -0.1728470
  C        2.1500350     0.1348000     1.1432270
  C       -1.6973100     0.4876920     0.1815770
  C        0.5874820     1.3794060    -0.3635620
  C       -0.8057180    -2.1460500    -0.2745700
  C       -2.5635920    -0.6025190     0.3218070
  C       -2.1294290    -1.9083920     0.0915650
  C       -2.2005820     1.8899870     0.4130340
  H        1.6305660    -2.3487650    -1.2074160
  H        1.8022820    -0.6509930    -1.6251500
  H        2.4785080    -1.9866810     1.0363320
  H        3.5296620    -1.0584230    -0.0385230
  H        1.3070990    -0.0748920     1.8087120
  H        2.9845300     0.4555350     1.7739000
  H        2.4430930     2.0063180     0.1171350
  H       -0.4670580    -3.1628320    -0.4675050
  H       -3.5988730    -0.4222000     0.6058720
  H       -2.8229980    -2.7393000     0.2003190
  H       -1.5534710     2.4410460     1.1016880
  H       -2.2209110     2.4548110    -0.5213210
  H       -3.2087000     1.8617690     0.8360960
units angstrom
no_reorient  #important for SAPT in psi4, default
symmetry c1  #important for SAPT in psi4, default
}

set PROPERTIES_ORIGIN ["COM"]
properties('MP2/aug-cc-pvtz', properties = ['dipole'])
--------------------------------------------------------------------------

    Molecular point group: c1
  Charge       = 0
  Multiplicity = 1
  Basis Set: AUG-CC-PVTZ
    Blend: AUG-CC-PVTZ
  Basis Set: (AUG-CC-PVTZ AUX)
    Blend: AUG-CC-PVTZ-JKFIT

    Orbital Energies [Eh]
    ---------------------

    Doubly Occupied:

       1A    -20.513512     2A    -15.583780     3A    -11.350860
       4A    -11.273565     5A    -11.256841     6A    -11.252601
       7A    -11.245260     8A    -11.240480     9A    -11.240397
      10A    -11.239296    11A    -11.237645    12A    -11.233066
      13A    -11.215575    14A     -1.368481    15A     -1.236741
      16A     -1.162569    17A     -1.082842    18A     -1.045500
      19A     -1.028912    20A     -0.942037    21A     -0.935820
      22A     -0.871952    23A     -0.833758    24A     -0.791104
      25A     -0.768409    26A     -0.694977    27A     -0.680649
      28A     -0.671136    29A     -0.657627    30A     -0.620889
      31A     -0.613826    32A     -0.593197    33A     -0.583600
      34A     -0.569421    35A     -0.567527    36A     -0.551060
      37A     -0.541601    38A     -0.528136    39A     -0.517164
      40A     -0.504401    41A     -0.489695    42A     -0.469430
      43A     -0.459072    44A     -0.418515    45A     -0.386908
      46A     -0.337243    47A     -0.328424

  @DF-RHF Final Energy:  -553.61087558468626

   => Energetics <=

    Nuclear Repulsion Energy =            796.3629495383140693
    One-Electron Energy =               -2332.4766525666377674
    Two-Electron Energy =                 982.5028274436374431
    Total Energy =                       -553.6108755846862550
  Basis Set: (AUG-CC-PVTZ AUX)
    Blend: AUG-CC-PVTZ-RI
    Molecular point group: c1

    Geometry (in Angstrom), charge = 0, multiplicity = 1:

       Center              X                  Y                   Z               Mass
    ------------   -----------------  -----------------  -----------------  -----------------
         O            0.322823890553     2.342391673768    -1.024139441370    15.994914619570
         N            1.798049890553     1.220665673768     0.304310558630    14.003074004430
         C            1.586718190553    -1.216686826232    -0.841939341370    12.000000000000
         C            2.517967890553    -1.155382326232     0.378911558630    12.000000000000
         C            0.103401890553    -1.112465326232    -0.391463441370    12.000000000000
         C           -0.349626109447     0.200805673768    -0.148627441370    12.000000000000
         C            2.159759890553     0.106747673768     1.167446558630    12.000000000000
         C           -1.687585109447     0.459639673768     0.205796558630    12.000000000000
         C            0.597206890553     1.351353673768    -0.339342441370    12.000000000000
         C           -0.795993109447    -2.174102326232    -0.250350441370    12.000000000000
         C           -2.553867109447    -0.630571326232     0.346026558630    12.000000000000
         C           -2.119704109447    -1.936444326232     0.115784558630    12.000000000000
         C           -2.190857109447     1.861934673768     0.437253558630    12.000000000000
         H            1.640290890553    -2.376817326232    -1.183196441370     1.007825032230
         H            1.812006890553    -0.679045326232    -1.600930441370     1.007825032230
         H            2.488232890553    -2.014733326232     1.060551558630     1.007825032230
         H            3.539386890553    -1.086475326232    -0.014303441370     1.007825032230
         H            1.316823890553    -0.102944326232     1.832931558630     1.007825032230
         H            2.994254890553     0.427482673768     1.798119558630     1.007825032230
         H            2.452817890553     1.978265673768     0.141354558630     1.007825032230
         H           -0.457333109447    -3.190884326232    -0.443285441370     1.007825032230
         H           -3.589148109447    -0.450252326232     0.630091558630     1.007825032230
         H           -2.813273109447    -2.767352326232     0.224538558630     1.007825032230
         H           -1.543746109447     2.412993673768     1.125907558630     1.007825032230
         H           -2.211186109447     2.426758673768    -0.497101441370     1.007825032230
         H           -3.198975109447     1.833716673768     0.860315558630     1.007825032230

  Basis Set: AUG-CC-PVTZ
    Blend: AUG-CC-PVTZ
  Basis Set: (AUG-CC-PVTZ AUX)
    Blend: AUG-CC-PVTZ-JKFIT
	 Reference Energy          =    -553.6108755846862550 [Eh]
	 Singles Energy            =      -0.0000000000000000 [Eh]
	 Same-Spin Energy          =      -0.6047301052765633 [Eh]
	 Opposite-Spin Energy      =      -1.9048461048152503 [Eh]
	 Correlation Energy        =      -2.5095762100918138 [Eh]
	 Total Energy              =    -556.1204517947780914 [Eh]

	 ================> DF-SCS-MP2 Energies <==================
	-----------------------------------------------------------
	 SCS Same-Spin Scale       =       0.3333333333333333 [-]
	 SCS Opposite-Spin Scale   =       1.2000000000000000 [-]
	 SCS Same-Spin Energy      =      -0.2015767017588544 [Eh]
	 SCS Opposite-Spin Energy  =      -2.2858153257783003 [Eh]
	 SCS Correlation Energy    =      -2.4873920275371546 [Eh]
	 SCS Total Energy          =    -556.0982676122233670 [Eh]
	-----------------------------------------------------------

  Dipole Moment: [D]
     X:     1.7038      Y:    -2.4630      Z:     2.2232     Total:     3.7299

*** Psi4 exiting successfully. Buy a developer a beer!
