                               Psi4 1.4a3.dev225

  ==> Input File <==

--------------------------------------------------------------------------
#psi4
#
memory 32 gb

molecule  {
0 1
  O        0.3130990     2.3704440    -1.0483590
  N        1.7883250     1.2487180     0.2800910
  C        1.5287440    -1.3320340    -0.8115580
  C        2.5082430    -1.1273300     0.3546920
  C        0.0936770    -1.0844130    -0.4156830
  C       -0.3593510     0.2288580    -0.1728470
  C        2.1500350     0.1348000     1.1432270
  C       -1.6973100     0.4876920     0.1815770
  C        0.5874820     1.3794060    -0.3635620
  C       -0.8057180    -2.1460500    -0.2745700
  C       -2.5635920    -0.6025190     0.3218070
  C       -2.1743480    -1.9242145     0.1017544
  C       -2.2005820     1.8899870     0.4130340
  H        1.6305660    -2.3487650    -1.2074160
  H        1.8022820    -0.6509930    -1.6251500
  H        2.4785080    -1.9866810     1.0363320
  H        3.5296620    -1.0584230    -0.0385230
  H        1.3070990    -0.0748920     1.8087120
  H        2.9845300     0.4555350     1.7739000
  H        2.4430930     2.0063180     0.1171350
  H       -0.4670580    -3.1628320    -0.4675050
  H       -3.5988730    -0.4222000     0.6058720
  H       -2.8229980    -2.7393000     0.2003190
  H       -1.5534710     2.4410460     1.1016880
  H       -2.2209110     2.4548110    -0.5213210
  H       -3.2087000     1.8617690     0.8360960
units angstrom
no_reorient  #important for SAPT in psi4, default
symmetry c1  #important for SAPT in psi4, default
}

set PROPERTIES_ORIGIN ["COM"]
properties('MP2/aug-cc-pvtz', properties = ['dipole'])
--------------------------------------------------------------------------

    Molecular point group: c1
  Charge       = 0
  Multiplicity = 1
  Basis Set: AUG-CC-PVTZ
    Blend: AUG-CC-PVTZ
  Basis Set: (AUG-CC-PVTZ AUX)
    Blend: AUG-CC-PVTZ-JKFIT

    Orbital Energies [Eh]
    ---------------------

    Doubly Occupied:

       1A    -20.512924     2A    -15.583123     3A    -11.350488
       4A    -11.274875     5A    -11.254066     6A    -11.253793
       7A    -11.245920     8A    -11.242788     9A    -11.239613
      10A    -11.238106    11A    -11.237154    12A    -11.233888
      13A    -11.216217    14A     -1.367768    15A     -1.235427
      16A     -1.160697    17A     -1.084534    18A     -1.041013
      19A     -1.029240    20A     -0.943080    21A     -0.931971
      22A     -0.874003    23A     -0.831467    24A     -0.785205
      25A     -0.770644    26A     -0.692610    27A     -0.682414
      28A     -0.664743    29A     -0.658302    30A     -0.618803
      31A     -0.615623    32A     -0.595313    33A     -0.583438
      34A     -0.569668    35A     -0.564043    36A     -0.552819
      37A     -0.531345    38A     -0.527501    39A     -0.513958
      40A     -0.510174    41A     -0.489891    42A     -0.476544
      43A     -0.470853    44A     -0.417899    45A     -0.386095
      46A     -0.336071    47A     -0.325400

  @DF-RHF Final Energy:  -553.63949461933782

   => Energetics <=

    Nuclear Repulsion Energy =            795.0283711226456944
    One-Electron Energy =               -2329.8927118913879895
    Two-Electron Energy =                 981.2248461494044705
    Total Energy =                       -553.6394946193378246
  Basis Set: (AUG-CC-PVTZ AUX)
    Blend: AUG-CC-PVTZ-RI
    Molecular point group: c1

    Geometry (in Angstrom), charge = 0, multiplicity = 1:

       Center              X                  Y                   Z               Mass
    ------------   -----------------  -----------------  -----------------  -----------------
         O            0.329208935817     2.353303536249    -1.028579674778    15.994914619570
         N            1.804434935817     1.231577536249     0.299870325222    14.003074004430
         C            1.544853935817    -1.349174463751    -0.791778674778    12.000000000000
         C            2.524352935817    -1.144470463751     0.374471325222    12.000000000000
         C            0.109786935817    -1.101553463751    -0.395903674778    12.000000000000
         C           -0.343241064183     0.211717536249    -0.153067674778    12.000000000000
         C            2.166144935817     0.117659536249     1.163006325222    12.000000000000
         C           -1.681200064183     0.470551536249     0.201356325222    12.000000000000
         C            0.603591935817     1.362265536249    -0.343782674778    12.000000000000
         C           -0.789608064183    -2.163190463751    -0.254790674778    12.000000000000
         C           -2.547482064183    -0.619659463751     0.341586325222    12.000000000000
         C           -2.158238064183    -1.941354963751     0.121533725222    12.000000000000
         C           -2.184472064183     1.872846536249     0.432813325222    12.000000000000
         H            1.646675935817    -2.365905463751    -1.187636674778     1.007825032230
         H            1.818391935817    -0.668133463751    -1.605370674778     1.007825032230
         H            2.494617935817    -2.003821463751     1.056111325222     1.007825032230
         H            3.545771935817    -1.075563463751    -0.018743674778     1.007825032230
         H            1.323208935817    -0.092032463751     1.828491325222     1.007825032230
         H            3.000639935817     0.438394536249     1.793679325222     1.007825032230
         H            2.459202935817     1.989177536249     0.136914325222     1.007825032230
         H           -0.450948064183    -3.179972463751    -0.447725674778     1.007825032230
         H           -3.582763064183    -0.439340463751     0.625651325222     1.007825032230
         H           -2.806888064183    -2.756440463751     0.220098325222     1.007825032230
         H           -1.537361064183     2.423905536249     1.121467325222     1.007825032230
         H           -2.204801064183     2.437670536249    -0.501541674778     1.007825032230
         H           -3.192590064183     1.844628536249     0.855875325222     1.007825032230

  Basis Set: AUG-CC-PVTZ
    Blend: AUG-CC-PVTZ
  Basis Set: (AUG-CC-PVTZ AUX)
    Blend: AUG-CC-PVTZ-JKFIT
	 Reference Energy          =    -553.6394946193378246 [Eh]
	 Singles Energy            =      -0.0000000000000000 [Eh]
	 Same-Spin Energy          =      -0.6042416584905776 [Eh]
	 Opposite-Spin Energy      =      -1.9036380572971756 [Eh]
	 Correlation Energy        =      -2.5078797157877535 [Eh]
	 Total Energy              =    -556.1473743351256189 [Eh]

	 ================> DF-SCS-MP2 Energies <==================
	-----------------------------------------------------------
	 SCS Same-Spin Scale       =       0.3333333333333333 [-]
	 SCS Opposite-Spin Scale   =       1.2000000000000000 [-]
	 SCS Same-Spin Energy      =      -0.2014138861635259 [Eh]
	 SCS Opposite-Spin Energy  =      -2.2843656687566107 [Eh]
	 SCS Correlation Energy    =      -2.4857795549201365 [Eh]
	 SCS Total Energy          =    -556.1252741742579246 [Eh]
	-----------------------------------------------------------

  Dipole Moment: [D]
     X:     1.7263      Y:    -2.5457      Z:     2.2061     Total:     3.7852

*** Psi4 exiting successfully. Buy a developer a beer!
