                               Psi4 1.4a3.dev225

  ==> Input File <==

--------------------------------------------------------------------------
#psi4
#
memory 32 gb

molecule  {
0 1
  O        0.1988076     2.3144769    -1.0713501
  N        1.7883250     1.2487180     0.2800910
  C        1.5287440    -1.3320340    -0.8115580
  C        2.5082430    -1.1273300     0.3546920
  C        0.0936770    -1.0844130    -0.4156830
  C       -0.3593510     0.2288580    -0.1728470
  C        2.1500350     0.1348000     1.1432270
  C       -1.6973100     0.4876920     0.1815770
  C        0.5874820     1.3794060    -0.3635620
  C       -0.8057180    -2.1460500    -0.2745700
  C       -2.5635920    -0.6025190     0.3218070
  C       -2.1294290    -1.9083920     0.0915650
  C       -2.2005820     1.8899870     0.4130340
  H        1.6305660    -2.3487650    -1.2074160
  H        1.8022820    -0.6509930    -1.6251500
  H        2.4785080    -1.9866810     1.0363320
  H        3.5296620    -1.0584230    -0.0385230
  H        1.3070990    -0.0748920     1.8087120
  H        2.9845300     0.4555350     1.7739000
  H        2.4430930     2.0063180     0.1171350
  H       -0.4670580    -3.1628320    -0.4675050
  H       -3.5988730    -0.4222000     0.6058720
  H       -2.8229980    -2.7393000     0.2003190
  H       -1.5534710     2.4410460     1.1016880
  H       -2.2209110     2.4548110    -0.5213210
  H       -3.2087000     1.8617690     0.8360960
units angstrom
no_reorient  #important for SAPT in psi4, default
symmetry c1  #important for SAPT in psi4, default
}

set PROPERTIES_ORIGIN ["COM"]
properties('MP2/aug-cc-pvtz', properties = ['dipole'])
--------------------------------------------------------------------------

    Molecular point group: c1
  Charge       = 0
  Multiplicity = 1
  Basis Set: AUG-CC-PVTZ
    Blend: AUG-CC-PVTZ
  Basis Set: (AUG-CC-PVTZ AUX)
    Blend: AUG-CC-PVTZ-JKFIT

    Orbital Energies [Eh]
    ---------------------

    Doubly Occupied:

       1A    -20.515250     2A    -15.590084     3A    -11.351792
       4A    -11.278416     5A    -11.250538     6A    -11.249815
       7A    -11.241114     8A    -11.238631     9A    -11.237710
      10A    -11.237525    11A    -11.232887    12A    -11.230301
      13A    -11.212859    14A     -1.368349    15A     -1.242352
      16A     -1.160863    17A     -1.084164    18A     -1.041729
      19A     -1.027872    20A     -0.942715    21A     -0.932094
      22A     -0.872231    23A     -0.829848    24A     -0.784341
      25A     -0.769329    26A     -0.694871    27A     -0.684002
      28A     -0.660599    29A     -0.657656    30A     -0.619714
      31A     -0.616191    32A     -0.591084    33A     -0.583972
      34A     -0.567605    35A     -0.564825    36A     -0.552589
      37A     -0.531268    38A     -0.528765    39A     -0.513293
      40A     -0.504696    41A     -0.488612    42A     -0.477364
      43A     -0.472191    44A     -0.416484    45A     -0.391604
      46A     -0.331964    47A     -0.324926

  @DF-RHF Final Energy:  -553.63953893932376

   => Energetics <=

    Nuclear Repulsion Energy =            796.9582274438434979
    One-Electron Energy =               -2333.8013732506005908
    Two-Electron Energy =                 983.2036068674333364
    Total Energy =                       -553.6395389393237565
  Basis Set: (AUG-CC-PVTZ AUX)
    Blend: AUG-CC-PVTZ-RI
    Molecular point group: c1

    Geometry (in Angstrom), charge = 0, multiplicity = 1:

       Center              X                  Y                   Z               Mass
    ------------   -----------------  -----------------  -----------------  -----------------
         O            0.222279359289     2.301364535266    -1.048772292301    15.994914619570
         N            1.811796759289     1.235605635266     0.302668807699    14.003074004430
         C            1.552215759289    -1.345146364734    -0.788980192301    12.000000000000
         C            2.531714759289    -1.140442364734     0.377269807699    12.000000000000
         C            0.117148759289    -1.097525364734    -0.393105192301    12.000000000000
         C           -0.335879240711     0.215745635266    -0.150269192301    12.000000000000
         C            2.173506759289     0.121687635266     1.165804807699    12.000000000000
         C           -1.673838240711     0.474579635266     0.204154807699    12.000000000000
         C            0.610953759289     1.366293635266    -0.340984192301    12.000000000000
         C           -0.782246240711    -2.159162364734    -0.251992192301    12.000000000000
         C           -2.540120240711    -0.615631364734     0.344384807699    12.000000000000
         C           -2.105957240711    -1.921504364734     0.114142807699    12.000000000000
         C           -2.177110240711     1.876874635266     0.435611807699    12.000000000000
         H            1.654037759289    -2.361877364734    -1.184838192301     1.007825032230
         H            1.825753759289    -0.664105364734    -1.602572192301     1.007825032230
         H            2.501979759289    -1.999793364734     1.058909807699     1.007825032230
         H            3.553133759289    -1.071535364734    -0.015945192301     1.007825032230
         H            1.330570759289    -0.088004364734     1.831289807699     1.007825032230
         H            3.008001759289     0.442422635266     1.796477807699     1.007825032230
         H            2.466564759289     1.993205635266     0.139712807699     1.007825032230
         H           -0.443586240711    -3.175944364734    -0.444927192301     1.007825032230
         H           -3.575401240711    -0.435312364734     0.628449807699     1.007825032230
         H           -2.799526240711    -2.752412364734     0.222896807699     1.007825032230
         H           -1.529999240711     2.427933635266     1.124265807699     1.007825032230
         H           -2.197439240711     2.441698635266    -0.498743192301     1.007825032230
         H           -3.185228240711     1.848656635266     0.858673807699     1.007825032230

  Basis Set: AUG-CC-PVTZ
    Blend: AUG-CC-PVTZ
  Basis Set: (AUG-CC-PVTZ AUX)
    Blend: AUG-CC-PVTZ-JKFIT
	 Reference Energy          =    -553.6395389393237565 [Eh]
	 Singles Energy            =      -0.0000000000000000 [Eh]
	 Same-Spin Energy          =      -0.6045992276785457 [Eh]
	 Opposite-Spin Energy      =      -1.9038104451822129 [Eh]
	 Correlation Energy        =      -2.5084096728607586 [Eh]
	 Total Energy              =    -556.1479486121845639 [Eh]

	 ================> DF-SCS-MP2 Energies <==================
	-----------------------------------------------------------
	 SCS Same-Spin Scale       =       0.3333333333333333 [-]
	 SCS Opposite-Spin Scale   =       1.2000000000000000 [-]
	 SCS Same-Spin Energy      =      -0.2015330758928486 [Eh]
	 SCS Opposite-Spin Energy  =      -2.2845725342186554 [Eh]
	 SCS Correlation Energy    =      -2.4861056101115038 [Eh]
	 SCS Total Energy          =    -556.1256445494352647 [Eh]
	-----------------------------------------------------------

  Dipole Moment: [D]
     X:     2.1038      Y:    -2.3128      Z:     2.2338     Total:     3.8425

*** Psi4 exiting successfully. Buy a developer a beer!
