                               Psi4 1.4a3.dev225

  ==> Input File <==

--------------------------------------------------------------------------
#psi4
#
memory 32 gb

molecule  {
0 1
  O        0.3130990     2.3704440    -1.0483590
  N        1.7883250     1.2487180     0.2800910
  C        1.5287440    -1.3320340    -0.8115580
  C        2.5082430    -1.1273300     0.3546920
  C        0.0209207    -1.0240349    -0.3913941
  C       -0.3593510     0.2288580    -0.1728470
  C        2.1500350     0.1348000     1.1432270
  C       -1.6973100     0.4876920     0.1815770
  C        0.5874820     1.3794060    -0.3635620
  C       -0.8057180    -2.1460500    -0.2745700
  C       -2.5635920    -0.6025190     0.3218070
  C       -2.1294290    -1.9083920     0.0915650
  C       -2.2005820     1.8899870     0.4130340
  H        1.6305660    -2.3487650    -1.2074160
  H        1.8022820    -0.6509930    -1.6251500
  H        2.4785080    -1.9866810     1.0363320
  H        3.5296620    -1.0584230    -0.0385230
  H        1.3070990    -0.0748920     1.8087120
  H        2.9845300     0.4555350     1.7739000
  H        2.4430930     2.0063180     0.1171350
  H       -0.4670580    -3.1628320    -0.4675050
  H       -3.5988730    -0.4222000     0.6058720
  H       -2.8229980    -2.7393000     0.2003190
  H       -1.5534710     2.4410460     1.1016880
  H       -2.2209110     2.4548110    -0.5213210
  H       -3.2087000     1.8617690     0.8360960
units angstrom
no_reorient  #important for SAPT in psi4, default
symmetry c1  #important for SAPT in psi4, default
}

set PROPERTIES_ORIGIN ["COM"]
properties('MP2/aug-cc-pvtz', properties = ['dipole'])
--------------------------------------------------------------------------

    Molecular point group: c1
  Charge       = 0
  Multiplicity = 1
  Basis Set: AUG-CC-PVTZ
    Blend: AUG-CC-PVTZ
  Basis Set: (AUG-CC-PVTZ AUX)
    Blend: AUG-CC-PVTZ-JKFIT

    Orbital Energies [Eh]
    ---------------------

    Doubly Occupied:

       1A    -20.514231     2A    -15.583705     3A    -11.352331
       4A    -11.274656     5A    -11.253578     6A    -11.248704
       7A    -11.243873     8A    -11.239912     9A    -11.235671
      10A    -11.234760    11A    -11.234370    12A    -11.231027
      13A    -11.215830    14A     -1.369053    15A     -1.236010
      16A     -1.171232    17A     -1.075979    18A     -1.047104
      19A     -1.032815    20A     -0.942664    21A     -0.931550
      22A     -0.871342    23A     -0.827469    24A     -0.786117
      25A     -0.777486    26A     -0.694238    27A     -0.682122
      28A     -0.661333    29A     -0.657570    30A     -0.620905
      31A     -0.613216    32A     -0.591281    33A     -0.584605
      34A     -0.572787    35A     -0.564910    36A     -0.549642
      37A     -0.532413    38A     -0.529186    39A     -0.513470
      40A     -0.504309    41A     -0.491972    42A     -0.483600
      43A     -0.457841    44A     -0.418546    45A     -0.386300
      46A     -0.346955    47A     -0.325670

  @DF-RHF Final Energy:  -553.63440224446538

   => Energetics <=

    Nuclear Repulsion Energy =            796.9064366541911113
    One-Electron Energy =               -2333.6530066616451222
    Two-Electron Energy =                 983.1121677629886335
    Total Energy =                       -553.6344022444653774
  Basis Set: (AUG-CC-PVTZ AUX)
    Blend: AUG-CC-PVTZ-RI
    Molecular point group: c1

    Geometry (in Angstrom), charge = 0, multiplicity = 1:

       Center              X                  Y                   Z               Mass
    ------------   -----------------  -----------------  -----------------  -----------------
         O            0.331116692217     2.348081327834    -1.029545947059    15.994914619570
         N            1.806342692217     1.226355327834     0.298904052941    14.003074004430
         C            1.546761692217    -1.354396672166    -0.792744947059    12.000000000000
         C            2.526260692217    -1.149692672166     0.373505052941    12.000000000000
         C            0.038938392217    -1.046397572166    -0.372581047059    12.000000000000
         C           -0.341333307783     0.206495327834    -0.154033947059    12.000000000000
         C            2.168052692217     0.112437327834     1.162040052941    12.000000000000
         C           -1.679292307783     0.465329327834     0.200390052941    12.000000000000
         C            0.605499692217     1.357043327834    -0.344748947059    12.000000000000
         C           -0.787700307783    -2.168412672166    -0.255756947059    12.000000000000
         C           -2.545574307783    -0.624881672166     0.340620052941    12.000000000000
         C           -2.111411307783    -1.930754672166     0.110378052941    12.000000000000
         C           -2.182564307783     1.867624327834     0.431847052941    12.000000000000
         H            1.648583692217    -2.371127672166    -1.188602947059     1.007825032230
         H            1.820299692217    -0.673355672166    -1.606336947059     1.007825032230
         H            2.496525692217    -2.009043672166     1.055145052941     1.007825032230
         H            3.547679692217    -1.080785672166    -0.019709947059     1.007825032230
         H            1.325116692217    -0.097254672166     1.827525052941     1.007825032230
         H            3.002547692217     0.433172327834     1.792713052941     1.007825032230
         H            2.461110692217     1.983955327834     0.135948052941     1.007825032230
         H           -0.449040307783    -3.185194672166    -0.448691947059     1.007825032230
         H           -3.580855307783    -0.444562672166     0.624685052941     1.007825032230
         H           -2.804980307783    -2.761662672166     0.219132052941     1.007825032230
         H           -1.535453307783     2.418683327834     1.120501052941     1.007825032230
         H           -2.202893307783     2.432448327834    -0.502507947059     1.007825032230
         H           -3.190682307783     1.839406327834     0.854909052941     1.007825032230

  Basis Set: AUG-CC-PVTZ
    Blend: AUG-CC-PVTZ
  Basis Set: (AUG-CC-PVTZ AUX)
    Blend: AUG-CC-PVTZ-JKFIT
	 Reference Energy          =    -553.6344022444653774 [Eh]
	 Singles Energy            =      -0.0000000000000000 [Eh]
	 Same-Spin Energy          =      -0.6034048123404387 [Eh]
	 Opposite-Spin Energy      =      -1.9023871036529385 [Eh]
	 Correlation Energy        =      -2.5057919159933775 [Eh]
	 Total Energy              =    -556.1401941604588046 [Eh]

	 ================> DF-SCS-MP2 Energies <==================
	-----------------------------------------------------------
	 SCS Same-Spin Scale       =       0.3333333333333333 [-]
	 SCS Opposite-Spin Scale   =       1.2000000000000000 [-]
	 SCS Same-Spin Energy      =      -0.2011349374468129 [Eh]
	 SCS Opposite-Spin Energy  =      -2.2828645243835259 [Eh]
	 SCS Correlation Energy    =      -2.4839994618303387 [Eh]
	 SCS Total Energy          =    -556.1184017062956855 [Eh]
	-----------------------------------------------------------

  Dipole Moment: [D]
     X:     1.6790      Y:    -2.5315      Z:     2.2099     Total:     3.7565

*** Psi4 exiting successfully. Buy a developer a beer!
