                               Psi4 1.4a3.dev225

  ==> Input File <==

--------------------------------------------------------------------------
#psi4
#
memory 32 gb

molecule  {
0 1
  O        0.3130990     2.3704440    -1.0483590
  N        1.7883250     1.2487180     0.2800910
  C        1.5360531    -1.3082476    -0.8215634
  C        2.5082430    -1.1273300     0.3546920
  C        0.0936770    -1.0844130    -0.4156830
  C       -0.3593510     0.2288580    -0.1728470
  C        2.1500350     0.1348000     1.1432270
  C       -1.6973100     0.4876920     0.1815770
  C        0.5874820     1.3794060    -0.3635620
  C       -0.8057180    -2.1460500    -0.2745700
  C       -2.5635920    -0.6025190     0.3218070
  C       -2.1294290    -1.9083920     0.0915650
  C       -2.2005820     1.8899870     0.4130340
  H        1.6305660    -2.3487650    -1.2074160
  H        1.8022820    -0.6509930    -1.6251500
  H        2.4785080    -1.9866810     1.0363320
  H        3.5296620    -1.0584230    -0.0385230
  H        1.3070990    -0.0748920     1.8087120
  H        2.9845300     0.4555350     1.7739000
  H        2.4430930     2.0063180     0.1171350
  H       -0.4670580    -3.1628320    -0.4675050
  H       -3.5988730    -0.4222000     0.6058720
  H       -2.8229980    -2.7393000     0.2003190
  H       -1.5534710     2.4410460     1.1016880
  H       -2.2209110     2.4548110    -0.5213210
  H       -3.2087000     1.8617690     0.8360960
units angstrom
no_reorient  #important for SAPT in psi4, default
symmetry c1  #important for SAPT in psi4, default
}

set PROPERTIES_ORIGIN ["COM"]
properties('MP2/aug-cc-pvtz', properties = ['dipole'])
--------------------------------------------------------------------------

    Molecular point group: c1
  Charge       = 0
  Multiplicity = 1
  Basis Set: AUG-CC-PVTZ
    Blend: AUG-CC-PVTZ
  Basis Set: (AUG-CC-PVTZ AUX)
    Blend: AUG-CC-PVTZ-JKFIT

    Orbital Energies [Eh]
    ---------------------

    Doubly Occupied:

       1A    -20.512804     2A    -15.583126     3A    -11.350379
       4A    -11.274612     5A    -11.254475     6A    -11.253303
       7A    -11.244513     8A    -11.241678     9A    -11.238179
      10A    -11.237435    11A    -11.235634    12A    -11.232733
      13A    -11.215818    14A     -1.367708    15A     -1.235525
      16A     -1.163469    17A     -1.084200    18A     -1.044826
      19A     -1.028686    20A     -0.942616    21A     -0.933581
      22A     -0.873300    23A     -0.830517    24A     -0.785378
      25A     -0.769431    26A     -0.694084    27A     -0.682531
      28A     -0.661439    29A     -0.658678    30A     -0.618437
      31A     -0.615458    32A     -0.591525    33A     -0.583912
      34A     -0.569474    35A     -0.566506    36A     -0.551817
      37A     -0.533377    38A     -0.530393    39A     -0.514507
      40A     -0.505132    41A     -0.487329    42A     -0.480448
      43A     -0.472631    44A     -0.417628    45A     -0.386133
      46A     -0.336566    47A     -0.327701

  @DF-RHF Final Energy:  -553.64234467783001

   => Energetics <=

    Nuclear Repulsion Energy =            796.0460872947935513
    One-Electron Energy =               -2331.9376062681103576
    Two-Electron Energy =                 982.2491742954867959
    Total Energy =                       -553.6423446778300104
  Basis Set: (AUG-CC-PVTZ AUX)
    Blend: AUG-CC-PVTZ-RI
    Molecular point group: c1

    Geometry (in Angstrom), charge = 0, multiplicity = 1:

       Center              X                  Y                   Z               Mass
    ------------   -----------------  -----------------  -----------------  -----------------
         O            0.325629619864     2.350589044094    -1.027195677087    15.994914619570
         N            1.800855619864     1.228863044094     0.301254322913    14.003074004430
         C            1.548583719864    -1.328102555906    -0.800400077087    12.000000000000
         C            2.520773619864    -1.147184955906     0.375855322913    12.000000000000
         C            0.106207619864    -1.104267955906    -0.394519677087    12.000000000000
         C           -0.346820380136     0.209003044094    -0.151683677087    12.000000000000
         C            2.162565619864     0.114945044094     1.164390322913    12.000000000000
         C           -1.684779380136     0.467837044094     0.202740322913    12.000000000000
         C            0.600012619864     1.359551044094    -0.342398677087    12.000000000000
         C           -0.793187380136    -2.165904955906    -0.253406677087    12.000000000000
         C           -2.551061380136    -0.622373955906     0.342970322913    12.000000000000
         C           -2.116898380136    -1.928246955906     0.112728322913    12.000000000000
         C           -2.188051380136     1.870132044094     0.434197322913    12.000000000000
         H            1.643096619864    -2.368619955906    -1.186252677087     1.007825032230
         H            1.814812619864    -0.670847955906    -1.603986677087     1.007825032230
         H            2.491038619864    -2.006535955906     1.057495322913     1.007825032230
         H            3.542192619864    -1.078277955906    -0.017359677087     1.007825032230
         H            1.319629619864    -0.094746955906     1.829875322913     1.007825032230
         H            2.997060619864     0.435680044094     1.795063322913     1.007825032230
         H            2.455623619864     1.986463044094     0.138298322913     1.007825032230
         H           -0.454527380136    -3.182686955906    -0.446341677087     1.007825032230
         H           -3.586342380136    -0.442054955906     0.627035322913     1.007825032230
         H           -2.810467380136    -2.759154955906     0.221482322913     1.007825032230
         H           -1.540940380136     2.421191044094     1.122851322913     1.007825032230
         H           -2.208380380136     2.434956044094    -0.500157677087     1.007825032230
         H           -3.196169380136     1.841914044094     0.857259322913     1.007825032230

  Basis Set: AUG-CC-PVTZ
    Blend: AUG-CC-PVTZ
  Basis Set: (AUG-CC-PVTZ AUX)
    Blend: AUG-CC-PVTZ-JKFIT
	 Reference Energy          =    -553.6423446778300104 [Eh]
	 Singles Energy            =      -0.0000000000000000 [Eh]
	 Same-Spin Energy          =      -0.6041896940277929 [Eh]
	 Opposite-Spin Energy      =      -1.9031422139504401 [Eh]
	 Correlation Energy        =      -2.5073319079782328 [Eh]
	 Total Energy              =    -556.1496765858082654 [Eh]

	 ================> DF-SCS-MP2 Energies <==================
	-----------------------------------------------------------
	 SCS Same-Spin Scale       =       0.3333333333333333 [-]
	 SCS Opposite-Spin Scale   =       1.2000000000000000 [-]
	 SCS Same-Spin Energy      =      -0.2013965646759310 [Eh]
	 SCS Opposite-Spin Energy  =      -2.2837706567405283 [Eh]
	 SCS Correlation Energy    =      -2.4851672214164591 [Eh]
	 SCS Total Energy          =    -556.1275118992464286 [Eh]
	-----------------------------------------------------------

  Dipole Moment: [D]
     X:     1.7264      Y:    -2.5288      Z:     2.2013     Total:     3.7711

*** Psi4 exiting successfully. Buy a developer a beer!
