                               Psi4 1.4a3.dev225

  ==> Input File <==

--------------------------------------------------------------------------
#psi4
#
memory 32 gb

molecule  {
0 1
  O        0.3130990     2.3704440    -1.0483590
  N        1.7883250     1.2487180     0.2800910
  C        1.5287440    -1.3320340    -0.8115580
  C        2.5082430    -1.1273300     0.3546920
  C        0.0936770    -1.0844130    -0.4156830
  C       -0.3593510     0.2288580    -0.1728470
  C        2.1500350     0.1348000     1.1432270
  C       -1.6973100     0.4876920     0.1815770
  C        0.5874820     1.3794060    -0.3635620
  C       -0.8057180    -2.1460500    -0.2745700
  C       -2.5635920    -0.6025190     0.3218070
  C       -2.1294290    -1.9083920     0.0915650
  C       -2.2005820     1.8899870     0.4130340
  H        1.6305660    -2.3487650    -1.2074160
  H        1.8022820    -0.6509930    -1.6251500
  H        2.4785080    -1.9866810     1.0363320
  H        3.5296620    -1.0584230    -0.0385230
  H        1.2685824    -0.0844735     1.8391203
  H        2.9845300     0.4555350     1.7739000
  H        2.4430930     2.0063180     0.1171350
  H       -0.4670580    -3.1628320    -0.4675050
  H       -3.5988730    -0.4222000     0.6058720
  H       -2.8229980    -2.7393000     0.2003190
  H       -1.5534710     2.4410460     1.1016880
  H       -2.2209110     2.4548110    -0.5213210
  H       -3.2087000     1.8617690     0.8360960
units angstrom
no_reorient  #important for SAPT in psi4, default
symmetry c1  #important for SAPT in psi4, default
}

set PROPERTIES_ORIGIN ["COM"]
properties('MP2/aug-cc-pvtz', properties = ['dipole'])
--------------------------------------------------------------------------

    Molecular point group: c1
  Charge       = 0
  Multiplicity = 1
  Basis Set: AUG-CC-PVTZ
    Blend: AUG-CC-PVTZ
  Basis Set: (AUG-CC-PVTZ AUX)
    Blend: AUG-CC-PVTZ-JKFIT

    Orbital Energies [Eh]
    ---------------------

    Doubly Occupied:

       1A    -20.512960     2A    -15.583648     3A    -11.350500
       4A    -11.280657     5A    -11.254250     6A    -11.253410
       7A    -11.244330     8A    -11.241947     9A    -11.238467
      10A    -11.237836    11A    -11.235206    12A    -11.232632
      13A    -11.215865    14A     -1.367815    15A     -1.235283
      16A     -1.163653    17A     -1.084559    18A     -1.044680
      19A     -1.028084    20A     -0.942050    21A     -0.932287
      22A     -0.873646    23A     -0.828760    24A     -0.784973
      25A     -0.768793    26A     -0.693560    27A     -0.680753
      28A     -0.659996    29A     -0.658774    30A     -0.619347
      31A     -0.615069    32A     -0.590812    33A     -0.583445
      34A     -0.569957    35A     -0.564985    36A     -0.553019
      37A     -0.531498    38A     -0.528380    39A     -0.513357
      40A     -0.504897    41A     -0.488756    42A     -0.479044
      43A     -0.473270    44A     -0.417660    45A     -0.385859
      46A     -0.336178    47A     -0.327455

  @DF-RHF Final Energy:  -553.64089736152107

   => Energetics <=

    Nuclear Repulsion Energy =            795.7719705401606234
    One-Electron Energy =               -2331.4010110680233083
    Two-Electron Energy =                 981.9881431663417288
    Total Energy =                       -553.6408973615210698
  Basis Set: (AUG-CC-PVTZ AUX)
    Blend: AUG-CC-PVTZ-RI
    Molecular point group: c1

    Geometry (in Angstrom), charge = 0, multiplicity = 1:

       Center              X                  Y                   Z               Mass
    ------------   -----------------  -----------------  -----------------  -----------------
         O            0.326352220665     2.352274331116    -1.028056392632    15.994914619570
         N            1.801578220665     1.230548331116     0.300393607368    14.003074004430
         C            1.541997220665    -1.350203668884    -0.791255392632    12.000000000000
         C            2.521496220665    -1.145499668884     0.374994607368    12.000000000000
         C            0.106930220665    -1.102582668884    -0.395380392632    12.000000000000
         C           -0.346097779335     0.210688331116    -0.152544392632    12.000000000000
         C            2.163288220665     0.116630331116     1.163529607368    12.000000000000
         C           -1.684056779335     0.469522331116     0.201879607368    12.000000000000
         C            0.600735220665     1.361236331116    -0.343259392632    12.000000000000
         C           -0.792464779335    -2.164219668884    -0.254267392632    12.000000000000
         C           -2.550338779335    -0.620688668884     0.342109607368    12.000000000000
         C           -2.116175779335    -1.926561668884     0.111867607368    12.000000000000
         C           -2.187328779335     1.871817331116     0.433336607368    12.000000000000
         H            1.643819220665    -2.366934668884    -1.187113392632     1.007825032230
         H            1.815535220665    -0.669162668884    -1.604847392632     1.007825032230
         H            2.491761220665    -2.004850668884     1.056634607368     1.007825032230
         H            3.542915220665    -1.076592668884    -0.018220392632     1.007825032230
         H            1.281835620665    -0.102643168884     1.859422907368     1.007825032230
         H            2.997783220665     0.437365331116     1.794202607368     1.007825032230
         H            2.456346220665     1.988148331116     0.137437607368     1.007825032230
         H           -0.453804779335    -3.181001668884    -0.447202392632     1.007825032230
         H           -3.585619779335    -0.440369668884     0.626174607368     1.007825032230
         H           -2.809744779335    -2.757469668884     0.220621607368     1.007825032230
         H           -1.540217779335     2.422876331116     1.121990607368     1.007825032230
         H           -2.207657779335     2.436641331116    -0.501018392632     1.007825032230
         H           -3.195446779335     1.843599331116     0.856398607368     1.007825032230

  Basis Set: AUG-CC-PVTZ
    Blend: AUG-CC-PVTZ
  Basis Set: (AUG-CC-PVTZ AUX)
    Blend: AUG-CC-PVTZ-JKFIT
	 Reference Energy          =    -553.6408973615210698 [Eh]
	 Singles Energy            =      -0.0000000000000000 [Eh]
	 Same-Spin Energy          =      -0.6043127891260383 [Eh]
	 Opposite-Spin Energy      =      -1.9035535744575707 [Eh]
	 Correlation Energy        =      -2.5078663635836089 [Eh]
	 Total Energy              =    -556.1487637251046863 [Eh]

	 ================> DF-SCS-MP2 Energies <==================
	-----------------------------------------------------------
	 SCS Same-Spin Scale       =       0.3333333333333333 [-]
	 SCS Opposite-Spin Scale   =       1.2000000000000000 [-]
	 SCS Same-Spin Energy      =      -0.2014375963753461 [Eh]
	 SCS Opposite-Spin Energy  =      -2.2842642893490845 [Eh]
	 SCS Correlation Energy    =      -2.4857018857244304 [Eh]
	 SCS Total Energy          =    -556.1265992472455082 [Eh]
	-----------------------------------------------------------

  Dipole Moment: [D]
     X:     1.7368      Y:    -2.5327      Z:     2.1807     Total:     3.7665

*** Psi4 exiting successfully. Buy a developer a beer!
