                               Psi4 1.4a3.dev225

  ==> Input File <==

--------------------------------------------------------------------------
#psi4
#
memory 32 gb

molecule  {
0 1
  O        0.3130990     2.3704440    -1.0483590
  N        1.7883250     1.2487180     0.2800910
  C        1.5287440    -1.3320340    -0.8115580
  C        2.5082430    -1.1273300     0.3546920
  C        0.0936770    -1.0844130    -0.4156830
  C       -0.3593510     0.2288580    -0.1728470
  C        2.1500350     0.1348000     1.1432270
  C       -1.6973100     0.4876920     0.1815770
  C        0.5874820     1.3794060    -0.3635620
  C       -0.8057180    -2.1460500    -0.2745700
  C       -2.5635920    -0.6025190     0.3218070
  C       -2.1294290    -1.9083920     0.0915650
  C       -2.2673404     2.0759996     0.4437365
  H        1.6305660    -2.3487650    -1.2074160
  H        1.8022820    -0.6509930    -1.6251500
  H        2.4785080    -1.9866810     1.0363320
  H        3.5296620    -1.0584230    -0.0385230
  H        1.3070990    -0.0748920     1.8087120
  H        2.9845300     0.4555350     1.7739000
  H        2.4430930     2.0063180     0.1171350
  H       -0.4670580    -3.1628320    -0.4675050
  H       -3.5988730    -0.4222000     0.6058720
  H       -2.8229980    -2.7393000     0.2003190
  H       -1.5534710     2.4410460     1.1016880
  H       -2.2209110     2.4548110    -0.5213210
  H       -3.2087000     1.8617690     0.8360960
units angstrom
no_reorient  #important for SAPT in psi4, default
symmetry c1  #important for SAPT in psi4, default
}

set PROPERTIES_ORIGIN ["COM"]
properties('MP2/aug-cc-pvtz', properties = ['dipole'])
--------------------------------------------------------------------------

    Molecular point group: c1
  Charge       = 0
  Multiplicity = 1
  Basis Set: AUG-CC-PVTZ
    Blend: AUG-CC-PVTZ
  Basis Set: (AUG-CC-PVTZ AUX)
    Blend: AUG-CC-PVTZ-JKFIT

    Orbital Energies [Eh]
    ---------------------

    Doubly Occupied:

       1A    -20.512688     2A    -15.582874     3A    -11.349873
       4A    -11.274664     5A    -11.257564     6A    -11.253378
       7A    -11.243740     8A    -11.241629     9A    -11.237785
      10A    -11.237026    11A    -11.234636    12A    -11.232557
      13A    -11.218123    14A     -1.367366    15A     -1.235138
      16A     -1.159544    17A     -1.080441    18A     -1.035332
      19A     -1.024547    20A     -0.944783    21A     -0.934558
      22A     -0.873807    23A     -0.830877    24A     -0.783051
      25A     -0.769532    26A     -0.693411    27A     -0.681901
      28A     -0.658806    29A     -0.655234    30A     -0.617792
      31A     -0.614169    32A     -0.593545    33A     -0.591017
      34A     -0.577654    35A     -0.568450    36A     -0.552673
      37A     -0.546103    38A     -0.531652    39A     -0.513713
      40A     -0.498252    41A     -0.483246    42A     -0.481132
      43A     -0.447706    44A     -0.416891    45A     -0.386189
      46A     -0.336284    47A     -0.328991

  @DF-RHF Final Energy:  -553.61661055559864

   => Energetics <=

    Nuclear Repulsion Energy =            792.2726607262799234
    One-Electron Energy =               -2324.3978951117383076
    Two-Electron Energy =                 978.5086238298598573
    Total Energy =                       -553.6166105555986405
  Basis Set: (AUG-CC-PVTZ AUX)
    Blend: AUG-CC-PVTZ-RI
    Molecular point group: c1

    Geometry (in Angstrom), charge = 0, multiplicity = 1:

       Center              X                  Y                   Z               Mass
    ------------   -----------------  -----------------  -----------------  -----------------
         O            0.330705641860     2.339471296640    -1.029985486326    15.994914619570
         N            1.805931641860     1.217745296640     0.298464513674    14.003074004430
         C            1.546350641860    -1.363006703360    -0.793184486326    12.000000000000
         C            2.525849641860    -1.158302703360     0.373065513674    12.000000000000
         C            0.111283641860    -1.115385703360    -0.397309486326    12.000000000000
         C           -0.341744358140     0.197885296640    -0.154473486326    12.000000000000
         C            2.167641641860     0.103827296640     1.161600513674    12.000000000000
         C           -1.679703358140     0.456719296640     0.199950513674    12.000000000000
         C            0.605088641860     1.348433296640    -0.345188486326    12.000000000000
         C           -0.788111358140    -2.177022703360    -0.256196486326    12.000000000000
         C           -2.545985358140    -0.633491703360     0.340180513674    12.000000000000
         C           -2.111822358140    -1.939364703360     0.109938513674    12.000000000000
         C           -2.249733758140     2.045026896640     0.462110013674    12.000000000000
         H            1.648172641860    -2.379737703360    -1.189042486326     1.007825032230
         H            1.819888641860    -0.681965703360    -1.606776486326     1.007825032230
         H            2.496114641860    -2.017653703360     1.054705513674     1.007825032230
         H            3.547268641860    -1.089395703360    -0.020149486326     1.007825032230
         H            1.324705641860    -0.105864703360     1.827085513674     1.007825032230
         H            3.002136641860     0.424562296640     1.792273513674     1.007825032230
         H            2.460699641860     1.975345296640     0.135508513674     1.007825032230
         H           -0.449451358140    -3.193804703360    -0.449131486326     1.007825032230
         H           -3.581266358140    -0.453172703360     0.624245513674     1.007825032230
         H           -2.805391358140    -2.770272703360     0.218692513674     1.007825032230
         H           -1.535864358140     2.410073296640     1.120061513674     1.007825032230
         H           -2.203304358140     2.423838296640    -0.502947486326     1.007825032230
         H           -3.191093358140     1.830796296640     0.854469513674     1.007825032230

  Basis Set: AUG-CC-PVTZ
    Blend: AUG-CC-PVTZ
  Basis Set: (AUG-CC-PVTZ AUX)
    Blend: AUG-CC-PVTZ-JKFIT
	 Reference Energy          =    -553.6166105555986405 [Eh]
	 Singles Energy            =      -0.0000000000000000 [Eh]
	 Same-Spin Energy          =      -0.6037777730053550 [Eh]
	 Opposite-Spin Energy      =      -1.9038373421800150 [Eh]
	 Correlation Energy        =      -2.5076151151853701 [Eh]
	 Total Energy              =    -556.1242256707839715 [Eh]

	 ================> DF-SCS-MP2 Energies <==================
	-----------------------------------------------------------
	 SCS Same-Spin Scale       =       0.3333333333333333 [-]
	 SCS Opposite-Spin Scale   =       1.2000000000000000 [-]
	 SCS Same-Spin Energy      =      -0.2012592576684517 [Eh]
	 SCS Opposite-Spin Energy  =      -2.2846048106160177 [Eh]
	 SCS Correlation Energy    =      -2.4858640682844695 [Eh]
	 SCS Total Energy          =    -556.1024746238831540 [Eh]
	-----------------------------------------------------------

  Dipole Moment: [D]
     X:     1.7407      Y:    -2.6174      Z:     2.2135     Total:     3.8445

*** Psi4 exiting successfully. Buy a developer a beer!
