                               Psi4 1.4a3.dev225

  ==> Input File <==

--------------------------------------------------------------------------
#psi4
#
memory 32 gb

molecule  {
0 1
  O        0.3130990     2.3704440    -1.0483590
  N        1.7883250     1.2487180     0.2800910
  C        1.5287440    -1.3320340    -0.8115580
  C        2.5082430    -1.1273300     0.3546920
  C        0.0936770    -1.0844130    -0.4156830
  C       -0.3593510     0.2288580    -0.1728470
  C        2.1500350     0.1348000     1.1432270
  C       -1.6973100     0.4876920     0.1815770
  C        0.5874820     1.3794060    -0.3635620
  C       -0.8057180    -2.1460500    -0.2745700
  C       -2.5635920    -0.6025190     0.3218070
  C       -2.1232057    -1.9271104     0.0882647
  C       -2.2005820     1.8899870     0.4130340
  H        1.6305660    -2.3487650    -1.2074160
  H        1.8022820    -0.6509930    -1.6251500
  H        2.4785080    -1.9866810     1.0363320
  H        3.5296620    -1.0584230    -0.0385230
  H        1.3070990    -0.0748920     1.8087120
  H        2.9845300     0.4555350     1.7739000
  H        2.4430930     2.0063180     0.1171350
  H       -0.4670580    -3.1628320    -0.4675050
  H       -3.5988730    -0.4222000     0.6058720
  H       -2.8229980    -2.7393000     0.2003190
  H       -1.5534710     2.4410460     1.1016880
  H       -2.2209110     2.4548110    -0.5213210
  H       -3.2087000     1.8617690     0.8360960
units angstrom
no_reorient  #important for SAPT in psi4, default
symmetry c1  #important for SAPT in psi4, default
}

set PROPERTIES_ORIGIN ["COM"]
properties('MP2/aug-cc-pvtz', properties = ['dipole'])
--------------------------------------------------------------------------

    Molecular point group: c1
  Charge       = 0
  Multiplicity = 1
  Basis Set: AUG-CC-PVTZ
    Blend: AUG-CC-PVTZ
  Basis Set: (AUG-CC-PVTZ AUX)
    Blend: AUG-CC-PVTZ-JKFIT

    Orbital Energies [Eh]
    ---------------------

    Doubly Occupied:

       1A    -20.512801     2A    -15.583157     3A    -11.350421
       4A    -11.274959     5A    -11.254618     6A    -11.253031
       7A    -11.244694     8A    -11.242352     9A    -11.238436
      10A    -11.237519    11A    -11.234706    12A    -11.234483
      13A    -11.215705    14A     -1.367690    15A     -1.235439
      16A     -1.163028    17A     -1.084153    18A     -1.045608
      19A     -1.027726    20A     -0.943119    21A     -0.932153
      22A     -0.874902    23A     -0.829628    24A     -0.785538
      25A     -0.769699    26A     -0.693773    27A     -0.682848
      28A     -0.660907    29A     -0.658368    30A     -0.619700
      31A     -0.616185    32A     -0.591016    33A     -0.583504
      34A     -0.570383    35A     -0.565932    36A     -0.553014
      37A     -0.531567    38A     -0.530787    39A     -0.513515
      40A     -0.505308    41A     -0.488808    42A     -0.478727
      43A     -0.474036    44A     -0.417558    45A     -0.386090
      46A     -0.336049    47A     -0.327282

  @DF-RHF Final Energy:  -553.64255388097524

   => Energetics <=

    Nuclear Repulsion Energy =            795.7684261187565653
    One-Electron Energy =               -2331.3801128937916474
    Two-Electron Energy =                 981.9691328940599533
    Total Energy =                       -553.6425538809752425
  Basis Set: (AUG-CC-PVTZ AUX)
    Blend: AUG-CC-PVTZ-RI
    Molecular point group: c1

    Geometry (in Angstrom), charge = 0, multiplicity = 1:

       Center              X                  Y                   Z               Mass
    ------------   -----------------  -----------------  -----------------  -----------------
         O            0.325704032321     2.353501999166    -1.027655193542    15.994914619570
         N            1.800930032321     1.231775999166     0.300794806458    14.003074004430
         C            1.541349032321    -1.348976000834    -0.790854193542    12.000000000000
         C            2.520848032321    -1.144272000834     0.375395806458    12.000000000000
         C            0.106282032321    -1.101355000834    -0.394979193542    12.000000000000
         C           -0.346745967679     0.211915999166    -0.152143193542    12.000000000000
         C            2.162640032321     0.117857999166     1.163930806458    12.000000000000
         C           -1.684704967679     0.470749999166     0.202280806458    12.000000000000
         C            0.600087032321     1.362463999166    -0.342858193542    12.000000000000
         C           -0.793112967679    -2.162992000834    -0.253866193542    12.000000000000
         C           -2.550986967679    -0.619461000834     0.342510806458    12.000000000000
         C           -2.110600667679    -1.944052400834     0.108968506458    12.000000000000
         C           -2.187976967679     1.873044999166     0.433737806458    12.000000000000
         H            1.643171032321    -2.365707000834    -1.186712193542     1.007825032230
         H            1.814887032321    -0.667935000834    -1.604446193542     1.007825032230
         H            2.491113032321    -2.003623000834     1.057035806458     1.007825032230
         H            3.542267032321    -1.075365000834    -0.017819193542     1.007825032230
         H            1.319704032321    -0.091834000834     1.829415806458     1.007825032230
         H            2.997135032321     0.438592999166     1.794603806458     1.007825032230
         H            2.455698032321     1.989375999166     0.137838806458     1.007825032230
         H           -0.454452967679    -3.179774000834    -0.446801193542     1.007825032230
         H           -3.586267967679    -0.439142000834     0.626575806458     1.007825032230
         H           -2.810392967679    -2.756242000834     0.221022806458     1.007825032230
         H           -1.540865967679     2.424103999166     1.122391806458     1.007825032230
         H           -2.208305967679     2.437868999166    -0.500617193542     1.007825032230
         H           -3.196094967679     1.844826999166     0.856799806458     1.007825032230

  Basis Set: AUG-CC-PVTZ
    Blend: AUG-CC-PVTZ
  Basis Set: (AUG-CC-PVTZ AUX)
    Blend: AUG-CC-PVTZ-JKFIT
	 Reference Energy          =    -553.6425538809752425 [Eh]
	 Singles Energy            =      -0.0000000000000000 [Eh]
	 Same-Spin Energy          =      -0.6042015943510961 [Eh]
	 Opposite-Spin Energy      =      -1.9032215450214249 [Eh]
	 Correlation Energy        =      -2.5074231393725208 [Eh]
	 Total Energy              =    -556.1499770203478192 [Eh]

	 ================> DF-SCS-MP2 Energies <==================
	-----------------------------------------------------------
	 SCS Same-Spin Scale       =       0.3333333333333333 [-]
	 SCS Opposite-Spin Scale   =       1.2000000000000000 [-]
	 SCS Same-Spin Energy      =      -0.2014005314503653 [Eh]
	 SCS Opposite-Spin Energy  =      -2.2838658540257097 [Eh]
	 SCS Correlation Energy    =      -2.4852663854760753 [Eh]
	 SCS Total Energy          =    -556.1278202664512946 [Eh]
	-----------------------------------------------------------

  Dipole Moment: [D]
     X:     1.7261      Y:    -2.5406      Z:     2.2058     Total:     3.7815

*** Psi4 exiting successfully. Buy a developer a beer!
