                               Psi4 1.4a3.dev225

  ==> Input File <==

--------------------------------------------------------------------------
#psi4
#
memory 32 gb

molecule  {
0 1
  O        0.3130990     2.3704440    -1.0483590
  N        1.7883250     1.2487180     0.2800910
  C        1.5287440    -1.3320340    -0.8115580
  C        2.3807625    -1.1539719     0.2029062
  C        0.0936770    -1.0844130    -0.4156830
  C       -0.3593510     0.2288580    -0.1728470
  C        2.1500350     0.1348000     1.1432270
  C       -1.6973100     0.4876920     0.1815770
  C        0.5874820     1.3794060    -0.3635620
  C       -0.8057180    -2.1460500    -0.2745700
  C       -2.5635920    -0.6025190     0.3218070
  C       -2.1294290    -1.9083920     0.0915650
  C       -2.2005820     1.8899870     0.4130340
  H        1.6305660    -2.3487650    -1.2074160
  H        1.8022820    -0.6509930    -1.6251500
  H        2.4785080    -1.9866810     1.0363320
  H        3.5296620    -1.0584230    -0.0385230
  H        1.3070990    -0.0748920     1.8087120
  H        2.9845300     0.4555350     1.7739000
  H        2.4430930     2.0063180     0.1171350
  H       -0.4670580    -3.1628320    -0.4675050
  H       -3.5988730    -0.4222000     0.6058720
  H       -2.8229980    -2.7393000     0.2003190
  H       -1.5534710     2.4410460     1.1016880
  H       -2.2209110     2.4548110    -0.5213210
  H       -3.2087000     1.8617690     0.8360960
units angstrom
no_reorient  #important for SAPT in psi4, default
symmetry c1  #important for SAPT in psi4, default
}

set PROPERTIES_ORIGIN ["COM"]
properties('MP2/aug-cc-pvtz', properties = ['dipole'])
--------------------------------------------------------------------------

    Molecular point group: c1
  Charge       = 0
  Multiplicity = 1
  Basis Set: AUG-CC-PVTZ
    Blend: AUG-CC-PVTZ
  Basis Set: (AUG-CC-PVTZ AUX)
    Blend: AUG-CC-PVTZ-JKFIT

    Orbital Energies [Eh]
    ---------------------

    Doubly Occupied:

       1A    -20.512456     2A    -15.581789     3A    -11.350324
       4A    -11.279030     5A    -11.256001     6A    -11.254402
       7A    -11.246295     8A    -11.245313     9A    -11.243726
      10A    -11.236911    11A    -11.233988    12A    -11.229645
      13A    -11.216502    14A     -1.367533    15A     -1.235955
      16A     -1.167858    17A     -1.111270    18A     -1.047199
      19A     -1.025976    20A     -0.946264    21A     -0.938207
      22A     -0.872300    23A     -0.824576    24A     -0.783612
      25A     -0.768820    26A     -0.695693    27A     -0.684232
      28A     -0.664809    29A     -0.660251    30A     -0.625662
      31A     -0.619926    32A     -0.596557    33A     -0.587818
      34A     -0.570757    35A     -0.568611    36A     -0.554687
      37A     -0.548928    38A     -0.531952    39A     -0.513492
      40A     -0.501946    41A     -0.489728    42A     -0.467542
      43A     -0.448973    44A     -0.416817    45A     -0.376030
      46A     -0.338234    47A     -0.329880

  @DF-RHF Final Energy:  -553.59460020577717

   => Energetics <=

    Nuclear Repulsion Energy =            798.6799912463923192
    One-Electron Energy =               -2337.0122266021494397
    Two-Electron Energy =                 984.7376351499799512
    Total Energy =                       -553.5946002057771693
  Basis Set: (AUG-CC-PVTZ AUX)
    Blend: AUG-CC-PVTZ-RI
    Molecular point group: c1

    Geometry (in Angstrom), charge = 0, multiplicity = 1:

       Center              X                  Y                   Z               Mass
    ------------   -----------------  -----------------  -----------------  -----------------
         O            0.334867071842     2.354045015472    -1.017479128951    15.994914619570
         N            1.810093071842     1.232319015472     0.310970871049    14.003074004430
         C            1.550512071842    -1.348432984528    -0.780678128951    12.000000000000
         C            2.402530571842    -1.170370884528     0.233786071049    12.000000000000
         C            0.115445071842    -1.100811984528    -0.384803128951    12.000000000000
         C           -0.337582928158     0.212459015472    -0.141967128951    12.000000000000
         C            2.171803071842     0.118401015472     1.174106871049    12.000000000000
         C           -1.675541928158     0.471293015472     0.212456871049    12.000000000000
         C            0.609250071842     1.363007015472    -0.332682128951    12.000000000000
         C           -0.783949928158    -2.162448984528    -0.243690128951    12.000000000000
         C           -2.541823928158    -0.618917984528     0.352686871049    12.000000000000
         C           -2.107660928158    -1.924790984528     0.122444871049    12.000000000000
         C           -2.178813928158     1.873588015472     0.443913871049    12.000000000000
         H            1.652334071842    -2.365163984528    -1.176536128951     1.007825032230
         H            1.824050071842    -0.667391984528    -1.594270128951     1.007825032230
         H            2.500276071842    -2.003079984528     1.067211871049     1.007825032230
         H            3.551430071842    -1.074821984528    -0.007643128951     1.007825032230
         H            1.328867071842    -0.091290984528     1.839591871049     1.007825032230
         H            3.006298071842     0.439136015472     1.804779871049     1.007825032230
         H            2.464861071842     1.989919015472     0.148014871049     1.007825032230
         H           -0.445289928158    -3.179230984528    -0.436625128951     1.007825032230
         H           -3.577104928158    -0.438598984528     0.636751871049     1.007825032230
         H           -2.801229928158    -2.755698984528     0.231198871049     1.007825032230
         H           -1.531702928158     2.424647015472     1.132567871049     1.007825032230
         H           -2.199142928158     2.438412015472    -0.490441128951     1.007825032230
         H           -3.186931928158     1.845370015472     0.866975871049     1.007825032230

  Basis Set: AUG-CC-PVTZ
    Blend: AUG-CC-PVTZ
  Basis Set: (AUG-CC-PVTZ AUX)
    Blend: AUG-CC-PVTZ-JKFIT
	 Reference Energy          =    -553.5946002057771693 [Eh]
	 Singles Energy            =      -0.0000000000000000 [Eh]
	 Same-Spin Energy          =      -0.6068066313765765 [Eh]
	 Opposite-Spin Energy      =      -1.9070442677223580 [Eh]
	 Correlation Energy        =      -2.5138508990989346 [Eh]
	 Total Energy              =    -556.1084511048760533 [Eh]

	 ================> DF-SCS-MP2 Energies <==================
	-----------------------------------------------------------
	 SCS Same-Spin Scale       =       0.3333333333333333 [-]
	 SCS Opposite-Spin Scale   =       1.2000000000000000 [-]
	 SCS Same-Spin Energy      =      -0.2022688771255255 [Eh]
	 SCS Opposite-Spin Energy  =      -2.2884531212668295 [Eh]
	 SCS Correlation Energy    =      -2.4907219983923552 [Eh]
	 SCS Total Energy          =    -556.0853222041695290 [Eh]
	-----------------------------------------------------------

  Dipole Moment: [D]
     X:     1.5830      Y:    -2.4784      Z:     2.1622     Total:     3.6501

*** Psi4 exiting successfully. Buy a developer a beer!
