                               Psi4 1.4a3.dev225

  ==> Input File <==

--------------------------------------------------------------------------
#psi4
#
memory 32 gb

molecule  {
0 1
  O        0.3130990     2.3704440    -1.0483590
  N        1.7883250     1.2487180     0.2800910
  C        1.5287440    -1.3320340    -0.8115580
  C        2.5082430    -1.1273300     0.3546920
  C        0.0936770    -1.0844130    -0.4156830
  C       -0.3593510     0.2288580    -0.1728470
  C        2.1500350     0.1348000     1.1432270
  C       -1.6973100     0.4876920     0.1815770
  C        0.5874820     1.3794060    -0.3635620
  C       -0.8057180    -2.1460500    -0.2745700
  C       -2.5635920    -0.6025190     0.3218070
  C       -2.1138708    -1.9551880     0.0833143
  C       -2.2005820     1.8899870     0.4130340
  H        1.6305660    -2.3487650    -1.2074160
  H        1.8022820    -0.6509930    -1.6251500
  H        2.4785080    -1.9866810     1.0363320
  H        3.5296620    -1.0584230    -0.0385230
  H        1.3070990    -0.0748920     1.8087120
  H        2.9845300     0.4555350     1.7739000
  H        2.4430930     2.0063180     0.1171350
  H       -0.4670580    -3.1628320    -0.4675050
  H       -3.5988730    -0.4222000     0.6058720
  H       -2.8229980    -2.7393000     0.2003190
  H       -1.5534710     2.4410460     1.1016880
  H       -2.2209110     2.4548110    -0.5213210
  H       -3.2087000     1.8617690     0.8360960
units angstrom
no_reorient  #important for SAPT in psi4, default
symmetry c1  #important for SAPT in psi4, default
}

set PROPERTIES_ORIGIN ["COM"]
properties('MP2/aug-cc-pvtz', properties = ['dipole'])
--------------------------------------------------------------------------

    Molecular point group: c1
  Charge       = 0
  Multiplicity = 1
  Basis Set: AUG-CC-PVTZ
    Blend: AUG-CC-PVTZ
  Basis Set: (AUG-CC-PVTZ AUX)
    Blend: AUG-CC-PVTZ-JKFIT

    Orbital Energies [Eh]
    ---------------------

    Doubly Occupied:

       1A    -20.512954     2A    -15.583307     3A    -11.350576
       4A    -11.275031     5A    -11.255078     6A    -11.252366
       7A    -11.245043     8A    -11.242908     9A    -11.238690
      10A    -11.237678    11A    -11.236966    12A    -11.233857
      13A    -11.215424    14A     -1.367838    15A     -1.235553
      16A     -1.162185    17A     -1.083542    18A     -1.047092
      19A     -1.026334    20A     -0.943083    21A     -0.930465
      22A     -0.876768    23A     -0.829014    24A     -0.786408
      25A     -0.769522    26A     -0.693547    27A     -0.683017
      28A     -0.662358    29A     -0.657553    30A     -0.620629
      31A     -0.617140    32A     -0.590974    33A     -0.583076
      34A     -0.570782    35A     -0.565413    36A     -0.552876
      37A     -0.531660    38A     -0.531411    39A     -0.513295
      40A     -0.504377    41A     -0.488730    42A     -0.477970
      43A     -0.473751    44A     -0.417676    45A     -0.386162
      46A     -0.337133    47A     -0.325513

  @DF-RHF Final Energy:  -553.63981576451488

   => Energetics <=

    Nuclear Repulsion Energy =            795.4663267170316203
    One-Electron Energy =               -2330.7668355275895919
    Two-Electron Energy =                 981.6606930460429794
    Total Energy =                       -553.6398157645148785
  Basis Set: (AUG-CC-PVTZ AUX)
    Blend: AUG-CC-PVTZ-RI
    Molecular point group: c1

    Geometry (in Angstrom), charge = 0, multiplicity = 1:

       Center              X                  Y                   Z               Mass
    ------------   -----------------  -----------------  -----------------  -----------------
         O            0.325064289414     2.355426223896    -1.027315930852    15.994914619570
         N            1.800290289414     1.233700223896     0.301134069148    14.003074004430
         C            1.540709289414    -1.347051776104    -0.790514930852    12.000000000000
         C            2.520208289414    -1.142347776104     0.375735069148    12.000000000000
         C            0.105642289414    -1.099430776104    -0.394639930852    12.000000000000
         C           -0.347385710586     0.213840223896    -0.151803930852    12.000000000000
         C            2.162000289414     0.119782223896     1.164270069148    12.000000000000
         C           -1.685344710586     0.472674223896     0.202620069148    12.000000000000
         C            0.599447289414     1.364388223896    -0.342518930852    12.000000000000
         C           -0.793752710586    -2.161067776104    -0.253526930852    12.000000000000
         C           -2.551626710586    -0.617536776104     0.342850069148    12.000000000000
         C           -2.101905510586    -1.970205776104     0.104357369148    12.000000000000
         C           -2.188616710586     1.874969223896     0.434077069148    12.000000000000
         H            1.642531289414    -2.363782776104    -1.186372930852     1.007825032230
         H            1.814247289414    -0.666010776104    -1.604106930852     1.007825032230
         H            2.490473289414    -2.001698776104     1.057375069148     1.007825032230
         H            3.541627289414    -1.073440776104    -0.017479930852     1.007825032230
         H            1.319064289414    -0.089909776104     1.829755069148     1.007825032230
         H            2.996495289414     0.440517223896     1.794943069148     1.007825032230
         H            2.455058289414     1.991300223896     0.138178069148     1.007825032230
         H           -0.455092710586    -3.177849776104    -0.446461930852     1.007825032230
         H           -3.586907710586    -0.437217776104     0.626915069148     1.007825032230
         H           -2.811032710586    -2.754317776104     0.221362069148     1.007825032230
         H           -1.541505710586     2.426028223896     1.122731069148     1.007825032230
         H           -2.208945710586     2.439793223896    -0.500277930852     1.007825032230
         H           -3.196734710586     1.846751223896     0.857139069148     1.007825032230

  Basis Set: AUG-CC-PVTZ
    Blend: AUG-CC-PVTZ
  Basis Set: (AUG-CC-PVTZ AUX)
    Blend: AUG-CC-PVTZ-JKFIT
	 Reference Energy          =    -553.6398157645148785 [Eh]
	 Singles Energy            =      -0.0000000000000000 [Eh]
	 Same-Spin Energy          =      -0.6042085256714894 [Eh]
	 Opposite-Spin Energy      =      -1.9035216383318825 [Eh]
	 Correlation Energy        =      -2.5077301640033718 [Eh]
	 Total Energy              =    -556.1475459285182978 [Eh]

	 ================> DF-SCS-MP2 Energies <==================
	-----------------------------------------------------------
	 SCS Same-Spin Scale       =       0.3333333333333333 [-]
	 SCS Opposite-Spin Scale   =       1.2000000000000000 [-]
	 SCS Same-Spin Energy      =      -0.2014028418904965 [Eh]
	 SCS Opposite-Spin Energy  =      -2.2842259659982589 [Eh]
	 SCS Correlation Energy    =      -2.4856288078887552 [Eh]
	 SCS Total Energy          =    -556.1254445724035804 [Eh]
	-----------------------------------------------------------

  Dipole Moment: [D]
     X:     1.7242      Y:    -2.5422      Z:     2.2070     Total:     3.7824

*** Psi4 exiting successfully. Buy a developer a beer!
