                               Psi4 1.4a3.dev225

  ==> Input File <==

--------------------------------------------------------------------------
#psi4
#
memory 32 gb

molecule  {
0 1
  O        0.3130990     2.3704440    -1.0483590
  N        1.7883250     1.2487180     0.2800910
  C        1.5287440    -1.3320340    -0.8115580
  C        2.5082430    -1.1273300     0.3546920
  C        0.0936770    -1.0844130    -0.4156830
  C       -0.3593510     0.2288580    -0.1728470
  C        2.1500350     0.1348000     1.1432270
  C       -1.6973100     0.4876920     0.1815770
  C        0.5874820     1.3794060    -0.3635620
  C       -0.8057180    -2.1460500    -0.2745700
  C       -2.5635920    -0.6025190     0.3218070
  C       -2.1294290    -1.9083920     0.0915650
  C       -2.2005820     1.8899870     0.4130340
  H        1.6305660    -2.3487650    -1.2074160
  H        1.8022820    -0.6509930    -1.6251500
  H        2.4785080    -1.9866810     1.0363320
  H        3.5296620    -1.0584230    -0.0385230
  H        1.2861665    -0.0842300     1.7781594
  H        2.9845300     0.4555350     1.7739000
  H        2.4430930     2.0063180     0.1171350
  H       -0.4670580    -3.1628320    -0.4675050
  H       -3.5988730    -0.4222000     0.6058720
  H       -2.8229980    -2.7393000     0.2003190
  H       -1.5534710     2.4410460     1.1016880
  H       -2.2209110     2.4548110    -0.5213210
  H       -3.2087000     1.8617690     0.8360960
units angstrom
no_reorient  #important for SAPT in psi4, default
symmetry c1  #important for SAPT in psi4, default
}

set PROPERTIES_ORIGIN ["COM"]
properties('MP2/aug-cc-pvtz', properties = ['dipole'])
--------------------------------------------------------------------------

    Molecular point group: c1
  Charge       = 0
  Multiplicity = 1
  Basis Set: AUG-CC-PVTZ
    Blend: AUG-CC-PVTZ
  Basis Set: (AUG-CC-PVTZ AUX)
    Blend: AUG-CC-PVTZ-JKFIT

    Orbital Energies [Eh]
    ---------------------

    Doubly Occupied:

       1A    -20.512615     2A    -15.582819     3A    -11.350307
       4A    -11.274884     5A    -11.254431     6A    -11.253617
       7A    -11.244537     8A    -11.242087     9A    -11.238267
      10A    -11.237140    11A    -11.235393    12A    -11.232806
      13A    -11.215955    14A     -1.367547    15A     -1.235478
      16A     -1.163821    17A     -1.084721    18A     -1.044855
      19A     -1.028740    20A     -0.943196    21A     -0.933179
      22A     -0.873611    23A     -0.830127    24A     -0.785005
      25A     -0.769915    26A     -0.694464    27A     -0.681776
      28A     -0.660416    29A     -0.658780    30A     -0.619089
      31A     -0.615686    32A     -0.591214    33A     -0.584186
      34A     -0.570268    35A     -0.566250    36A     -0.553198
      37A     -0.531791    38A     -0.530790    39A     -0.513369
      40A     -0.505604    41A     -0.489369    42A     -0.479260
      43A     -0.473886    44A     -0.417458    45A     -0.385433
      46A     -0.336546    47A     -0.327630

  @DF-RHF Final Energy:  -553.64294369446475

   => Energetics <=

    Nuclear Repulsion Energy =            796.0913981271122566
    One-Electron Energy =               -2332.0256517943321342
    Two-Electron Energy =                 982.2913099727550161
    Total Energy =                       -553.6429436944647478
  Basis Set: (AUG-CC-PVTZ AUX)
    Blend: AUG-CC-PVTZ-RI
    Molecular point group: c1

    Geometry (in Angstrom), charge = 0, multiplicity = 1:

       Center              X                  Y                   Z               Mass
    ------------   -----------------  -----------------  -----------------  -----------------
         O            0.326251011498     2.352272929598    -1.027705518724    15.994914619570
         N            1.801477011498     1.230546929598     0.300744481276    14.003074004430
         C            1.541896011498    -1.350205070402    -0.790904518724    12.000000000000
         C            2.521395011498    -1.145501070402     0.375345481276    12.000000000000
         C            0.106829011498    -1.102584070402    -0.395029518724    12.000000000000
         C           -0.346198988502     0.210686929598    -0.152193518724    12.000000000000
         C            2.163187011498     0.116628929598     1.163880481276    12.000000000000
         C           -1.684157988502     0.469520929598     0.202230481276    12.000000000000
         C            0.600634011498     1.361234929598    -0.342908518724    12.000000000000
         C           -0.792565988502    -2.164221070402    -0.253916518724    12.000000000000
         C           -2.550439988502    -0.620690070402     0.342460481276    12.000000000000
         C           -2.116276988502    -1.926563070402     0.112218481276    12.000000000000
         C           -2.187429988502     1.871815929598     0.433687481276    12.000000000000
         H            1.643718011498    -2.366936070402    -1.186762518724     1.007825032230
         H            1.815434011498    -0.669164070402    -1.604496518724     1.007825032230
         H            2.491660011498    -2.004852070402     1.056985481276     1.007825032230
         H            3.542814011498    -1.076594070402    -0.017869518724     1.007825032230
         H            1.299318511498    -0.102401070402     1.798812881276     1.007825032230
         H            2.997682011498     0.437363929598     1.794553481276     1.007825032230
         H            2.456245011498     1.988146929598     0.137788481276     1.007825032230
         H           -0.453905988502    -3.181003070402    -0.446851518724     1.007825032230
         H           -3.585720988502    -0.440371070402     0.626525481276     1.007825032230
         H           -2.809845988502    -2.757471070402     0.220972481276     1.007825032230
         H           -1.540318988502     2.422874929598     1.122341481276     1.007825032230
         H           -2.207758988502     2.436639929598    -0.500667518724     1.007825032230
         H           -3.195547988502     1.843597929598     0.856749481276     1.007825032230

  Basis Set: AUG-CC-PVTZ
    Blend: AUG-CC-PVTZ
  Basis Set: (AUG-CC-PVTZ AUX)
    Blend: AUG-CC-PVTZ-JKFIT
	 Reference Energy          =    -553.6429436944647478 [Eh]
	 Singles Energy            =      -0.0000000000000000 [Eh]
	 Same-Spin Energy          =      -0.6042710955165167 [Eh]
	 Opposite-Spin Energy      =      -1.9032040861313022 [Eh]
	 Correlation Energy        =      -2.5074751816478189 [Eh]
	 Total Energy              =    -556.1504188761125533 [Eh]

	 ================> DF-SCS-MP2 Energies <==================
	-----------------------------------------------------------
	 SCS Same-Spin Scale       =       0.3333333333333333 [-]
	 SCS Opposite-Spin Scale   =       1.2000000000000000 [-]
	 SCS Same-Spin Energy      =      -0.2014236985055056 [Eh]
	 SCS Opposite-Spin Energy  =      -2.2838449033575627 [Eh]
	 SCS Correlation Energy    =      -2.4852686018630683 [Eh]
	 SCS Total Energy          =    -556.1282122963277743 [Eh]
	-----------------------------------------------------------

  Dipole Moment: [D]
     X:     1.7198      Y:    -2.5442      Z:     2.1925     Total:     3.7733

*** Psi4 exiting successfully. Buy a developer a beer!
