                               Psi4 1.4a3.dev225

  ==> Input File <==

--------------------------------------------------------------------------
#psi4
#
memory 32 gb

molecule  {
0 1
  O        0.3130990     2.3704440    -1.0483590
  N        1.7883250     1.2487180     0.2800910
  C        1.5287440    -1.3320340    -0.8115580
  C        2.5082430    -1.1273300     0.3546920
  C        0.0936770    -1.0844130    -0.4156830
  C       -0.3593510     0.2288580    -0.1728470
  C        2.1500350     0.1348000     1.1432270
  C       -1.6973100     0.4876920     0.1815770
  C        0.5874820     1.3794060    -0.3635620
  C       -0.8057180    -2.1460500    -0.2745700
  C       -2.5635920    -0.6025190     0.3218070
  C       -2.1294290    -1.9083920     0.0915650
  C       -2.2005820     1.8899870     0.4130340
  H        1.6305660    -2.3487650    -1.2074160
  H        1.8022820    -0.6509930    -1.6251500
  H        2.4779660    -2.0023444     1.0487563
  H        3.5296620    -1.0584230    -0.0385230
  H        1.3070990    -0.0748920     1.8087120
  H        2.9845300     0.4555350     1.7739000
  H        2.4430930     2.0063180     0.1171350
  H       -0.4670580    -3.1628320    -0.4675050
  H       -3.5988730    -0.4222000     0.6058720
  H       -2.8229980    -2.7393000     0.2003190
  H       -1.5534710     2.4410460     1.1016880
  H       -2.2209110     2.4548110    -0.5213210
  H       -3.2087000     1.8617690     0.8360960
units angstrom
no_reorient  #important for SAPT in psi4, default
symmetry c1  #important for SAPT in psi4, default
}

set PROPERTIES_ORIGIN ["COM"]
properties('MP2/aug-cc-pvtz', properties = ['dipole'])
--------------------------------------------------------------------------

    Molecular point group: c1
  Charge       = 0
  Multiplicity = 1
  Basis Set: AUG-CC-PVTZ
    Blend: AUG-CC-PVTZ
  Basis Set: (AUG-CC-PVTZ AUX)
    Blend: AUG-CC-PVTZ-JKFIT

    Orbital Energies [Eh]
    ---------------------

    Doubly Occupied:

       1A    -20.512817     2A    -15.583217     3A    -11.350427
       4A    -11.275083     5A    -11.254362     6A    -11.253522
       7A    -11.244427     8A    -11.242063     9A    -11.240026
      10A    -11.238301    11A    -11.235312    12A    -11.232733
      13A    -11.215935    14A     -1.367706    15A     -1.235494
      16A     -1.163738    17A     -1.084336    18A     -1.044723
      19A     -1.028382    20A     -0.943220    21A     -0.933295
      22A     -0.873299    23A     -0.829300    24A     -0.784628
      25A     -0.769861    26A     -0.693980    27A     -0.682671
      28A     -0.659705    29A     -0.658906    30A     -0.619391
      31A     -0.615015    32A     -0.591088    33A     -0.583579
      34A     -0.570119    35A     -0.566151    36A     -0.553173
      37A     -0.530718    38A     -0.530538    39A     -0.513743
      40A     -0.504956    41A     -0.488505    42A     -0.479057
      43A     -0.473848    44A     -0.417543    45A     -0.386193
      46A     -0.336495    47A     -0.327560

  @DF-RHF Final Energy:  -553.64267275929740

   => Energetics <=

    Nuclear Repulsion Energy =            795.8742686115681408
    One-Electron Energy =               -2331.5955996859529478
    Two-Electron Energy =                 982.0786583150874094
    Total Energy =                       -553.6426727592973975
  Basis Set: (AUG-CC-PVTZ AUX)
    Blend: AUG-CC-PVTZ-RI
    Molecular point group: c1

    Geometry (in Angstrom), charge = 0, multiplicity = 1:

       Center              X                  Y                   Z               Mass
    ------------   -----------------  -----------------  -----------------  -----------------
         O            0.326133649477     2.352309336833    -1.027952881753    15.994914619570
         N            1.801359649477     1.230583336833     0.300497118247    14.003074004430
         C            1.541778649477    -1.350168663167    -0.791151881753    12.000000000000
         C            2.521277649477    -1.145464663167     0.375098118247    12.000000000000
         C            0.106711649477    -1.102547663167    -0.395276881753    12.000000000000
         C           -0.346316350523     0.210723336833    -0.152440881753    12.000000000000
         C            2.163069649477     0.116665336833     1.163633118247    12.000000000000
         C           -1.684275350523     0.469557336833     0.201983118247    12.000000000000
         C            0.600516649477     1.361271336833    -0.343155881753    12.000000000000
         C           -0.792683350523    -2.164184663167    -0.254163881753    12.000000000000
         C           -2.550557350523    -0.620653663167     0.342213118247    12.000000000000
         C           -2.116394350523    -1.926526663167     0.111971118247    12.000000000000
         C           -2.187547350523     1.871852336833     0.433440118247    12.000000000000
         H            1.643600649477    -2.366899663167    -1.187009881753     1.007825032230
         H            1.815316649477    -0.669127663167    -1.604743881753     1.007825032230
         H            2.491000649477    -2.020479063167     1.069162418247     1.007825032230
         H            3.542696649477    -1.076557663167    -0.018116881753     1.007825032230
         H            1.320133649477    -0.093026663167     1.829118118247     1.007825032230
         H            2.997564649477     0.437400336833     1.794306118247     1.007825032230
         H            2.456127649477     1.988183336833     0.137541118247     1.007825032230
         H           -0.454023350523    -3.180966663167    -0.447098881753     1.007825032230
         H           -3.585838350523    -0.440334663167     0.626278118247     1.007825032230
         H           -2.809963350523    -2.757434663167     0.220725118247     1.007825032230
         H           -1.540436350523     2.422911336833     1.122094118247     1.007825032230
         H           -2.207876350523     2.436676336833    -0.500914881753     1.007825032230
         H           -3.195665350523     1.843634336833     0.856502118247     1.007825032230

  Basis Set: AUG-CC-PVTZ
    Blend: AUG-CC-PVTZ
  Basis Set: (AUG-CC-PVTZ AUX)
    Blend: AUG-CC-PVTZ-JKFIT
	 Reference Energy          =    -553.6426727592973975 [Eh]
	 Singles Energy            =      -0.0000000000000000 [Eh]
	 Same-Spin Energy          =      -0.6041922068159623 [Eh]
	 Opposite-Spin Energy      =      -1.9032234534864574 [Eh]
	 Correlation Energy        =      -2.5074156603024198 [Eh]
	 Total Energy              =    -556.1500884195997969 [Eh]

	 ================> DF-SCS-MP2 Energies <==================
	-----------------------------------------------------------
	 SCS Same-Spin Scale       =       0.3333333333333333 [-]
	 SCS Opposite-Spin Scale   =       1.2000000000000000 [-]
	 SCS Same-Spin Energy      =      -0.2013974022719874 [Eh]
	 SCS Opposite-Spin Energy  =      -2.2838681441837489 [Eh]
	 SCS Correlation Energy    =      -2.4852655464557363 [Eh]
	 SCS Total Energy          =    -556.1279383057531049 [Eh]
	-----------------------------------------------------------

  Dipole Moment: [D]
     X:     1.7219      Y:    -2.5290      Z:     2.1959     Total:     3.7660

*** Psi4 exiting successfully. Buy a developer a beer!
