                               Psi4 1.4a3.dev225

  ==> Input File <==

--------------------------------------------------------------------------
#psi4
#
memory 32 gb

molecule  {
0 1
  O        0.3130990     2.3704440    -1.0483590
  N        1.7738192     1.2063692     0.2967824
  C        1.5287440    -1.3320340    -0.8115580
  C        2.5082430    -1.1273300     0.3546920
  C        0.0936770    -1.0844130    -0.4156830
  C       -0.3593510     0.2288580    -0.1728470
  C        2.1500350     0.1348000     1.1432270
  C       -1.6973100     0.4876920     0.1815770
  C        0.5874820     1.3794060    -0.3635620
  C       -0.8057180    -2.1460500    -0.2745700
  C       -2.5635920    -0.6025190     0.3218070
  C       -2.1294290    -1.9083920     0.0915650
  C       -2.2005820     1.8899870     0.4130340
  H        1.6305660    -2.3487650    -1.2074160
  H        1.8022820    -0.6509930    -1.6251500
  H        2.4785080    -1.9866810     1.0363320
  H        3.5296620    -1.0584230    -0.0385230
  H        1.3070990    -0.0748920     1.8087120
  H        2.9845300     0.4555350     1.7739000
  H        2.4430930     2.0063180     0.1171350
  H       -0.4670580    -3.1628320    -0.4675050
  H       -3.5988730    -0.4222000     0.6058720
  H       -2.8229980    -2.7393000     0.2003190
  H       -1.5534710     2.4410460     1.1016880
  H       -2.2209110     2.4548110    -0.5213210
  H       -3.2087000     1.8617690     0.8360960
units angstrom
no_reorient  #important for SAPT in psi4, default
symmetry c1  #important for SAPT in psi4, default
}

set PROPERTIES_ORIGIN ["COM"]
properties('MP2/aug-cc-pvtz', properties = ['dipole'])
--------------------------------------------------------------------------

    Molecular point group: c1
  Charge       = 0
  Multiplicity = 1
  Basis Set: AUG-CC-PVTZ
    Blend: AUG-CC-PVTZ
  Basis Set: (AUG-CC-PVTZ AUX)
    Blend: AUG-CC-PVTZ-JKFIT

    Orbital Energies [Eh]
    ---------------------

    Doubly Occupied:

       1A    -20.515558     2A    -15.586867     3A    -11.352037
       4A    -11.272546     5A    -11.253753     6A    -11.252733
       7A    -11.243852     8A    -11.240609     9A    -11.237782
      10A    -11.236132    11A    -11.234867    12A    -11.232234
      13A    -11.215840    14A     -1.368732    15A     -1.243466
      16A     -1.163047    17A     -1.083588    18A     -1.043783
      19A     -1.030015    20A     -0.941876    21A     -0.934659
      22A     -0.874735    23A     -0.828718    24A     -0.784936
      25A     -0.765401    26A     -0.691644    27A     -0.687119
      28A     -0.662199    29A     -0.658783    30A     -0.621634
      31A     -0.612776    32A     -0.591141    33A     -0.584572
      34A     -0.570290    35A     -0.565574    36A     -0.553378
      37A     -0.532329    38A     -0.529159    39A     -0.513805
      40A     -0.504835    41A     -0.487898    42A     -0.479006
      43A     -0.473529    44A     -0.418300    45A     -0.385226
      46A     -0.335949    47A     -0.327051

  @DF-RHF Final Energy:  -553.63809936002053

   => Energetics <=

    Nuclear Repulsion Energy =            796.8177948423364114
    One-Electron Energy =               -2333.4638665175020833
    Two-Electron Energy =                 983.0079723151452527
    Total Energy =                       -553.6380993600205329
  Basis Set: (AUG-CC-PVTZ AUX)
    Blend: AUG-CC-PVTZ-RI
    Molecular point group: c1

    Geometry (in Angstrom), charge = 0, multiplicity = 1:

       Center              X                  Y                   Z               Mass
    ------------   -----------------  -----------------  -----------------  -----------------
         O            0.327290587687     2.355605900833    -1.029216215563    15.994914619570
         N            1.788010787687     1.191531100833     0.315925184437    14.003074004430
         C            1.542935587687    -1.346872099167    -0.792415215563    12.000000000000
         C            2.522434587687    -1.142168099167     0.373834784437    12.000000000000
         C            0.107868587687    -1.099251099167    -0.396540215563    12.000000000000
         C           -0.345159412313     0.214019900833    -0.153704215563    12.000000000000
         C            2.164226587687     0.119961900833     1.162369784437    12.000000000000
         C           -1.683118412313     0.472853900833     0.200719784437    12.000000000000
         C            0.601673587687     1.364567900833    -0.344419215563    12.000000000000
         C           -0.791526412313    -2.160888099167    -0.255427215563    12.000000000000
         C           -2.549400412313    -0.617357099167     0.340949784437    12.000000000000
         C           -2.115237412313    -1.923230099167     0.110707784437    12.000000000000
         C           -2.186390412313     1.875148900833     0.432176784437    12.000000000000
         H            1.644757587687    -2.363603099167    -1.188273215563     1.007825032230
         H            1.816473587687    -0.665831099167    -1.606007215563     1.007825032230
         H            2.492699587687    -2.001519099167     1.055474784437     1.007825032230
         H            3.543853587687    -1.073261099167    -0.019380215563     1.007825032230
         H            1.321290587687    -0.089730099167     1.827854784437     1.007825032230
         H            2.998721587687     0.440696900833     1.793042784437     1.007825032230
         H            2.457284587687     1.991479900833     0.136277784437     1.007825032230
         H           -0.452866412313    -3.177670099167    -0.448362215563     1.007825032230
         H           -3.584681412313    -0.437038099167     0.625014784437     1.007825032230
         H           -2.808806412313    -2.754138099167     0.219461784437     1.007825032230
         H           -1.539279412313     2.426207900833     1.120830784437     1.007825032230
         H           -2.206719412313     2.439972900833    -0.502178215563     1.007825032230
         H           -3.194508412313     1.846930900833     0.855238784437     1.007825032230

  Basis Set: AUG-CC-PVTZ
    Blend: AUG-CC-PVTZ
  Basis Set: (AUG-CC-PVTZ AUX)
    Blend: AUG-CC-PVTZ-JKFIT
	 Reference Energy          =    -553.6380993600205329 [Eh]
	 Singles Energy            =      -0.0000000000000000 [Eh]
	 Same-Spin Energy          =      -0.6050577991730487 [Eh]
	 Opposite-Spin Energy      =      -1.9042273803047765 [Eh]
	 Correlation Energy        =      -2.5092851794778253 [Eh]
	 Total Energy              =    -556.1473845394983755 [Eh]

	 ================> DF-SCS-MP2 Energies <==================
	-----------------------------------------------------------
	 SCS Same-Spin Scale       =       0.3333333333333333 [-]
	 SCS Opposite-Spin Scale   =       1.2000000000000000 [-]
	 SCS Same-Spin Energy      =      -0.2016859330576829 [Eh]
	 SCS Opposite-Spin Energy  =      -2.2850728563657317 [Eh]
	 SCS Correlation Energy    =      -2.4867587894234147 [Eh]
	 SCS Total Energy          =    -556.1248581494439804 [Eh]
	-----------------------------------------------------------

  Dipole Moment: [D]
     X:     1.7573      Y:    -2.4543      Z:     2.1873     Total:     3.7277

*** Psi4 exiting successfully. Buy a developer a beer!
