                               Psi4 1.4a3.dev225

  ==> Input File <==

--------------------------------------------------------------------------
#psi4
#
memory 32 gb

molecule  {
0 1
  O        0.3130990     2.3704440    -1.0483590
  N        1.7883250     1.2487180     0.2800910
  C        1.5287440    -1.3320340    -0.8115580
  C        2.5082430    -1.1273300     0.3546920
  C        0.0936770    -1.0844130    -0.4156830
  C       -0.3593510     0.2288580    -0.1728470
  C        2.1500350     0.1348000     1.1432270
  C       -1.6973100     0.4876920     0.1815770
  C        0.5874820     1.3794060    -0.3635620
  C       -0.8057180    -2.1460500    -0.2745700
  C       -2.5635920    -0.6025190     0.3218070
  C       -2.1484229    -1.9049818     0.0968187
  C       -2.2005820     1.8899870     0.4130340
  H        1.6305660    -2.3487650    -1.2074160
  H        1.8022820    -0.6509930    -1.6251500
  H        2.4785080    -1.9866810     1.0363320
  H        3.5296620    -1.0584230    -0.0385230
  H        1.3070990    -0.0748920     1.8087120
  H        2.9845300     0.4555350     1.7739000
  H        2.4430930     2.0063180     0.1171350
  H       -0.4670580    -3.1628320    -0.4675050
  H       -3.5988730    -0.4222000     0.6058720
  H       -2.8229980    -2.7393000     0.2003190
  H       -1.5534710     2.4410460     1.1016880
  H       -2.2209110     2.4548110    -0.5213210
  H       -3.2087000     1.8617690     0.8360960
units angstrom
no_reorient  #important for SAPT in psi4, default
symmetry c1  #important for SAPT in psi4, default
}

set PROPERTIES_ORIGIN ["COM"]
properties('MP2/aug-cc-pvtz', properties = ['dipole'])
--------------------------------------------------------------------------

    Molecular point group: c1
  Charge       = 0
  Multiplicity = 1
  Basis Set: AUG-CC-PVTZ
    Blend: AUG-CC-PVTZ
  Basis Set: (AUG-CC-PVTZ AUX)
    Blend: AUG-CC-PVTZ-JKFIT

    Orbital Energies [Eh]
    ---------------------

    Doubly Occupied:

       1A    -20.512728     2A    -15.583027     3A    -11.350326
       4A    -11.274870     5A    -11.253964     6A    -11.253893
       7A    -11.244735     8A    -11.242096     9A    -11.238114
      10A    -11.237255    11A    -11.237086    12A    -11.232134
      13A    -11.216099    14A     -1.367605    15A     -1.235345
      16A     -1.162920    17A     -1.084821    18A     -1.043017
      19A     -1.029373    20A     -0.943132    21A     -0.933254
      22A     -0.873037    23A     -0.830840    24A     -0.784601
      25A     -0.770217    26A     -0.693547    27A     -0.682693
      28A     -0.660992    29A     -0.658992    30A     -0.619241
      31A     -0.614913    32A     -0.592728    33A     -0.583828
      34A     -0.569835    35A     -0.565329    36A     -0.553024
      37A     -0.531460    38A     -0.529301    39A     -0.513999
      40A     -0.507241    41A     -0.489339    42A     -0.478600
      43A     -0.472595    44A     -0.417571    45A     -0.386041
      46A     -0.336881    47A     -0.326538

  @DF-RHF Final Energy:  -553.64261449008484

   => Energetics <=

    Nuclear Repulsion Energy =            795.7378499319888761
    One-Electron Energy =               -2331.3225707791793866
    Two-Electron Energy =                 981.9421063571056720
    Total Energy =                       -553.6426144900848385
  Basis Set: (AUG-CC-PVTZ AUX)
    Blend: AUG-CC-PVTZ-RI
    Molecular point group: c1

    Geometry (in Angstrom), charge = 0, multiplicity = 1:

       Center              X                  Y                   Z               Mass
    ------------   -----------------  -----------------  -----------------  -----------------
         O            0.327432227034     2.351985473559    -1.028241419514    15.994914619570
         N            1.802658227034     1.230259473559     0.300208580486    14.003074004430
         C            1.543077227034    -1.350492526441    -0.791440419514    12.000000000000
         C            2.522576227034    -1.145788526441     0.374809580486    12.000000000000
         C            0.108010227034    -1.102871526441    -0.395565419514    12.000000000000
         C           -0.345017772966     0.210399473559    -0.152729419514    12.000000000000
         C            2.164368227034     0.116341473559     1.163344580486    12.000000000000
         C           -1.682976772966     0.469233473559     0.201694580486    12.000000000000
         C            0.601815227034     1.360947473559    -0.343444419514    12.000000000000
         C           -0.791384772966    -2.164508526441    -0.254452419514    12.000000000000
         C           -2.549258772966    -0.620977526441     0.341924580486    12.000000000000
         C           -2.134089672966    -1.923440326441     0.116936280486    12.000000000000
         C           -2.186248772966     1.871528473559     0.433151580486    12.000000000000
         H            1.644899227034    -2.367223526441    -1.187298419514     1.007825032230
         H            1.816615227034    -0.669451526441    -1.605032419514     1.007825032230
         H            2.492841227034    -2.005139526441     1.056449580486     1.007825032230
         H            3.543995227034    -1.076881526441    -0.018405419514     1.007825032230
         H            1.321432227034    -0.093350526441     1.828829580486     1.007825032230
         H            2.998863227034     0.437076473559     1.794017580486     1.007825032230
         H            2.457426227034     1.987859473559     0.137252580486     1.007825032230
         H           -0.452724772966    -3.181290526441    -0.447387419514     1.007825032230
         H           -3.584539772966    -0.440658526441     0.625989580486     1.007825032230
         H           -2.808664772966    -2.757758526441     0.220436580486     1.007825032230
         H           -1.539137772966     2.422587473559     1.121805580486     1.007825032230
         H           -2.206577772966     2.436352473559    -0.501203419514     1.007825032230
         H           -3.194366772966     1.843310473559     0.856213580486     1.007825032230

  Basis Set: AUG-CC-PVTZ
    Blend: AUG-CC-PVTZ
  Basis Set: (AUG-CC-PVTZ AUX)
    Blend: AUG-CC-PVTZ-JKFIT
	 Reference Energy          =    -553.6426144900848385 [Eh]
	 Singles Energy            =      -0.0000000000000000 [Eh]
	 Same-Spin Energy          =      -0.6041749213214894 [Eh]
	 Opposite-Spin Energy      =      -1.9031833657380457 [Eh]
	 Correlation Energy        =      -2.5073582870595352 [Eh]
	 Total Energy              =    -556.1499727771443986 [Eh]

	 ================> DF-SCS-MP2 Energies <==================
	-----------------------------------------------------------
	 SCS Same-Spin Scale       =       0.3333333333333333 [-]
	 SCS Opposite-Spin Scale   =       1.2000000000000000 [-]
	 SCS Same-Spin Energy      =      -0.2013916404404965 [Eh]
	 SCS Opposite-Spin Energy  =      -2.2838200388856547 [Eh]
	 SCS Correlation Energy    =      -2.4852116793261509 [Eh]
	 SCS Total Energy          =    -556.1278261694110370 [Eh]
	-----------------------------------------------------------

  Dipole Moment: [D]
     X:     1.7271      Y:    -2.5424      Z:     2.2050     Total:     3.7827

*** Psi4 exiting successfully. Buy a developer a beer!
