                               Psi4 1.4a3.dev225

  ==> Input File <==

--------------------------------------------------------------------------
#psi4
#
memory 32 gb

molecule  {
0 1
  O        0.3130990     2.3704440    -1.0483590
  N        1.7883250     1.2487180     0.2800910
  C        1.5287440    -1.3320340    -0.8115580
  C        2.5082430    -1.1273300     0.3546920
  C        0.0936770    -1.0844130    -0.4156830
  C       -0.3593510     0.2288580    -0.1728470
  C        2.1500350     0.1348000     1.1432270
  C       -1.6973100     0.4876920     0.1815770
  C        0.5874820     1.3794060    -0.3635620
  C       -0.8057180    -2.1460500    -0.2745700
  C       -2.5635920    -0.6025190     0.3218070
  C       -2.2655534    -1.9510115     0.1229247
  C       -2.2005820     1.8899870     0.4130340
  H        1.6305660    -2.3487650    -1.2074160
  H        1.8022820    -0.6509930    -1.6251500
  H        2.4785080    -1.9866810     1.0363320
  H        3.5296620    -1.0584230    -0.0385230
  H        1.3070990    -0.0748920     1.8087120
  H        2.9845300     0.4555350     1.7739000
  H        2.4430930     2.0063180     0.1171350
  H       -0.4670580    -3.1628320    -0.4675050
  H       -3.5988730    -0.4222000     0.6058720
  H       -2.8229980    -2.7393000     0.2003190
  H       -1.5534710     2.4410460     1.1016880
  H       -2.2209110     2.4548110    -0.5213210
  H       -3.2087000     1.8617690     0.8360960
units angstrom
no_reorient  #important for SAPT in psi4, default
symmetry c1  #important for SAPT in psi4, default
}

set PROPERTIES_ORIGIN ["COM"]
properties('MP2/aug-cc-pvtz', properties = ['dipole'])
--------------------------------------------------------------------------

    Molecular point group: c1
  Charge       = 0
  Multiplicity = 1
  Basis Set: AUG-CC-PVTZ
    Blend: AUG-CC-PVTZ
  Basis Set: (AUG-CC-PVTZ AUX)
    Blend: AUG-CC-PVTZ-JKFIT

    Orbital Energies [Eh]
    ---------------------

    Doubly Occupied:

       1A    -20.513528     2A    -15.583400     3A    -11.351010
       4A    -11.274938     5A    -11.255490     6A    -11.253005
       7A    -11.249287     8A    -11.247324     9A    -11.244640
      10A    -11.237914    11A    -11.237335    12A    -11.236772
      13A    -11.216959    14A     -1.368276    15A     -1.235715
      16A     -1.156257    17A     -1.084586    18A     -1.035555
      19A     -1.030204    20A     -0.943136    21A     -0.930096
      22A     -0.877130    23A     -0.833378    24A     -0.788023
      25A     -0.771533    26A     -0.691902    27A     -0.682946
      28A     -0.676652    29A     -0.656518    30A     -0.618384
      31A     -0.615908    32A     -0.600768    33A     -0.582611
      34A     -0.569349    35A     -0.560764    36A     -0.552361
      37A     -0.531194    38A     -0.524215    39A     -0.519861
      40A     -0.508267    41A     -0.490595    42A     -0.471933
      43A     -0.461677    44A     -0.418741    45A     -0.386337
      46A     -0.338585    47A     -0.319230

  @DF-RHF Final Energy:  -553.61348214220993

   => Energetics <=

    Nuclear Repulsion Energy =            793.2597560268516190
    One-Electron Energy =               -2326.2778966782102543
    Two-Electron Energy =                 979.4046585091487032
    Total Energy =                       -553.6134821422099321
  Basis Set: (AUG-CC-PVTZ AUX)
    Blend: AUG-CC-PVTZ-RI
    Molecular point group: c1

    Geometry (in Angstrom), charge = 0, multiplicity = 1:

       Center              X                  Y                   Z               Mass
    ------------   -----------------  -----------------  -----------------  -----------------
         O            0.335459458875     2.355139998414    -1.030030525805    15.994914619570
         N            1.810685458875     1.233413998414     0.298419474195    14.003074004430
         C            1.551104458875    -1.347338001586    -0.793229525805    12.000000000000
         C            2.530603458875    -1.142634001586     0.373020474195    12.000000000000
         C            0.116037458875    -1.099717001586    -0.397354525805    12.000000000000
         C           -0.336990541125     0.213553998414    -0.154518525805    12.000000000000
         C            2.172395458875     0.119495998414     1.161555474195    12.000000000000
         C           -1.674949541125     0.472387998414     0.199905474195    12.000000000000
         C            0.609842458875     1.364101998414    -0.345233525805    12.000000000000
         C           -0.783357541125    -2.161354001586    -0.256241525805    12.000000000000
         C           -2.541231541125    -0.617823001586     0.340135474195    12.000000000000
         C           -2.243192941125    -1.966315501586     0.141253174195    12.000000000000
         C           -2.178221541125     1.874682998414     0.431362474195    12.000000000000
         H            1.652926458875    -2.364069001586    -1.189087525805     1.007825032230
         H            1.824642458875    -0.666297001586    -1.606821525805     1.007825032230
         H            2.500868458875    -2.001985001586     1.054660474195     1.007825032230
         H            3.552022458875    -1.073727001586    -0.020194525805     1.007825032230
         H            1.329459458875    -0.090196001586     1.827040474195     1.007825032230
         H            3.006890458875     0.440230998414     1.792228474195     1.007825032230
         H            2.465453458875     1.991013998414     0.135463474195     1.007825032230
         H           -0.444697541125    -3.178136001586    -0.449176525805     1.007825032230
         H           -3.576512541125    -0.437504001586     0.624200474195     1.007825032230
         H           -2.800637541125    -2.754604001586     0.218647474195     1.007825032230
         H           -1.531110541125     2.425741998414     1.120016474195     1.007825032230
         H           -2.198550541125     2.439506998414    -0.502992525805     1.007825032230
         H           -3.186339541125     1.846464998414     0.854424474195     1.007825032230

  Basis Set: AUG-CC-PVTZ
    Blend: AUG-CC-PVTZ
  Basis Set: (AUG-CC-PVTZ AUX)
    Blend: AUG-CC-PVTZ-JKFIT
	 Reference Energy          =    -553.6134821422099321 [Eh]
	 Singles Energy            =      -0.0000000000000000 [Eh]
	 Same-Spin Energy          =      -0.6045615119385723 [Eh]
	 Opposite-Spin Energy      =      -1.9058024794907680 [Eh]
	 Correlation Energy        =      -2.5103639914293403 [Eh]
	 Total Energy              =    -556.1238461336392902 [Eh]

	 ================> DF-SCS-MP2 Energies <==================
	-----------------------------------------------------------
	 SCS Same-Spin Scale       =       0.3333333333333333 [-]
	 SCS Opposite-Spin Scale   =       1.2000000000000000 [-]
	 SCS Same-Spin Energy      =      -0.2015205039795241 [Eh]
	 SCS Opposite-Spin Energy  =      -2.2869629753889216 [Eh]
	 SCS Correlation Energy    =      -2.4884834793684458 [Eh]
	 SCS Total Energy          =    -556.1019656215784153 [Eh]
	-----------------------------------------------------------

  Dipole Moment: [D]
     X:     1.7419      Y:    -2.5318      Z:     2.2068     Total:     3.7834

*** Psi4 exiting successfully. Buy a developer a beer!
