                               Psi4 1.4a3.dev225

  ==> Input File <==

--------------------------------------------------------------------------
#psi4
#
memory 32 gb

molecule  {
0 1
  O        0.3130990     2.3704440    -1.0483590
  N        1.7883250     1.2487180     0.2800910
  C        1.5287440    -1.3320340    -0.8115580
  C        2.5082430    -1.1273300     0.3546920
  C        0.0936770    -1.0844130    -0.4156830
  C       -0.3593510     0.2288580    -0.1728470
  C        2.1500350     0.1348000     1.1432270
  C       -1.6973100     0.4876920     0.1815770
  C        0.5874820     1.3794060    -0.3635620
  C       -0.8057180    -2.1460500    -0.2745700
  C       -2.5635920    -0.6025190     0.3218070
  C       -2.1294290    -1.9083920     0.0915650
  C       -2.2005820     1.8899870     0.4130340
  H        1.6305660    -2.3487650    -1.2074160
  H        1.8022820    -0.6509930    -1.6251500
  H        2.4785080    -1.9866810     1.0363320
  H        3.5296620    -1.0584230    -0.0385230
  H        1.1530325    -0.1132182     1.9303451
  H        2.9845300     0.4555350     1.7739000
  H        2.4430930     2.0063180     0.1171350
  H       -0.4670580    -3.1628320    -0.4675050
  H       -3.5988730    -0.4222000     0.6058720
  H       -2.8229980    -2.7393000     0.2003190
  H       -1.5534710     2.4410460     1.1016880
  H       -2.2209110     2.4548110    -0.5213210
  H       -3.2087000     1.8617690     0.8360960
units angstrom
no_reorient  #important for SAPT in psi4, default
symmetry c1  #important for SAPT in psi4, default
}

set PROPERTIES_ORIGIN ["COM"]
properties('MP2/aug-cc-pvtz', properties = ['dipole'])
--------------------------------------------------------------------------

    Molecular point group: c1
  Charge       = 0
  Multiplicity = 1
  Basis Set: AUG-CC-PVTZ
    Blend: AUG-CC-PVTZ
  Basis Set: (AUG-CC-PVTZ AUX)
    Blend: AUG-CC-PVTZ-JKFIT

    Orbital Energies [Eh]
    ---------------------

    Doubly Occupied:

       1A    -20.513964     2A    -15.585895     3A    -11.351255
       4A    -11.296676     5A    -11.254085     6A    -11.253147
       7A    -11.244091     8A    -11.241827     9A    -11.240050
      10A    -11.238701    11A    -11.234981    12A    -11.232427
      13A    -11.215743    14A     -1.368715    15A     -1.235829
      16A     -1.163546    17A     -1.084685    18A     -1.044545
      19A     -1.027159    20A     -0.940454    21A     -0.929923
      22A     -0.873957    23A     -0.826112    24A     -0.785300
      25A     -0.766537    26A     -0.693610    27A     -0.675816
      28A     -0.660539    29A     -0.658081    30A     -0.619614
      31A     -0.614345    32A     -0.590624    33A     -0.582628
      34A     -0.569946    35A     -0.562116    36A     -0.552899
      37A     -0.531788    38A     -0.523349    39A     -0.511488
      40A     -0.501700    41A     -0.488200    42A     -0.478316
      43A     -0.469835    44A     -0.418430    45A     -0.385067
      46A     -0.335188    47A     -0.327231

  @DF-RHF Final Energy:  -553.62245474709835

   => Energetics <=

    Nuclear Repulsion Energy =            795.2198206055144283
    One-Electron Energy =               -2330.2837204410711820
    Two-Electron Energy =                 981.4414450884582948
    Total Energy =                       -553.6224547470983453
  Basis Set: (AUG-CC-PVTZ AUX)
    Blend: AUG-CC-PVTZ-RI
    Molecular point group: c1

    Geometry (in Angstrom), charge = 0, multiplicity = 1:

       Center              X                  Y                   Z               Mass
    ------------   -----------------  -----------------  -----------------  -----------------
         O            0.327017293605     2.352439777578    -1.028581457093    15.994914619570
         N            1.802243293605     1.230713777578     0.299868542907    14.003074004430
         C            1.542662293605    -1.350038222422    -0.791780457093    12.000000000000
         C            2.522161293605    -1.145334222422     0.374469542907    12.000000000000
         C            0.107595293605    -1.102417222422    -0.395905457093    12.000000000000
         C           -0.345432706395     0.210853777578    -0.153069457093    12.000000000000
         C            2.163953293605     0.116795777578     1.163004542907    12.000000000000
         C           -1.683391706395     0.469687777578     0.201354542907    12.000000000000
         C            0.601400293605     1.361401777578    -0.343784457093    12.000000000000
         C           -0.791799706395    -2.164054222422    -0.254792457093    12.000000000000
         C           -2.549673706395    -0.620523222422     0.341584542907    12.000000000000
         C           -2.115510706395    -1.926396222422     0.111342542907    12.000000000000
         C           -2.186663706395     1.871982777578     0.432811542907    12.000000000000
         H            1.644484293605    -2.366769222422    -1.187638457093     1.007825032230
         H            1.816200293605    -0.668997222422    -1.605372457093     1.007825032230
         H            2.492426293605    -2.004685222422     1.056109542907     1.007825032230
         H            3.543580293605    -1.076427222422    -0.018745457093     1.007825032230
         H            1.166950793605    -0.131222422422     1.950122642907     1.007825032230
         H            2.998448293605     0.437530777578     1.793677542907     1.007825032230
         H            2.457011293605     1.988313777578     0.136912542907     1.007825032230
         H           -0.453139706395    -3.180836222422    -0.447727457093     1.007825032230
         H           -3.584954706395    -0.440204222422     0.625649542907     1.007825032230
         H           -2.809079706395    -2.757304222422     0.220096542907     1.007825032230
         H           -1.539552706395     2.423041777578     1.121465542907     1.007825032230
         H           -2.206992706395     2.436806777578    -0.501543457093     1.007825032230
         H           -3.194781706395     1.843764777578     0.855873542907     1.007825032230

  Basis Set: AUG-CC-PVTZ
    Blend: AUG-CC-PVTZ
  Basis Set: (AUG-CC-PVTZ AUX)
    Blend: AUG-CC-PVTZ-JKFIT
	 Reference Energy          =    -553.6224547470983453 [Eh]
	 Singles Energy            =      -0.0000000000000000 [Eh]
	 Same-Spin Energy          =      -0.6047357788085006 [Eh]
	 Opposite-Spin Energy      =      -1.9052529399019447 [Eh]
	 Correlation Energy        =      -2.5099887187104453 [Eh]
	 Total Energy              =    -556.1324434658088194 [Eh]

	 ================> DF-SCS-MP2 Energies <==================
	-----------------------------------------------------------
	 SCS Same-Spin Scale       =       0.3333333333333333 [-]
	 SCS Opposite-Spin Scale   =       1.2000000000000000 [-]
	 SCS Same-Spin Energy      =      -0.2015785929361669 [Eh]
	 SCS Opposite-Spin Energy  =      -2.2863035278823336 [Eh]
	 SCS Correlation Energy    =      -2.4878821208185005 [Eh]
	 SCS Total Energy          =    -556.1103368679168852 [Eh]
	-----------------------------------------------------------

  Dipole Moment: [D]
     X:     1.7743      Y:    -2.5074      Z:     2.0851     Total:     3.7125

*** Psi4 exiting successfully. Buy a developer a beer!
