                               Psi4 1.4a3.dev225

  ==> Input File <==

--------------------------------------------------------------------------
#psi4
#
memory 32 gb

molecule  {
0 1
  O        0.3130990     2.3704440    -1.0483590
  N        1.7883250     1.2487180     0.2800910
  C        1.5287440    -1.3320340    -0.8115580
  C        2.5082430    -1.1273300     0.3546920
  C        0.1620515    -1.1499633    -0.4392844
  C       -0.3593510     0.2288580    -0.1728470
  C        2.1500350     0.1348000     1.1432270
  C       -1.6973100     0.4876920     0.1815770
  C        0.5874820     1.3794060    -0.3635620
  C       -0.8057180    -2.1460500    -0.2745700
  C       -2.5635920    -0.6025190     0.3218070
  C       -2.1294290    -1.9083920     0.0915650
  C       -2.2005820     1.8899870     0.4130340
  H        1.6305660    -2.3487650    -1.2074160
  H        1.8022820    -0.6509930    -1.6251500
  H        2.4785080    -1.9866810     1.0363320
  H        3.5296620    -1.0584230    -0.0385230
  H        1.3070990    -0.0748920     1.8087120
  H        2.9845300     0.4555350     1.7739000
  H        2.4430930     2.0063180     0.1171350
  H       -0.4670580    -3.1628320    -0.4675050
  H       -3.5988730    -0.4222000     0.6058720
  H       -2.8229980    -2.7393000     0.2003190
  H       -1.5534710     2.4410460     1.1016880
  H       -2.2209110     2.4548110    -0.5213210
  H       -3.2087000     1.8617690     0.8360960
units angstrom
no_reorient  #important for SAPT in psi4, default
symmetry c1  #important for SAPT in psi4, default
}

set PROPERTIES_ORIGIN ["COM"]
properties('MP2/aug-cc-pvtz', properties = ['dipole'])
--------------------------------------------------------------------------

    Molecular point group: c1
  Charge       = 0
  Multiplicity = 1
  Basis Set: AUG-CC-PVTZ
    Blend: AUG-CC-PVTZ
  Basis Set: (AUG-CC-PVTZ AUX)
    Blend: AUG-CC-PVTZ-JKFIT

    Orbital Energies [Eh]
    ---------------------

    Doubly Occupied:

       1A    -20.511402     2A    -15.582511     3A    -11.348605
       4A    -11.275267     5A    -11.259882     6A    -11.253408
       7A    -11.248175     8A    -11.245064     9A    -11.239751
      10A    -11.236555    11A    -11.235631    12A    -11.234288
      13A    -11.215900    14A     -1.366306    15A     -1.234918
      16A     -1.159052    17A     -1.094975    18A     -1.043976
      19A     -1.024999    20A     -0.943957    21A     -0.934873
      22A     -0.876264    23A     -0.832744    24A     -0.785645
      25A     -0.759983    26A     -0.694579    27A     -0.684492
      28A     -0.662757    29A     -0.659430    30A     -0.618120
      31A     -0.616115    32A     -0.591653    33A     -0.585401
      34A     -0.570558    35A     -0.564668    36A     -0.555313
      37A     -0.533982    38A     -0.529360    39A     -0.515250
      40A     -0.507446    41A     -0.490466    42A     -0.475534
      43A     -0.474233    44A     -0.414091    45A     -0.385798
      46A     -0.331953    47A     -0.324113

  @DF-RHF Final Energy:  -553.62930049749070

   => Energetics <=

    Nuclear Repulsion Energy =            795.1106257722335613
    One-Electron Energy =               -2330.0209647393921841
    Two-Electron Energy =                 981.2810384696679193
    Total Energy =                       -553.6293004974907035
  Basis Set: (AUG-CC-PVTZ AUX)
    Blend: AUG-CC-PVTZ-RI
    Molecular point group: c1

    Geometry (in Angstrom), charge = 0, multiplicity = 1:

       Center              X                  Y                   Z               Mass
    ------------   -----------------  -----------------  -----------------  -----------------
         O            0.321444662715     2.356711500695    -1.026263910859    15.994914619570
         N            1.796670662715     1.234985500695     0.302186089141    14.003074004430
         C            1.537089662715    -1.345766499305    -0.789462910859    12.000000000000
         C            2.516588662715    -1.141062499305     0.376787089141    12.000000000000
         C            0.170397162715    -1.163695799305    -0.417189310859    12.000000000000
         C           -0.351005337285     0.215125500695    -0.150751910859    12.000000000000
         C            2.158380662715     0.121067500695     1.165322089141    12.000000000000
         C           -1.688964337285     0.473959500695     0.203672089141    12.000000000000
         C            0.595827662715     1.365673500695    -0.341466910859    12.000000000000
         C           -0.797372337285    -2.159782499305    -0.252474910859    12.000000000000
         C           -2.555246337285    -0.616251499305     0.343902089141    12.000000000000
         C           -2.121083337285    -1.922124499305     0.113660089141    12.000000000000
         C           -2.192236337285     1.876254500695     0.435129089141    12.000000000000
         H            1.638911662715    -2.362497499305    -1.185320910859     1.007825032230
         H            1.810627662715    -0.664725499305    -1.603054910859     1.007825032230
         H            2.486853662715    -2.000413499305     1.058427089141     1.007825032230
         H            3.538007662715    -1.072155499305    -0.016427910859     1.007825032230
         H            1.315444662715    -0.088624499305     1.830807089141     1.007825032230
         H            2.992875662715     0.441802500695     1.795995089141     1.007825032230
         H            2.451438662715     1.992585500695     0.139230089141     1.007825032230
         H           -0.458712337285    -3.176564499305    -0.445409910859     1.007825032230
         H           -3.590527337285    -0.435932499305     0.627967089141     1.007825032230
         H           -2.814652337285    -2.753032499305     0.222414089141     1.007825032230
         H           -1.545125337285     2.427313500695     1.123783089141     1.007825032230
         H           -2.212565337285     2.441078500695    -0.499225910859     1.007825032230
         H           -3.200354337285     1.848036500695     0.858191089141     1.007825032230

  Basis Set: AUG-CC-PVTZ
    Blend: AUG-CC-PVTZ
  Basis Set: (AUG-CC-PVTZ AUX)
    Blend: AUG-CC-PVTZ-JKFIT
	 Reference Energy          =    -553.6293004974907035 [Eh]
	 Singles Energy            =      -0.0000000000000000 [Eh]
	 Same-Spin Energy          =      -0.6055441971261940 [Eh]
	 Opposite-Spin Energy      =      -1.9052563737285635 [Eh]
	 Correlation Energy        =      -2.5108005708547574 [Eh]
	 Total Energy              =    -556.1401010683454160 [Eh]

	 ================> DF-SCS-MP2 Energies <==================
	-----------------------------------------------------------
	 SCS Same-Spin Scale       =       0.3333333333333333 [-]
	 SCS Opposite-Spin Scale   =       1.2000000000000000 [-]
	 SCS Same-Spin Energy      =      -0.2018480657087313 [Eh]
	 SCS Opposite-Spin Energy  =      -2.2863076484742759 [Eh]
	 SCS Correlation Energy    =      -2.4881557141830073 [Eh]
	 SCS Total Energy          =    -556.1174562116736979 [Eh]
	-----------------------------------------------------------

  Dipole Moment: [D]
     X:     1.7865      Y:    -2.5418      Z:     2.2002     Total:     3.8070

*** Psi4 exiting successfully. Buy a developer a beer!
