                               Psi4 1.4a3.dev225

  ==> Input File <==

--------------------------------------------------------------------------
#psi4
#
memory 32 gb

molecule  {
0 1
  O        0.3130990     2.3704440    -1.0483590
  N        1.7883250     1.2487180     0.2800910
  C        1.5287440    -1.3320340    -0.8115580
  C        2.5082430    -1.1273300     0.3546920
  C        0.0936770    -1.0844130    -0.4156830
  C       -0.3593510     0.2288580    -0.1728470
  C        2.2399485     0.1797582     1.1575945
  C       -1.6973100     0.4876920     0.1815770
  C        0.5874820     1.3794060    -0.3635620
  C       -0.8057180    -2.1460500    -0.2745700
  C       -2.5635920    -0.6025190     0.3218070
  C       -2.1294290    -1.9083920     0.0915650
  C       -2.2005820     1.8899870     0.4130340
  H        1.6305660    -2.3487650    -1.2074160
  H        1.8022820    -0.6509930    -1.6251500
  H        2.4785080    -1.9866810     1.0363320
  H        3.5296620    -1.0584230    -0.0385230
  H        1.3070990    -0.0748920     1.8087120
  H        2.9845300     0.4555350     1.7739000
  H        2.4430930     2.0063180     0.1171350
  H       -0.4670580    -3.1628320    -0.4675050
  H       -3.5988730    -0.4222000     0.6058720
  H       -2.8229980    -2.7393000     0.2003190
  H       -1.5534710     2.4410460     1.1016880
  H       -2.2209110     2.4548110    -0.5213210
  H       -3.2087000     1.8617690     0.8360960
units angstrom
no_reorient  #important for SAPT in psi4, default
symmetry c1  #important for SAPT in psi4, default
}

set PROPERTIES_ORIGIN ["COM"]
properties('MP2/aug-cc-pvtz', properties = ['dipole'])
--------------------------------------------------------------------------

    Molecular point group: c1
  Charge       = 0
  Multiplicity = 1
  Basis Set: AUG-CC-PVTZ
    Blend: AUG-CC-PVTZ
  Basis Set: (AUG-CC-PVTZ AUX)
    Blend: AUG-CC-PVTZ-JKFIT

    Orbital Energies [Eh]
    ---------------------

    Doubly Occupied:

       1A    -20.513607     2A    -15.583625     3A    -11.352740
       4A    -11.275720     5A    -11.254311     6A    -11.253322
       7A    -11.244250     8A    -11.241924     9A    -11.239564
      10A    -11.238694    11A    -11.235002    12A    -11.232416
      13A    -11.215744    14A     -1.368176    15A     -1.234445
      16A     -1.163613    17A     -1.082641    18A     -1.044295
      19A     -1.028546    20A     -0.943891    21A     -0.935246
      22A     -0.875628    23A     -0.828338    24A     -0.785609
      25A     -0.767982    26A     -0.697065    27A     -0.685253
      28A     -0.665793    29A     -0.657008    30A     -0.620414
      31A     -0.615111    32A     -0.587132    33A     -0.583971
      34A     -0.571031    35A     -0.563901    36A     -0.552484
      37A     -0.535510    38A     -0.529124    39A     -0.510674
      40A     -0.502722    41A     -0.493507    42A     -0.478729
      43A     -0.470371    44A     -0.418941    45A     -0.381426
      46A     -0.336160    47A     -0.327295

  @DF-RHF Final Energy:  -553.63065678238956

   => Energetics <=

    Nuclear Repulsion Energy =            794.5821472472175628
    One-Electron Energy =               -2328.9797080497310162
    Two-Electron Energy =                 980.7669040201238886
    Total Energy =                       -553.6306567823895648
  Basis Set: (AUG-CC-PVTZ AUX)
    Blend: AUG-CC-PVTZ-RI
    Molecular point group: c1

    Geometry (in Angstrom), charge = 0, multiplicity = 1:

       Center              X                  Y                   Z               Mass
    ------------   -----------------  -----------------  -----------------  -----------------
         O            0.319968543799     2.349138090268    -1.028866009912    15.994914619570
         N            1.795194543799     1.227412090268     0.299583990088    14.003074004430
         C            1.535613543799    -1.353339909732    -0.792065009912    12.000000000000
         C            2.515112543799    -1.148635909732     0.374184990088    12.000000000000
         C            0.100546543799    -1.105718909732    -0.396190009912    12.000000000000
         C           -0.352481456201     0.207552090268    -0.153354009912    12.000000000000
         C            2.246818043799     0.158452290268     1.177087490088    12.000000000000
         C           -1.690440456201     0.466386090268     0.201069990088    12.000000000000
         C            0.594351543799     1.358100090268    -0.344069009912    12.000000000000
         C           -0.798848456201    -2.167355909732    -0.255077009912    12.000000000000
         C           -2.556722456201    -0.623824909732     0.341299990088    12.000000000000
         C           -2.122559456201    -1.929697909732     0.111057990088    12.000000000000
         C           -2.193712456201     1.868681090268     0.432526990088    12.000000000000
         H            1.637435543799    -2.370070909732    -1.187923009912     1.007825032230
         H            1.809151543799    -0.672298909732    -1.605657009912     1.007825032230
         H            2.485377543799    -2.007986909732     1.055824990088     1.007825032230
         H            3.536531543799    -1.079728909732    -0.019030009912     1.007825032230
         H            1.313968543799    -0.096197909732     1.828204990088     1.007825032230
         H            2.991399543799     0.434229090268     1.793392990088     1.007825032230
         H            2.449962543799     1.985012090268     0.136627990088     1.007825032230
         H           -0.460188456201    -3.184137909732    -0.448012009912     1.007825032230
         H           -3.592003456201    -0.443505909732     0.625364990088     1.007825032230
         H           -2.816128456201    -2.760605909732     0.219811990088     1.007825032230
         H           -1.546601456201     2.419740090268     1.121180990088     1.007825032230
         H           -2.214041456201     2.433505090268    -0.501828009912     1.007825032230
         H           -3.201830456201     1.840463090268     0.855588990088     1.007825032230

  Basis Set: AUG-CC-PVTZ
    Blend: AUG-CC-PVTZ
  Basis Set: (AUG-CC-PVTZ AUX)
    Blend: AUG-CC-PVTZ-JKFIT
	 Reference Energy          =    -553.6306567823895648 [Eh]
	 Singles Energy            =      -0.0000000000000000 [Eh]
	 Same-Spin Energy          =      -0.6041442102434539 [Eh]
	 Opposite-Spin Energy      =      -1.9034381809678338 [Eh]
	 Correlation Energy        =      -2.5075823912112876 [Eh]
	 Total Energy              =    -556.1382391736008231 [Eh]

	 ================> DF-SCS-MP2 Energies <==================
	-----------------------------------------------------------
	 SCS Same-Spin Scale       =       0.3333333333333333 [-]
	 SCS Opposite-Spin Scale   =       1.2000000000000000 [-]
	 SCS Same-Spin Energy      =      -0.2013814034144846 [Eh]
	 SCS Opposite-Spin Energy  =      -2.2841258171614003 [Eh]
	 SCS Correlation Energy    =      -2.4855072205758848 [Eh]
	 SCS Total Energy          =    -556.1161640029654336 [Eh]
	-----------------------------------------------------------

  Dipole Moment: [D]
     X:     1.7697      Y:    -2.4957      Z:     2.1862     Total:     3.7603

*** Psi4 exiting successfully. Buy a developer a beer!
