                               Psi4 1.4a3.dev225

  ==> Input File <==

--------------------------------------------------------------------------
#psi4
#
memory 32 gb

molecule  {
0 1
  O        0.3130990     2.3704440    -1.0483590
  N        1.7883250     1.2487180     0.2800910
  C        1.5287440    -1.3320340    -0.8115580
  C        2.5082430    -1.1273300     0.3546920
  C        0.0936770    -1.0844130    -0.4156830
  C       -0.3593510     0.2288580    -0.1728470
  C        2.1500350     0.1348000     1.1432270
  C       -1.6973100     0.4876920     0.1815770
  C        0.5874820     1.3794060    -0.3635620
  C       -0.8057180    -2.1460500    -0.2745700
  C       -2.5635920    -0.6025190     0.3218070
  C       -2.1294290    -1.9083920     0.0915650
  C       -2.2005820     1.8899870     0.4130340
  H        1.6305660    -2.3487650    -1.2074160
  H        1.8022820    -0.6509930    -1.6251500
  H        2.4785080    -1.9866810     1.0363320
  H        3.5296620    -1.0584230    -0.0385230
  H        1.3070990    -0.0748920     1.8087120
  H        2.9845300     0.4555350     1.7739000
  H        2.4430930     2.0063180     0.1171350
  H       -0.4670580    -3.1628320    -0.4675050
  H       -3.5988730    -0.4222000     0.6058720
  H       -2.8548779    -2.7774927     0.2053179
  H       -1.5534710     2.4410460     1.1016880
  H       -2.2209110     2.4548110    -0.5213210
  H       -3.2087000     1.8617690     0.8360960
units angstrom
no_reorient  #important for SAPT in psi4, default
symmetry c1  #important for SAPT in psi4, default
}

set PROPERTIES_ORIGIN ["COM"]
properties('MP2/aug-cc-pvtz', properties = ['dipole'])
--------------------------------------------------------------------------

    Molecular point group: c1
  Charge       = 0
  Multiplicity = 1
  Basis Set: AUG-CC-PVTZ
    Blend: AUG-CC-PVTZ
  Basis Set: (AUG-CC-PVTZ AUX)
    Blend: AUG-CC-PVTZ-JKFIT

    Orbital Energies [Eh]
    ---------------------

    Doubly Occupied:

       1A    -20.512830     2A    -15.583177     3A    -11.350459
       4A    -11.275021     5A    -11.254648     6A    -11.253829
       7A    -11.250109     8A    -11.242180     9A    -11.238455
      10A    -11.237543    11A    -11.235757    12A    -11.233168
      13A    -11.216103    14A     -1.367723    15A     -1.235491
      16A     -1.163801    17A     -1.084772    18A     -1.043952
      19A     -1.028579    20A     -0.943330    21A     -0.933437
      22A     -0.872223    23A     -0.829258    24A     -0.784257
      25A     -0.769329    26A     -0.694053    27A     -0.682946
      28A     -0.659492    29A     -0.655256    30A     -0.619618
      31A     -0.614113    32A     -0.588696    33A     -0.583871
      34A     -0.569855    35A     -0.566204    36A     -0.553265
      37A     -0.531716    38A     -0.530514    39A     -0.514024
      40A     -0.503554    41A     -0.488433    42A     -0.479579
      43A     -0.473875    44A     -0.417523    45A     -0.386168
      46A     -0.336674    47A     -0.327815

  @DF-RHF Final Energy:  -553.64074157385062

   => Energetics <=

    Nuclear Repulsion Energy =            795.7081955118309224
    One-Electron Energy =               -2331.2645191917872580
    Two-Electron Energy =                 981.9155821061056031
    Total Energy =                       -553.6407415738506188
  Basis Set: (AUG-CC-PVTZ AUX)
    Blend: AUG-CC-PVTZ-RI
    Molecular point group: c1

    Geometry (in Angstrom), charge = 0, multiplicity = 1:

       Center              X                  Y                   Z               Mass
    ------------   -----------------  -----------------  -----------------  -----------------
         O            0.326314021674     2.352439009189    -1.027910143225    15.994914619570
         N            1.801540021674     1.230713009189     0.300539856775    14.003074004430
         C            1.541959021674    -1.350038990811    -0.791109143225    12.000000000000
         C            2.521458021674    -1.145334990811     0.375140856775    12.000000000000
         C            0.106892021674    -1.102417990811    -0.395234143225    12.000000000000
         C           -0.346135978326     0.210853009189    -0.152398143225    12.000000000000
         C            2.163250021674     0.116795009189     1.163675856775    12.000000000000
         C           -1.684094978326     0.469687009189     0.202025856775    12.000000000000
         C            0.600697021674     1.361401009189    -0.343113143225    12.000000000000
         C           -0.792502978326    -2.164054990811    -0.254121143225    12.000000000000
         C           -2.550376978326    -0.620523990811     0.342255856775    12.000000000000
         C           -2.116213978326    -1.926396990811     0.112013856775    12.000000000000
         C           -2.187366978326     1.871982009189     0.433482856775    12.000000000000
         H            1.643781021674    -2.366769990811    -1.186967143225     1.007825032230
         H            1.815497021674    -0.668997990811    -1.604701143225     1.007825032230
         H            2.491723021674    -2.004685990811     1.056780856775     1.007825032230
         H            3.542877021674    -1.076427990811    -0.018074143225     1.007825032230
         H            1.320314021674    -0.092896990811     1.829160856775     1.007825032230
         H            2.997745021674     0.437530009189     1.794348856775     1.007825032230
         H            2.456308021674     1.988313009189     0.137583856775     1.007825032230
         H           -0.453842978326    -3.180836990811    -0.447056143225     1.007825032230
         H           -3.585657978326    -0.440204990811     0.626320856775     1.007825032230
         H           -2.841662878326    -2.795497690811     0.225766756775     1.007825032230
         H           -1.540255978326     2.423041009189     1.122136856775     1.007825032230
         H           -2.207695978326     2.436806009189    -0.500872143225     1.007825032230
         H           -3.195484978326     1.843764009189     0.856544856775     1.007825032230

  Basis Set: AUG-CC-PVTZ
    Blend: AUG-CC-PVTZ
  Basis Set: (AUG-CC-PVTZ AUX)
    Blend: AUG-CC-PVTZ-JKFIT
	 Reference Energy          =    -553.6407415738506188 [Eh]
	 Singles Energy            =      -0.0000000000000000 [Eh]
	 Same-Spin Energy          =      -0.6042888894604548 [Eh]
	 Opposite-Spin Energy      =      -1.9035546912426824 [Eh]
	 Correlation Energy        =      -2.5078435807031374 [Eh]
	 Total Energy              =    -556.1485851545537571 [Eh]

	 ================> DF-SCS-MP2 Energies <==================
	-----------------------------------------------------------
	 SCS Same-Spin Scale       =       0.3333333333333333 [-]
	 SCS Opposite-Spin Scale   =       1.2000000000000000 [-]
	 SCS Same-Spin Energy      =      -0.2014296298201516 [Eh]
	 SCS Opposite-Spin Energy  =      -2.2842656294912187 [Eh]
	 SCS Correlation Energy    =      -2.4856952593113704 [Eh]
	 SCS Total Energy          =    -556.1264368331619607 [Eh]
	-----------------------------------------------------------

  Dipole Moment: [D]
     X:     1.7447      Y:    -2.5202      Z:     2.2032     Total:     3.7748

*** Psi4 exiting successfully. Buy a developer a beer!
