                               Psi4 1.4a3.dev225

  ==> Input File <==

--------------------------------------------------------------------------
#psi4
#
memory 32 gb

molecule  {
0 1
  O        0.3130990     2.3704440    -1.0483590
  N        1.7883250     1.2487180     0.2800910
  C        1.5287440    -1.3320340    -0.8115580
  C        2.5082430    -1.1273300     0.3546920
  C        0.0936770    -1.0844130    -0.4156830
  C       -0.3593510     0.2288580    -0.1728470
  C        2.1500350     0.1348000     1.1432270
  C       -1.6973100     0.4876920     0.1815770
  C        0.5874820     1.3794060    -0.3635620
  C       -0.8057180    -2.1460500    -0.2745700
  C       -2.5635920    -0.6025190     0.3218070
  C       -2.1294290    -1.9083920     0.0915650
  C       -2.2005820     1.8899870     0.4130340
  H        1.6305660    -2.3487650    -1.2074160
  H        1.8022820    -0.6509930    -1.6251500
  H        2.4785080    -1.9866810     1.0363320
  H        3.5296620    -1.0584230    -0.0385230
  H        1.2965028    -0.0795937     1.7935348
  H        2.9845300     0.4555350     1.7739000
  H        2.4430930     2.0063180     0.1171350
  H       -0.4670580    -3.1628320    -0.4675050
  H       -3.5988730    -0.4222000     0.6058720
  H       -2.8229980    -2.7393000     0.2003190
  H       -1.5534710     2.4410460     1.1016880
  H       -2.2209110     2.4548110    -0.5213210
  H       -3.2087000     1.8617690     0.8360960
units angstrom
no_reorient  #important for SAPT in psi4, default
symmetry c1  #important for SAPT in psi4, default
}

set PROPERTIES_ORIGIN ["COM"]
properties('MP2/aug-cc-pvtz', properties = ['dipole'])
--------------------------------------------------------------------------

    Molecular point group: c1
  Charge       = 0
  Multiplicity = 1
  Basis Set: AUG-CC-PVTZ
    Blend: AUG-CC-PVTZ
  Basis Set: (AUG-CC-PVTZ AUX)
    Blend: AUG-CC-PVTZ-JKFIT

    Orbital Energies [Eh]
    ---------------------

    Doubly Occupied:

       1A    -20.512660     2A    -15.582939     3A    -11.350316
       4A    -11.274901     5A    -11.254369     6A    -11.253551
       7A    -11.244468     8A    -11.242041     9A    -11.238263
      10A    -11.237276    11A    -11.235334    12A    -11.232749
      13A    -11.215926    14A     -1.367572    15A     -1.235421
      16A     -1.163756    17A     -1.084669    18A     -1.044795
      19A     -1.028725    20A     -0.943173    21A     -0.933207
      22A     -0.873618    23A     -0.830112    24A     -0.784951
      25A     -0.769883    26A     -0.694205    27A     -0.682314
      28A     -0.660201    29A     -0.658828    30A     -0.619305
      31A     -0.615498    32A     -0.591146    33A     -0.583999
      34A     -0.570178    35A     -0.566187    36A     -0.553148
      37A     -0.531657    38A     -0.530657    39A     -0.513625
      40A     -0.505498    41A     -0.489117    42A     -0.479278
      43A     -0.473843    44A     -0.417462    45A     -0.385744
      46A     -0.336496    47A     -0.327573

  @DF-RHF Final Energy:  -553.64311813996221

   => Energetics <=

    Nuclear Repulsion Energy =            796.0330894171504497
    One-Electron Energy =               -2331.9111523786241378
    Two-Electron Energy =                 982.2349448215114762
    Total Energy =                       -553.6431181399622119
  Basis Set: (AUG-CC-PVTZ AUX)
    Blend: AUG-CC-PVTZ-RI
    Molecular point group: c1

    Geometry (in Angstrom), charge = 0, multiplicity = 1:

       Center              X                  Y                   Z               Mass
    ------------   -----------------  -----------------  -----------------  -----------------
         O            0.326191518643     2.352246244350    -1.027794015231    15.994914619570
         N            1.801417518643     1.230520244350     0.300655984769    14.003074004430
         C            1.541836518643    -1.350231755650    -0.790993015231    12.000000000000
         C            2.521335518643    -1.145527755650     0.375256984769    12.000000000000
         C            0.106769518643    -1.102610755650    -0.395118015231    12.000000000000
         C           -0.346258481357     0.210660244350    -0.152282015231    12.000000000000
         C            2.163127518643     0.116602244350     1.163791984769    12.000000000000
         C           -1.684217481357     0.469494244350     0.202141984769    12.000000000000
         C            0.600574518643     1.361208244350    -0.342997015231    12.000000000000
         C           -0.792625481357    -2.164247755650    -0.254005015231    12.000000000000
         C           -2.550499481357    -0.620716755650     0.342371984769    12.000000000000
         C           -2.116336481357    -1.926589755650     0.112129984769    12.000000000000
         C           -2.187489481357     1.871789244350     0.433598984769    12.000000000000
         H            1.643658518643    -2.366962755650    -1.186851015231     1.007825032230
         H            1.815374518643    -0.669190755650    -1.604585015231     1.007825032230
         H            2.491600518643    -2.004878755650     1.056896984769     1.007825032230
         H            3.542754518643    -1.076620755650    -0.017958015231     1.007825032230
         H            1.309595318643    -0.097791455650     1.814099784769     1.007825032230
         H            2.997622518643     0.437337244350     1.794464984769     1.007825032230
         H            2.456185518643     1.988120244350     0.137699984769     1.007825032230
         H           -0.453965481357    -3.181029755650    -0.446940015231     1.007825032230
         H           -3.585780481357    -0.440397755650     0.626436984769     1.007825032230
         H           -2.809905481357    -2.757497755650     0.220883984769     1.007825032230
         H           -1.540378481357     2.422848244350     1.122252984769     1.007825032230
         H           -2.207818481357     2.436613244350    -0.500756015231     1.007825032230
         H           -3.195607481357     1.843571244350     0.856660984769     1.007825032230

  Basis Set: AUG-CC-PVTZ
    Blend: AUG-CC-PVTZ
  Basis Set: (AUG-CC-PVTZ AUX)
    Blend: AUG-CC-PVTZ-JKFIT
	 Reference Energy          =    -553.6431181399622119 [Eh]
	 Singles Energy            =      -0.0000000000000000 [Eh]
	 Same-Spin Energy          =      -0.6042248772864137 [Eh]
	 Opposite-Spin Energy      =      -1.9031393219289410 [Eh]
	 Correlation Energy        =      -2.5073641992153548 [Eh]
	 Total Energy              =    -556.1504823391775290 [Eh]

	 ================> DF-SCS-MP2 Energies <==================
	-----------------------------------------------------------
	 SCS Same-Spin Scale       =       0.3333333333333333 [-]
	 SCS Opposite-Spin Scale   =       1.2000000000000000 [-]
	 SCS Same-Spin Energy      =      -0.2014082924288046 [Eh]
	 SCS Opposite-Spin Energy  =      -2.2837671863147291 [Eh]
	 SCS Correlation Energy    =      -2.4851754787435336 [Eh]
	 SCS Total Energy          =    -556.1282936187056976 [Eh]
	-----------------------------------------------------------

  Dipole Moment: [D]
     X:     1.7239      Y:    -2.5418      Z:     2.1987     Total:     3.7771

*** Psi4 exiting successfully. Buy a developer a beer!
