                               Psi4 1.4a3.dev225

  ==> Input File <==

--------------------------------------------------------------------------
#psi4
#
memory 32 gb

molecule  {
0 1
  O        0.3130990     2.3704440    -1.0483590
  N        1.7883250     1.2487180     0.2800910
  C        1.5287440    -1.3320340    -0.8115580
  C        2.5082430    -1.1273300     0.3546920
  C        0.0936770    -1.0844130    -0.4156830
  C       -0.3593510     0.2288580    -0.1728470
  C        2.1500350     0.1348000     1.1432270
  C       -1.6973100     0.4876920     0.1815770
  C        0.5874820     1.3794060    -0.3635620
  C       -0.8057180    -2.1460500    -0.2745700
  C       -2.5635920    -0.6025190     0.3218070
  C       -2.1447317    -2.0042804     0.0855560
  C       -2.2005820     1.8899870     0.4130340
  H        1.6305660    -2.3487650    -1.2074160
  H        1.8022820    -0.6509930    -1.6251500
  H        2.4785080    -1.9866810     1.0363320
  H        3.5296620    -1.0584230    -0.0385230
  H        1.3070990    -0.0748920     1.8087120
  H        2.9845300     0.4555350     1.7739000
  H        2.4430930     2.0063180     0.1171350
  H       -0.4670580    -3.1628320    -0.4675050
  H       -3.5988730    -0.4222000     0.6058720
  H       -2.8229980    -2.7393000     0.2003190
  H       -1.5534710     2.4410460     1.1016880
  H       -2.2209110     2.4548110    -0.5213210
  H       -3.2087000     1.8617690     0.8360960
units angstrom
no_reorient  #important for SAPT in psi4, default
symmetry c1  #important for SAPT in psi4, default
}

set PROPERTIES_ORIGIN ["COM"]
properties('MP2/aug-cc-pvtz', properties = ['dipole'])
--------------------------------------------------------------------------

    Molecular point group: c1
  Charge       = 0
  Multiplicity = 1
  Basis Set: AUG-CC-PVTZ
    Blend: AUG-CC-PVTZ
  Basis Set: (AUG-CC-PVTZ AUX)
    Blend: AUG-CC-PVTZ-JKFIT

    Orbital Energies [Eh]
    ---------------------

    Doubly Occupied:

       1A    -20.513406     2A    -15.583602     3A    -11.350987
       4A    -11.275128     5A    -11.255270     6A    -11.252251
       7A    -11.247404     8A    -11.244395     9A    -11.241053
      10A    -11.238911    11A    -11.237961    12A    -11.237662
      13A    -11.215476    14A     -1.368239    15A     -1.235805
      16A     -1.158551    17A     -1.082946    18A     -1.044651
      19A     -1.025385    20A     -0.943084    21A     -0.927803
      22A     -0.879614    23A     -0.830299    24A     -0.787726
      25A     -0.770668    26A     -0.692127    27A     -0.684388
      28A     -0.667085    29A     -0.656674    30A     -0.623054
      31A     -0.617564    32A     -0.594074    33A     -0.582428
      34A     -0.570073    35A     -0.563719    36A     -0.552638
      37A     -0.531472    38A     -0.530834    39A     -0.512940
      40A     -0.506078    41A     -0.489885    42A     -0.474425
      43A     -0.469900    44A     -0.418256    45A     -0.386339
      46A     -0.335337    47A     -0.323847

  @DF-RHF Final Energy:  -553.62942989014516

   => Energetics <=

    Nuclear Repulsion Energy =            794.2122543405887427
    One-Electron Energy =               -2328.2205437126676770
    Two-Electron Energy =                 980.3788594819337732
    Total Energy =                       -553.6294298901451612
  Basis Set: (AUG-CC-PVTZ AUX)
    Blend: AUG-CC-PVTZ-RI
    Molecular point group: c1

    Geometry (in Angstrom), charge = 0, multiplicity = 1:

       Center              X                  Y                   Z               Mass
    ------------   -----------------  -----------------  -----------------  -----------------
         O            0.327179260315     2.358790642868    -1.027469559887    15.994914619570
         N            1.802405260315     1.237064642868     0.300980440113    14.003074004430
         C            1.542824260315    -1.343687357132    -0.790668559887    12.000000000000
         C            2.522323260315    -1.138983357132     0.375581440113    12.000000000000
         C            0.107757260315    -1.096066357132    -0.394793559887    12.000000000000
         C           -0.345270739685     0.217204642868    -0.151957559887    12.000000000000
         C            2.164115260315     0.123146642868     1.164116440113    12.000000000000
         C           -1.683229739685     0.476038642868     0.202466440113    12.000000000000
         C            0.601562260315     1.367752642868    -0.342672559887    12.000000000000
         C           -0.791637739685    -2.157703357132    -0.253680559887    12.000000000000
         C           -2.549511739685    -0.614172357132     0.342696440113    12.000000000000
         C           -2.130651439685    -2.015933757132     0.106445440113    12.000000000000
         C           -2.186501739685     1.878333642868     0.433923440113    12.000000000000
         H            1.644646260315    -2.360418357132    -1.186526559887     1.007825032230
         H            1.816362260315    -0.662646357132    -1.604260559887     1.007825032230
         H            2.492588260315    -1.998334357132     1.057221440113     1.007825032230
         H            3.543742260315    -1.070076357132    -0.017633559887     1.007825032230
         H            1.321179260315    -0.086545357132     1.829601440113     1.007825032230
         H            2.998610260315     0.443881642868     1.794789440113     1.007825032230
         H            2.457173260315     1.994664642868     0.138024440113     1.007825032230
         H           -0.452977739685    -3.174485357132    -0.446615559887     1.007825032230
         H           -3.584792739685    -0.433853357132     0.626761440113     1.007825032230
         H           -2.808917739685    -2.750953357132     0.221208440113     1.007825032230
         H           -1.539390739685     2.429392642868     1.122577440113     1.007825032230
         H           -2.206830739685     2.443157642868    -0.500431559887     1.007825032230
         H           -3.194619739685     1.850115642868     0.856985440113     1.007825032230

  Basis Set: AUG-CC-PVTZ
    Blend: AUG-CC-PVTZ
  Basis Set: (AUG-CC-PVTZ AUX)
    Blend: AUG-CC-PVTZ-JKFIT
	 Reference Energy          =    -553.6294298901451612 [Eh]
	 Singles Energy            =      -0.0000000000000000 [Eh]
	 Same-Spin Energy          =      -0.6044389112579438 [Eh]
	 Opposite-Spin Energy      =      -1.9046505060978745 [Eh]
	 Correlation Energy        =      -2.5090894173558183 [Eh]
	 Total Energy              =    -556.1385193075009283 [Eh]

	 ================> DF-SCS-MP2 Energies <==================
	-----------------------------------------------------------
	 SCS Same-Spin Scale       =       0.3333333333333333 [-]
	 SCS Opposite-Spin Scale   =       1.2000000000000000 [-]
	 SCS Same-Spin Energy      =      -0.2014796370859813 [Eh]
	 SCS Opposite-Spin Energy  =      -2.2855806073174492 [Eh]
	 SCS Correlation Energy    =      -2.4870602444034304 [Eh]
	 SCS Total Energy          =    -556.1164901345485987 [Eh]
	-----------------------------------------------------------

  Dipole Moment: [D]
     X:     1.7308      Y:    -2.5396      Z:     2.2090     Total:     3.7848

*** Psi4 exiting successfully. Buy a developer a beer!
