                               Psi4 1.4a3.dev225

  ==> Input File <==

--------------------------------------------------------------------------
#psi4
#
memory 32 gb

molecule  {
0 1
  O        0.3519271     2.3867137    -1.0390132
  N        1.7883250     1.2487180     0.2800910
  C        1.5287440    -1.3320340    -0.8115580
  C        2.5082430    -1.1273300     0.3546920
  C        0.0936770    -1.0844130    -0.4156830
  C       -0.3593510     0.2288580    -0.1728470
  C        2.1500350     0.1348000     1.1432270
  C       -1.6973100     0.4876920     0.1815770
  C        0.5874820     1.3794060    -0.3635620
  C       -0.8057180    -2.1460500    -0.2745700
  C       -2.5635920    -0.6025190     0.3218070
  C       -2.1294290    -1.9083920     0.0915650
  C       -2.2005820     1.8899870     0.4130340
  H        1.6305660    -2.3487650    -1.2074160
  H        1.8022820    -0.6509930    -1.6251500
  H        2.4785080    -1.9866810     1.0363320
  H        3.5296620    -1.0584230    -0.0385230
  H        1.3070990    -0.0748920     1.8087120
  H        2.9845300     0.4555350     1.7739000
  H        2.4430930     2.0063180     0.1171350
  H       -0.4670580    -3.1628320    -0.4675050
  H       -3.5988730    -0.4222000     0.6058720
  H       -2.8229980    -2.7393000     0.2003190
  H       -1.5534710     2.4410460     1.1016880
  H       -2.2209110     2.4548110    -0.5213210
  H       -3.2087000     1.8617690     0.8360960
units angstrom
no_reorient  #important for SAPT in psi4, default
symmetry c1  #important for SAPT in psi4, default
}

set PROPERTIES_ORIGIN ["COM"]
properties('MP2/aug-cc-pvtz', properties = ['dipole'])
--------------------------------------------------------------------------

    Molecular point group: c1
  Charge       = 0
  Multiplicity = 1
  Basis Set: AUG-CC-PVTZ
    Blend: AUG-CC-PVTZ
  Basis Set: (AUG-CC-PVTZ AUX)
    Blend: AUG-CC-PVTZ-JKFIT

    Orbital Energies [Eh]
    ---------------------

    Doubly Occupied:

       1A    -20.511797     2A    -15.580651     3A    -11.349926
       4A    -11.273640     5A    -11.255489     6A    -11.254650
       7A    -11.245429     8A    -11.243470     9A    -11.238354
      10A    -11.237057    11A    -11.236035    12A    -11.233461
      13A    -11.216917    14A     -1.367675    15A     -1.232916
      16A     -1.164560    17A     -1.084740    18A     -1.045712
      19A     -1.028895    20A     -0.943401    21A     -0.933452
      22A     -0.874077    23A     -0.830142    24A     -0.785096
      25A     -0.769982    26A     -0.693668    27A     -0.682494
      28A     -0.660244    29A     -0.658750    30A     -0.619624
      31A     -0.614769    32A     -0.591177    33A     -0.583708
      34A     -0.571014    35A     -0.566496    36A     -0.553216
      37A     -0.532076    38A     -0.530570    39A     -0.514042
      40A     -0.505531    41A     -0.488866    42A     -0.479915
      43A     -0.474231    44A     -0.417450    45A     -0.384069
      46A     -0.337815    47A     -0.328318

  @DF-RHF Final Energy:  -553.64306440208634

   => Energetics <=

    Nuclear Repulsion Energy =            795.7111962655135358
    One-Electron Energy =               -2331.2573874732674994
    Two-Electron Energy =                 981.9031268056676254
    Total Energy =                       -553.6430644020863383
  Basis Set: (AUG-CC-PVTZ AUX)
    Blend: AUG-CC-PVTZ-RI
    Molecular point group: c1

    Geometry (in Angstrom), charge = 0, multiplicity = 1:

       Center              X                  Y                   Z               Mass
    ------------   -----------------  -----------------  -----------------  -----------------
         O            0.361411781455     2.367002686863    -1.019389286072    15.994914619570
         N            1.797809681455     1.229006986863     0.299714913928    14.003074004430
         C            1.538228681455    -1.351745013137    -0.791934086072    12.000000000000
         C            2.517727681455    -1.147041013137     0.374315913928    12.000000000000
         C            0.103161681455    -1.104124013137    -0.396059086072    12.000000000000
         C           -0.349866318545     0.209146986863    -0.153223086072    12.000000000000
         C            2.159519681455     0.115088986863     1.162850913928    12.000000000000
         C           -1.687825318545     0.467980986863     0.201200913928    12.000000000000
         C            0.596966681455     1.359694986863    -0.343938086072    12.000000000000
         C           -0.796233318545    -2.165761013137    -0.254946086072    12.000000000000
         C           -2.554107318545    -0.622230013137     0.341430913928    12.000000000000
         C           -2.119944318545    -1.928103013137     0.111188913928    12.000000000000
         C           -2.191097318545     1.870275986863     0.432657913928    12.000000000000
         H            1.640050681455    -2.368476013137    -1.187792086072     1.007825032230
         H            1.811766681455    -0.670704013137    -1.605526086072     1.007825032230
         H            2.487992681455    -2.006392013137     1.055955913928     1.007825032230
         H            3.539146681455    -1.078134013137    -0.018899086072     1.007825032230
         H            1.316583681455    -0.094603013137     1.828335913928     1.007825032230
         H            2.994014681455     0.435823986863     1.793523913928     1.007825032230
         H            2.452577681455     1.986606986863     0.136758913928     1.007825032230
         H           -0.457573318545    -3.182543013137    -0.447881086072     1.007825032230
         H           -3.589388318545    -0.441911013137     0.625495913928     1.007825032230
         H           -2.813513318545    -2.759011013137     0.219942913928     1.007825032230
         H           -1.543986318545     2.421334986863     1.121311913928     1.007825032230
         H           -2.211426318545     2.435099986863    -0.501697086072     1.007825032230
         H           -3.199215318545     1.842057986863     0.855719913928     1.007825032230

  Basis Set: AUG-CC-PVTZ
    Blend: AUG-CC-PVTZ
  Basis Set: (AUG-CC-PVTZ AUX)
    Blend: AUG-CC-PVTZ-JKFIT
	 Reference Energy          =    -553.6430644020863383 [Eh]
	 Singles Energy            =      -0.0000000000000000 [Eh]
	 Same-Spin Energy          =      -0.6041092508674460 [Eh]
	 Opposite-Spin Energy      =      -1.9029496246350106 [Eh]
	 Correlation Energy        =      -2.5070588755024565 [Eh]
	 Total Energy              =    -556.1501232775888184 [Eh]

	 ================> DF-SCS-MP2 Energies <==================
	-----------------------------------------------------------
	 SCS Same-Spin Scale       =       0.3333333333333333 [-]
	 SCS Opposite-Spin Scale   =       1.2000000000000000 [-]
	 SCS Same-Spin Energy      =      -0.2013697502891487 [Eh]
	 SCS Opposite-Spin Energy  =      -2.2835395495620125 [Eh]
	 SCS Correlation Energy    =      -2.4849092998511613 [Eh]
	 SCS Total Energy          =    -556.1279737019375489 [Eh]
	-----------------------------------------------------------

  Dipole Moment: [D]
     X:     1.6013      Y:    -2.6062      Z:     2.1898     Total:     3.7619

*** Psi4 exiting successfully. Buy a developer a beer!
