                               Psi4 1.4a3.dev225

  ==> Input File <==

--------------------------------------------------------------------------
#psi4
#
memory 32 gb

molecule  {
0 1
  O        0.3130990     2.3704440    -1.0483590
  N        1.7883250     1.2487180     0.2800910
  C        1.5287440    -1.3320340    -0.8115580
  C        2.5082430    -1.1273300     0.3546920
  C        0.0936770    -1.0844130    -0.4156830
  C       -0.3593510     0.2288580    -0.1728470
  C        2.1500350     0.1348000     1.1432270
  C       -1.7448194     0.4968829     0.1941622
  C        0.5874820     1.3794060    -0.3635620
  C       -0.8057180    -2.1460500    -0.2745700
  C       -2.5635920    -0.6025190     0.3218070
  C       -2.1294290    -1.9083920     0.0915650
  C       -2.2005820     1.8899870     0.4130340
  H        1.6305660    -2.3487650    -1.2074160
  H        1.8022820    -0.6509930    -1.6251500
  H        2.4785080    -1.9866810     1.0363320
  H        3.5296620    -1.0584230    -0.0385230
  H        1.3070990    -0.0748920     1.8087120
  H        2.9845300     0.4555350     1.7739000
  H        2.4430930     2.0063180     0.1171350
  H       -0.4670580    -3.1628320    -0.4675050
  H       -3.5988730    -0.4222000     0.6058720
  H       -2.8229980    -2.7393000     0.2003190
  H       -1.5534710     2.4410460     1.1016880
  H       -2.2209110     2.4548110    -0.5213210
  H       -3.2087000     1.8617690     0.8360960
units angstrom
no_reorient  #important for SAPT in psi4, default
symmetry c1  #important for SAPT in psi4, default
}

set PROPERTIES_ORIGIN ["COM"]
properties('MP2/aug-cc-pvtz', properties = ['dipole'])
--------------------------------------------------------------------------

    Molecular point group: c1
  Charge       = 0
  Multiplicity = 1
  Basis Set: AUG-CC-PVTZ
    Blend: AUG-CC-PVTZ
  Basis Set: (AUG-CC-PVTZ AUX)
    Blend: AUG-CC-PVTZ-JKFIT

    Orbital Energies [Eh]
    ---------------------

    Doubly Occupied:

       1A    -20.512303     2A    -15.582801     3A    -11.350070
       4A    -11.274543     5A    -11.255032     6A    -11.254319
       7A    -11.245773     8A    -11.245166     9A    -11.238206
      10A    -11.237303    11A    -11.235804    12A    -11.230346
      13A    -11.215277    14A     -1.367150    15A     -1.234958
      16A     -1.161775    17A     -1.086065    18A     -1.044840
      19A     -1.029090    20A     -0.943063    21A     -0.935311
      22A     -0.875043    23A     -0.828439    24A     -0.779854
      25A     -0.771439    26A     -0.692885    27A     -0.682706
      28A     -0.660976    29A     -0.658780    30A     -0.619810
      31A     -0.614753    32A     -0.592398    33A     -0.582903
      34A     -0.569885    35A     -0.568202    36A     -0.553852
      37A     -0.531403    38A     -0.530357    39A     -0.515164
      40A     -0.508021    41A     -0.488808    42A     -0.478356
      43A     -0.470245    44A     -0.417410    45A     -0.385785
      46A     -0.334960    47A     -0.326795

  @DF-RHF Final Energy:  -553.63954492583412

   => Energetics <=

    Nuclear Repulsion Energy =            795.3319347095858802
    One-Electron Energy =               -2330.5061176784120107
    Two-Electron Energy =                 981.5346380429921282
    Total Energy =                       -553.6395449258341159
  Basis Set: (AUG-CC-PVTZ AUX)
    Blend: AUG-CC-PVTZ-RI
    Molecular point group: c1

    Geometry (in Angstrom), charge = 0, multiplicity = 1:

       Center              X                  Y                   Z               Mass
    ------------   -----------------  -----------------  -----------------  -----------------
         O            0.329386462092     2.351589308435    -1.028743864652    15.994914619570
         N            1.804612462092     1.229863308435     0.299706135348    14.003074004430
         C            1.545031462092    -1.350888691565    -0.791942864652    12.000000000000
         C            2.524530462092    -1.146184691565     0.374307135348    12.000000000000
         C            0.109964462092    -1.103267691565    -0.396067864652    12.000000000000
         C           -0.343063537908     0.210003308435    -0.153231864652    12.000000000000
         C            2.166322462092     0.115945308435     1.162842135348    12.000000000000
         C           -1.728531937908     0.478028208435     0.213777335348    12.000000000000
         C            0.603769462092     1.360551308435    -0.343946864652    12.000000000000
         C           -0.789430537908    -2.164904691565    -0.254954864652    12.000000000000
         C           -2.547304537908    -0.621373691565     0.341422135348    12.000000000000
         C           -2.113141537908    -1.927246691565     0.111180135348    12.000000000000
         C           -2.184294537908     1.871132308435     0.432649135348    12.000000000000
         H            1.646853462092    -2.367619691565    -1.187800864652     1.007825032230
         H            1.818569462092    -0.669847691565    -1.605534864652     1.007825032230
         H            2.494795462092    -2.005535691565     1.055947135348     1.007825032230
         H            3.545949462092    -1.077277691565    -0.018907864652     1.007825032230
         H            1.323386462092    -0.093746691565     1.828327135348     1.007825032230
         H            3.000817462092     0.436680308435     1.793515135348     1.007825032230
         H            2.459380462092     1.987463308435     0.136750135348     1.007825032230
         H           -0.450770537908    -3.181686691565    -0.447889864652     1.007825032230
         H           -3.582585537908    -0.441054691565     0.625487135348     1.007825032230
         H           -2.806710537908    -2.758154691565     0.219934135348     1.007825032230
         H           -1.537183537908     2.422191308435     1.121303135348     1.007825032230
         H           -2.204623537908     2.435956308435    -0.501705864652     1.007825032230
         H           -3.192412537908     1.842914308435     0.855711135348     1.007825032230

  Basis Set: AUG-CC-PVTZ
    Blend: AUG-CC-PVTZ
  Basis Set: (AUG-CC-PVTZ AUX)
    Blend: AUG-CC-PVTZ-JKFIT
	 Reference Energy          =    -553.6395449258341159 [Eh]
	 Singles Energy            =      -0.0000000000000000 [Eh]
	 Same-Spin Energy          =      -0.6044860483952830 [Eh]
	 Opposite-Spin Energy      =      -1.9036106662018748 [Eh]
	 Correlation Energy        =      -2.5080967145971576 [Eh]
	 Total Energy              =    -556.1476416404312886 [Eh]

	 ================> DF-SCS-MP2 Energies <==================
	-----------------------------------------------------------
	 SCS Same-Spin Scale       =       0.3333333333333333 [-]
	 SCS Opposite-Spin Scale   =       1.2000000000000000 [-]
	 SCS Same-Spin Energy      =      -0.2014953494650943 [Eh]
	 SCS Opposite-Spin Energy  =      -2.2843327994422498 [Eh]
	 SCS Correlation Energy    =      -2.4858281489073439 [Eh]
	 SCS Total Energy          =    -556.1253730747414465 [Eh]
	-----------------------------------------------------------

  Dipole Moment: [D]
     X:     1.7238      Y:    -2.5095      Z:     2.2078     Total:     3.7608

*** Psi4 exiting successfully. Buy a developer a beer!
