                               Psi4 1.4a3.dev225

  ==> Input File <==

--------------------------------------------------------------------------
#psi4
#
memory 32 gb

molecule  {
0 1
  O        0.3130990     2.3704440    -1.0483590
  N        1.7883250     1.2487180     0.2800910
  C        1.5287440    -1.3320340    -0.8115580
  C        2.5252407    -1.1777666     0.3480355
  C        0.0936770    -1.0844130    -0.4156830
  C       -0.3593510     0.2288580    -0.1728470
  C        2.1500350     0.1348000     1.1432270
  C       -1.6973100     0.4876920     0.1815770
  C        0.5874820     1.3794060    -0.3635620
  C       -0.8057180    -2.1460500    -0.2745700
  C       -2.5635920    -0.6025190     0.3218070
  C       -2.1294290    -1.9083920     0.0915650
  C       -2.2005820     1.8899870     0.4130340
  H        1.6305660    -2.3487650    -1.2074160
  H        1.8022820    -0.6509930    -1.6251500
  H        2.4785080    -1.9866810     1.0363320
  H        3.5296620    -1.0584230    -0.0385230
  H        1.3070990    -0.0748920     1.8087120
  H        2.9845300     0.4555350     1.7739000
  H        2.4430930     2.0063180     0.1171350
  H       -0.4670580    -3.1628320    -0.4675050
  H       -3.5988730    -0.4222000     0.6058720
  H       -2.8229980    -2.7393000     0.2003190
  H       -1.5534710     2.4410460     1.1016880
  H       -2.2209110     2.4548110    -0.5213210
  H       -3.2087000     1.8617690     0.8360960
units angstrom
no_reorient  #important for SAPT in psi4, default
symmetry c1  #important for SAPT in psi4, default
}

set PROPERTIES_ORIGIN ["COM"]
properties('MP2/aug-cc-pvtz', properties = ['dipole'])
--------------------------------------------------------------------------

    Molecular point group: c1
  Charge       = 0
  Multiplicity = 1
  Basis Set: AUG-CC-PVTZ
    Blend: AUG-CC-PVTZ
  Basis Set: (AUG-CC-PVTZ AUX)
    Blend: AUG-CC-PVTZ-JKFIT

    Orbital Energies [Eh]
    ---------------------

    Doubly Occupied:

       1A    -20.512718     2A    -15.583580     3A    -11.350238
       4A    -11.276012     5A    -11.254440     6A    -11.253433
       7A    -11.244392     8A    -11.242058     9A    -11.237960
      10A    -11.235847    11A    -11.235374    12A    -11.232788
      13A    -11.215872    14A     -1.367533    15A     -1.233721
      16A     -1.163659    17A     -1.083288    18A     -1.044577
      19A     -1.025814    20A     -0.941302    21A     -0.932360
      22A     -0.874728    23A     -0.832773    24A     -0.785086
      25A     -0.769895    26A     -0.693467    27A     -0.681498
      28A     -0.660448    29A     -0.658412    30A     -0.616648
      31A     -0.615705    32A     -0.589711    33A     -0.584322
      34A     -0.570156    35A     -0.565855    36A     -0.552850
      37A     -0.535926    38A     -0.531461    39A     -0.513916
      40A     -0.504640    41A     -0.487032    42A     -0.479667
      43A     -0.474790    44A     -0.417531    45A     -0.383218
      46A     -0.336520    47A     -0.327578

  @DF-RHF Final Energy:  -553.64081300196051

   => Energetics <=

    Nuclear Repulsion Energy =            795.1253884876209668
    One-Electron Energy =               -2330.1108037521262304
    Two-Electron Energy =                 981.3446022625447540
    Total Energy =                       -553.6408130019605096
  Basis Set: (AUG-CC-PVTZ AUX)
    Blend: AUG-CC-PVTZ-RI
    Molecular point group: c1

    Geometry (in Angstrom), charge = 0, multiplicity = 1:

       Center              X                  Y                   Z               Mass
    ------------   -----------------  -----------------  -----------------  -----------------
         O            0.324965637054     2.355675722875    -1.027425185171    15.994914619570
         N            1.800191637054     1.233949722875     0.301024814829    14.003074004430
         C            1.540610637054    -1.346802277125    -0.790624185171    12.000000000000
         C            2.537107337054    -1.192534877125     0.368969314829    12.000000000000
         C            0.105543637054    -1.099181277125    -0.394749185171    12.000000000000
         C           -0.347484362946     0.214089722875    -0.151913185171    12.000000000000
         C            2.161901637054     0.120031722875     1.164160814829    12.000000000000
         C           -1.685443362946     0.472923722875     0.202510814829    12.000000000000
         C            0.599348637054     1.364637722875    -0.342628185171    12.000000000000
         C           -0.793851362946    -2.160818277125    -0.253636185171    12.000000000000
         C           -2.551725362946    -0.617287277125     0.342740814829    12.000000000000
         C           -2.117562362946    -1.923160277125     0.112498814829    12.000000000000
         C           -2.188715362946     1.875218722875     0.433967814829    12.000000000000
         H            1.642432637054    -2.363533277125    -1.186482185171     1.007825032230
         H            1.814148637054    -0.665761277125    -1.604216185171     1.007825032230
         H            2.490374637054    -2.001449277125     1.057265814829     1.007825032230
         H            3.541528637054    -1.073191277125    -0.017589185171     1.007825032230
         H            1.318965637054    -0.089660277125     1.829645814829     1.007825032230
         H            2.996396637054     0.440766722875     1.794833814829     1.007825032230
         H            2.454959637054     1.991549722875     0.138068814829     1.007825032230
         H           -0.455191362946    -3.177600277125    -0.446571185171     1.007825032230
         H           -3.587006362946    -0.436968277125     0.626805814829     1.007825032230
         H           -2.811131362946    -2.754068277125     0.221252814829     1.007825032230
         H           -1.541604362946     2.426277722875     1.122621814829     1.007825032230
         H           -2.209044362946     2.440042722875    -0.500387185171     1.007825032230
         H           -3.196833362946     1.847000722875     0.857029814829     1.007825032230

  Basis Set: AUG-CC-PVTZ
    Blend: AUG-CC-PVTZ
  Basis Set: (AUG-CC-PVTZ AUX)
    Blend: AUG-CC-PVTZ-JKFIT
	 Reference Energy          =    -553.6408130019605096 [Eh]
	 Singles Energy            =      -0.0000000000000000 [Eh]
	 Same-Spin Energy          =      -0.6040400096035228 [Eh]
	 Opposite-Spin Energy      =      -1.9030803839975605 [Eh]
	 Correlation Energy        =      -2.5071203936010833 [Eh]
	 Total Energy              =    -556.1479333955616084 [Eh]

	 ================> DF-SCS-MP2 Energies <==================
	-----------------------------------------------------------
	 SCS Same-Spin Scale       =       0.3333333333333333 [-]
	 SCS Opposite-Spin Scale   =       1.2000000000000000 [-]
	 SCS Same-Spin Energy      =      -0.2013466698678409 [Eh]
	 SCS Opposite-Spin Energy  =      -2.2836964607970724 [Eh]
	 SCS Correlation Energy    =      -2.4850431306649132 [Eh]
	 SCS Total Energy          =    -556.1258561326254721 [Eh]
	-----------------------------------------------------------

  Dipole Moment: [D]
     X:     1.7228      Y:    -2.5414      Z:     2.2075     Total:     3.7815

*** Psi4 exiting successfully. Buy a developer a beer!
