                               Psi4 1.4a3.dev225

  ==> Input File <==

--------------------------------------------------------------------------
#psi4
#
memory 32 gb

molecule  {
0 1
  O        0.3130990     2.3704440    -1.0483590
  N        1.7883250     1.2487180     0.2800910
  C        1.5287440    -1.3320340    -0.8115580
  C        2.5082430    -1.1273300     0.3546920
  C        0.0936770    -1.0844130    -0.4156830
  C       -0.3593510     0.2288580    -0.1728470
  C        2.2841072     0.2042050     1.1631786
  C       -1.6973100     0.4876920     0.1815770
  C        0.5874820     1.3794060    -0.3635620
  C       -0.8057180    -2.1460500    -0.2745700
  C       -2.5635920    -0.6025190     0.3218070
  C       -2.1294290    -1.9083920     0.0915650
  C       -2.2005820     1.8899870     0.4130340
  H        1.6305660    -2.3487650    -1.2074160
  H        1.8022820    -0.6509930    -1.6251500
  H        2.4785080    -1.9866810     1.0363320
  H        3.5296620    -1.0584230    -0.0385230
  H        1.3070990    -0.0748920     1.8087120
  H        2.9845300     0.4555350     1.7739000
  H        2.4430930     2.0063180     0.1171350
  H       -0.4670580    -3.1628320    -0.4675050
  H       -3.5988730    -0.4222000     0.6058720
  H       -2.8229980    -2.7393000     0.2003190
  H       -1.5534710     2.4410460     1.1016880
  H       -2.2209110     2.4548110    -0.5213210
  H       -3.2087000     1.8617690     0.8360960
units angstrom
no_reorient  #important for SAPT in psi4, default
symmetry c1  #important for SAPT in psi4, default
}

set PROPERTIES_ORIGIN ["COM"]
properties('MP2/aug-cc-pvtz', properties = ['dipole'])
--------------------------------------------------------------------------

    Molecular point group: c1
  Charge       = 0
  Multiplicity = 1
  Basis Set: AUG-CC-PVTZ
    Blend: AUG-CC-PVTZ
  Basis Set: (AUG-CC-PVTZ AUX)
    Blend: AUG-CC-PVTZ-JKFIT

    Orbital Energies [Eh]
    ---------------------

    Doubly Occupied:

       1A    -20.514205     2A    -15.584420     3A    -11.354156
       4A    -11.277119     5A    -11.254421     6A    -11.253343
       7A    -11.244272     8A    -11.242022     9A    -11.240420
      10A    -11.239810    11A    -11.234964    12A    -11.232373
      13A    -11.215736    14A     -1.368645    15A     -1.234335
      16A     -1.163701    17A     -1.081864    18A     -1.044226
      19A     -1.028605    20A     -0.945371    21A     -0.936224
      22A     -0.876647    23A     -0.828331    24A     -0.785891
      25A     -0.767769    26A     -0.703115    27A     -0.687584
      28A     -0.666469    29A     -0.656226    30A     -0.621385
      31A     -0.614555    32A     -0.585735    33A     -0.583268
      34A     -0.571390    35A     -0.562803    36A     -0.551844
      37A     -0.537765    38A     -0.528534    39A     -0.509314
      40A     -0.500350    41A     -0.494251    42A     -0.478408
      43A     -0.467905    44A     -0.419776    45A     -0.378286
      46A     -0.336097    47A     -0.327273

  @DF-RHF Final Energy:  -553.61381918739323

   => Energetics <=

    Nuclear Repulsion Energy =            793.9066855831844123
    One-Electron Energy =               -2327.5786082326217183
    Two-Electron Energy =                 980.0581034620441869
    Total Energy =                       -553.6138191873932328
  Basis Set: (AUG-CC-PVTZ AUX)
    Blend: AUG-CC-PVTZ-RI
    Molecular point group: c1

    Geometry (in Angstrom), charge = 0, multiplicity = 1:

       Center              X                  Y                   Z               Mass
    ------------   -----------------  -----------------  -----------------  -----------------
         O            0.316942243026     2.347462692901    -1.029248701570    15.994914619570
         N            1.792168243026     1.225736692901     0.299201298430    14.003074004430
         C            1.532587243026    -1.355015307099    -0.792447701570    12.000000000000
         C            2.512086243026    -1.150311307099     0.373802298430    12.000000000000
         C            0.097520243026    -1.107394307099    -0.396572701570    12.000000000000
         C           -0.355507756974     0.205876692901    -0.153736701570    12.000000000000
         C            2.287950443026     0.181223692901     1.182288898430    12.000000000000
         C           -1.693466756974     0.464710692901     0.200687298430    12.000000000000
         C            0.591325243026     1.356424692901    -0.344451701570    12.000000000000
         C           -0.801874756974    -2.169031307099    -0.255459701570    12.000000000000
         C           -2.559748756974    -0.625500307099     0.340917298430    12.000000000000
         C           -2.125585756974    -1.931373307099     0.110675298430    12.000000000000
         C           -2.196738756974     1.867005692901     0.432144298430    12.000000000000
         H            1.634409243026    -2.371746307099    -1.188305701570     1.007825032230
         H            1.806125243026    -0.673974307099    -1.606039701570     1.007825032230
         H            2.482351243026    -2.009662307099     1.055442298430     1.007825032230
         H            3.533505243026    -1.081404307099    -0.019412701570     1.007825032230
         H            1.310942243026    -0.097873307099     1.827822298430     1.007825032230
         H            2.988373243026     0.432553692901     1.793010298430     1.007825032230
         H            2.446936243026     1.983336692901     0.136245298430     1.007825032230
         H           -0.463214756974    -3.185813307099    -0.448394701570     1.007825032230
         H           -3.595029756974    -0.445181307099     0.624982298430     1.007825032230
         H           -2.819154756974    -2.762281307099     0.219429298430     1.007825032230
         H           -1.549627756974     2.418064692901     1.120798298430     1.007825032230
         H           -2.217067756974     2.431829692901    -0.502210701570     1.007825032230
         H           -3.204856756974     1.838787692901     0.855206298430     1.007825032230

  Basis Set: AUG-CC-PVTZ
    Blend: AUG-CC-PVTZ
  Basis Set: (AUG-CC-PVTZ AUX)
    Blend: AUG-CC-PVTZ-JKFIT
	 Reference Energy          =    -553.6138191873932328 [Eh]
	 Singles Energy            =      -0.0000000000000000 [Eh]
	 Same-Spin Energy          =      -0.6043429998071783 [Eh]
	 Opposite-Spin Energy      =      -1.9042063060840233 [Eh]
	 Correlation Energy        =      -2.5085493058912016 [Eh]
	 Total Energy              =    -556.1223684932843980 [Eh]

	 ================> DF-SCS-MP2 Energies <==================
	-----------------------------------------------------------
	 SCS Same-Spin Scale       =       0.3333333333333333 [-]
	 SCS Opposite-Spin Scale   =       1.2000000000000000 [-]
	 SCS Same-Spin Energy      =      -0.2014476666023928 [Eh]
	 SCS Opposite-Spin Energy  =      -2.2850475673008277 [Eh]
	 SCS Correlation Energy    =      -2.4864952339032205 [Eh]
	 SCS Total Energy          =    -556.1003144212965026 [Eh]
	-----------------------------------------------------------

  Dipole Moment: [D]
     X:     1.7785      Y:    -2.4736      Z:     2.1588     Total:     3.7340

*** Psi4 exiting successfully. Buy a developer a beer!
