                               Psi4 1.4a3.dev225

  ==> Input File <==

--------------------------------------------------------------------------
#psi4
#
memory 32 gb

molecule  {
0 1
  O        0.3130990     2.3704440    -1.0483590
  N        1.7883250     1.2487180     0.2800910
  C        1.5287440    -1.3320340    -0.8115580
  C        2.5082430    -1.1273300     0.3546920
  C        0.0936770    -1.0844130    -0.4156830
  C       -0.3593510     0.2288580    -0.1728470
  C        2.1500350     0.1348000     1.1432270
  C       -1.6973100     0.4876920     0.1815770
  C        0.5874820     1.3794060    -0.3635620
  C       -0.8057180    -2.1460500    -0.2745700
  C       -2.5635920    -0.6025190     0.3218070
  C       -2.1294290    -1.9083920     0.0915650
  C       -2.2005820     1.8899870     0.4130340
  H        1.6305660    -2.3487650    -1.2074160
  H        1.8022820    -0.6509930    -1.6251500
  H        2.4785080    -1.9866810     1.0363320
  H        3.5296620    -1.0584230    -0.0385230
  H        1.3070990    -0.0748920     1.8087120
  H        2.9845300     0.4555350     1.7739000
  H        2.4430930     2.0063180     0.1171350
  H       -0.4670580    -3.1628320    -0.4675050
  H       -3.5988730    -0.4222000     0.6058720
  H       -2.8102460    -2.7240229     0.1983194
  H       -1.5534710     2.4410460     1.1016880
  H       -2.2209110     2.4548110    -0.5213210
  H       -3.2087000     1.8617690     0.8360960
units angstrom
no_reorient  #important for SAPT in psi4, default
symmetry c1  #important for SAPT in psi4, default
}

set PROPERTIES_ORIGIN ["COM"]
properties('MP2/aug-cc-pvtz', properties = ['dipole'])
--------------------------------------------------------------------------

    Molecular point group: c1
  Charge       = 0
  Multiplicity = 1
  Basis Set: AUG-CC-PVTZ
    Blend: AUG-CC-PVTZ
  Basis Set: (AUG-CC-PVTZ AUX)
    Blend: AUG-CC-PVTZ-JKFIT

    Orbital Energies [Eh]
    ---------------------

    Doubly Occupied:

       1A    -20.512662     2A    -15.583019     3A    -11.350278
       4A    -11.274875     5A    -11.254184     6A    -11.253361
       7A    -11.242074     8A    -11.241937     9A    -11.238195
      10A    -11.237359    11A    -11.235096    12A    -11.232519
      13A    -11.215824    14A     -1.367554    15A     -1.235325
      16A     -1.163676    17A     -1.084569    18A     -1.045136
      19A     -1.028779    20A     -0.943091    21A     -0.933172
      22A     -0.874307    23A     -0.830490    24A     -0.785217
      25A     -0.770079    26A     -0.693932    27A     -0.682855
      28A     -0.661661    29A     -0.659070    30A     -0.619509
      31A     -0.615804    32A     -0.591959    33A     -0.583772
      34A     -0.570155    35A     -0.566065    36A     -0.553037
      37A     -0.531491    38A     -0.530473    39A     -0.513834
      40A     -0.506062    41A     -0.488973    42A     -0.479196
      43A     -0.473747    44A     -0.417447    45A     -0.386010
      46A     -0.336370    47A     -0.327408

  @DF-RHF Final Energy:  -553.64334989533370

   => Energetics <=

    Nuclear Repulsion Energy =            796.0865993137641681
    One-Electron Energy =               -2332.0166842303656267
    Two-Electron Energy =                 982.2867350212678730
    Total Energy =                       -553.6433498953336994
  Basis Set: (AUG-CC-PVTZ AUX)
    Blend: AUG-CC-PVTZ-RI
    Molecular point group: c1

    Geometry (in Angstrom), charge = 0, multiplicity = 1:

       Center              X                  Y                   Z               Mass
    ------------   -----------------  -----------------  -----------------  -----------------
         O            0.326057132927     2.352131251960    -1.027869861815    15.994914619570
         N            1.801283132927     1.230405251960     0.300580138185    14.003074004430
         C            1.541702132927    -1.350346748040    -0.791068861815    12.000000000000
         C            2.521201132927    -1.145642748040     0.375181138185    12.000000000000
         C            0.106635132927    -1.102725748040    -0.395193861815    12.000000000000
         C           -0.346392867073     0.210545251960    -0.152357861815    12.000000000000
         C            2.162993132927     0.116487251960     1.163716138185    12.000000000000
         C           -1.684351867073     0.469379251960     0.202066138185    12.000000000000
         C            0.600440132927     1.361093251960    -0.343072861815    12.000000000000
         C           -0.792759867073    -2.164362748040    -0.254080861815    12.000000000000
         C           -2.550633867073    -0.620831748040     0.342296138185    12.000000000000
         C           -2.116470867073    -1.926704748040     0.112054138185    12.000000000000
         C           -2.187623867073     1.871674251960     0.433523138185    12.000000000000
         H            1.643524132927    -2.367077748040    -1.186926861815     1.007825032230
         H            1.815240132927    -0.669305748040    -1.604660861815     1.007825032230
         H            2.491466132927    -2.004993748040     1.056821138185     1.007825032230
         H            3.542620132927    -1.076735748040    -0.018033861815     1.007825032230
         H            1.320057132927    -0.093204748040     1.829201138185     1.007825032230
         H            2.997488132927     0.437222251960     1.794389138185     1.007825032230
         H            2.456051132927     1.988005251960     0.137624138185     1.007825032230
         H           -0.454099867073    -3.181144748040    -0.447015861815     1.007825032230
         H           -3.585914867073    -0.440512748040     0.626361138185     1.007825032230
         H           -2.797287867073    -2.742335648040     0.218808538185     1.007825032230
         H           -1.540512867073     2.422733251960     1.122177138185     1.007825032230
         H           -2.207952867073     2.436498251960    -0.500831861815     1.007825032230
         H           -3.195741867073     1.843456251960     0.856585138185     1.007825032230

  Basis Set: AUG-CC-PVTZ
    Blend: AUG-CC-PVTZ
  Basis Set: (AUG-CC-PVTZ AUX)
    Blend: AUG-CC-PVTZ-JKFIT
	 Reference Energy          =    -553.6433498953336994 [Eh]
	 Singles Energy            =      -0.0000000000000000 [Eh]
	 Same-Spin Energy          =      -0.6041468258991225 [Eh]
	 Opposite-Spin Energy      =      -1.9029220405806537 [Eh]
	 Correlation Energy        =      -2.5070688664797762 [Eh]
	 Total Energy              =    -556.1504187618135120 [Eh]

	 ================> DF-SCS-MP2 Energies <==================
	-----------------------------------------------------------
	 SCS Same-Spin Scale       =       0.3333333333333333 [-]
	 SCS Opposite-Spin Scale   =       1.2000000000000000 [-]
	 SCS Same-Spin Energy      =      -0.2013822752997075 [Eh]
	 SCS Opposite-Spin Energy  =      -2.2835064486967842 [Eh]
	 SCS Correlation Energy    =      -2.4848887239964919 [Eh]
	 SCS Total Energy          =    -556.1282386193302045 [Eh]
	-----------------------------------------------------------

  Dipole Moment: [D]
     X:     1.7222      Y:    -2.5459      Z:     2.2055     Total:     3.7831

*** Psi4 exiting successfully. Buy a developer a beer!
