                               Psi4 1.4a3.dev225

  ==> Input File <==

--------------------------------------------------------------------------
#psi4
#
memory 32 gb

molecule  {
0 1
  O        0.3130990     2.3704440    -1.0483590
  N        1.7883250     1.2487180     0.2800910
  C        1.5287440    -1.3320340    -0.8115580
  C        2.5082430    -1.1273300     0.3546920
  C        0.0936770    -1.0844130    -0.4156830
  C       -0.3593510     0.2288580    -0.1728470
  C        2.1500350     0.1348000     1.1432270
  C       -1.6973100     0.4876920     0.1815770
  C        0.5874820     1.3794060    -0.3635620
  C       -0.8057180    -2.1460500    -0.2745700
  C       -2.5635920    -0.6025190     0.3218070
  C       -2.1294290    -1.9083920     0.0915650
  C       -2.2005820     1.8899870     0.4130340
  H        1.6305660    -2.3487650    -1.2074160
  H        1.8022820    -0.6509930    -1.6251500
  H        2.4785080    -1.9866810     1.0363320
  H        3.5296620    -1.0584230    -0.0385230
  H        1.2662865    -0.0933012     1.7468333
  H        2.9845300     0.4555350     1.7739000
  H        2.4430930     2.0063180     0.1171350
  H       -0.4670580    -3.1628320    -0.4675050
  H       -3.5988730    -0.4222000     0.6058720
  H       -2.8229980    -2.7393000     0.2003190
  H       -1.5534710     2.4410460     1.1016880
  H       -2.2209110     2.4548110    -0.5213210
  H       -3.2087000     1.8617690     0.8360960
units angstrom
no_reorient  #important for SAPT in psi4, default
symmetry c1  #important for SAPT in psi4, default
}

set PROPERTIES_ORIGIN ["COM"]
properties('MP2/aug-cc-pvtz', properties = ['dipole'])
--------------------------------------------------------------------------

    Molecular point group: c1
  Charge       = 0
  Multiplicity = 1
  Basis Set: AUG-CC-PVTZ
    Blend: AUG-CC-PVTZ
  Basis Set: (AUG-CC-PVTZ AUX)
    Blend: AUG-CC-PVTZ-JKFIT

    Orbital Energies [Eh]
    ---------------------

    Doubly Occupied:

       1A    -20.512525     2A    -15.582581     3A    -11.350291
       4A    -11.274834     5A    -11.254562     6A    -11.253756
       7A    -11.244680     8A    -11.242185     9A    -11.238289
      10A    -11.236863    11A    -11.235518    12A    -11.232926
      13A    -11.216014    14A     -1.367498    15A     -1.235599
      16A     -1.163958    17A     -1.084835    18A     -1.044980
      19A     -1.028776    20A     -0.943255    21A     -0.933127
      22A     -0.873601    23A     -0.830169    24A     -0.785120
      25A     -0.769982    26A     -0.695009    27A     -0.680734
      28A     -0.660863    29A     -0.658681    30A     -0.618670
      31A     -0.616064    32A     -0.591352    33A     -0.584553
      34A     -0.570452    35A     -0.566343    36A     -0.553296
      37A     -0.532108    38A     -0.530952    39A     -0.512859
      40A     -0.505807    41A     -0.489843    42A     -0.479224
      43A     -0.473936    44A     -0.417451    45A     -0.384798
      46A     -0.336649    47A     -0.327747

  @DF-RHF Final Energy:  -553.64236225081652

   => Energetics <=

    Nuclear Repulsion Energy =            796.2099782322206920
    One-Electron Energy =               -2332.2580458031789021
    Two-Electron Energy =                 982.4057053201416920
    Total Energy =                       -553.6423622508165181
  Basis Set: (AUG-CC-PVTZ AUX)
    Blend: AUG-CC-PVTZ-RI
    Molecular point group: c1

    Geometry (in Angstrom), charge = 0, multiplicity = 1:

       Center              X                  Y                   Z               Mass
    ------------   -----------------  -----------------  -----------------  -----------------
         O            0.326365435224     2.352325140891    -1.027525214445    15.994914619570
         N            1.801591435224     1.230599140891     0.300924785555    14.003074004430
         C            1.542010435224    -1.350152859109    -0.790724214445    12.000000000000
         C            2.521509435224    -1.145448859109     0.375525785555    12.000000000000
         C            0.106943435224    -1.102531859109    -0.394849214445    12.000000000000
         C           -0.346084564776     0.210739140891    -0.152013214445    12.000000000000
         C            2.163301435224     0.116681140891     1.164060785555    12.000000000000
         C           -1.684043564776     0.469573140891     0.202410785555    12.000000000000
         C            0.600748435224     1.361287140891    -0.342728214445    12.000000000000
         C           -0.792451564776    -2.164168859109    -0.253736214445    12.000000000000
         C           -2.550325564776    -0.620637859109     0.342640785555    12.000000000000
         C           -2.116162564776    -1.926510859109     0.112398785555    12.000000000000
         C           -2.187315564776     1.871868140891     0.433867785555    12.000000000000
         H            1.643832435224    -2.366883859109    -1.186582214445     1.007825032230
         H            1.815548435224    -0.669111859109    -1.604316214445     1.007825032230
         H            2.491774435224    -2.004799859109     1.057165785555     1.007825032230
         H            3.542928435224    -1.076541859109    -0.017689214445     1.007825032230
         H            1.279552935224    -0.111420059109     1.767667085555     1.007825032230
         H            2.997796435224     0.437416140891     1.794733785555     1.007825032230
         H            2.456359435224     1.988199140891     0.137968785555     1.007825032230
         H           -0.453791564776    -3.180950859109    -0.446671214445     1.007825032230
         H           -3.585606564776    -0.440318859109     0.626705785555     1.007825032230
         H           -2.809731564776    -2.757418859109     0.221152785555     1.007825032230
         H           -1.540204564776     2.422927140891     1.122521785555     1.007825032230
         H           -2.207644564776     2.436692140891    -0.500487214445     1.007825032230
         H           -3.195433564776     1.843650140891     0.856929785555     1.007825032230

  Basis Set: AUG-CC-PVTZ
    Blend: AUG-CC-PVTZ
  Basis Set: (AUG-CC-PVTZ AUX)
    Blend: AUG-CC-PVTZ-JKFIT
	 Reference Energy          =    -553.6423622508165181 [Eh]
	 Singles Energy            =      -0.0000000000000000 [Eh]
	 Same-Spin Energy          =      -0.6043783816196275 [Eh]
	 Opposite-Spin Energy      =      -1.9033543525025594 [Eh]
	 Correlation Energy        =      -2.5077327341221869 [Eh]
	 Total Energy              =    -556.1500949849387325 [Eh]

	 ================> DF-SCS-MP2 Energies <==================
	-----------------------------------------------------------
	 SCS Same-Spin Scale       =       0.3333333333333333 [-]
	 SCS Opposite-Spin Scale   =       1.2000000000000000 [-]
	 SCS Same-Spin Energy      =      -0.2014594605398758 [Eh]
	 SCS Opposite-Spin Energy  =      -2.2840252230030713 [Eh]
	 SCS Correlation Energy    =      -2.4854846835429472 [Eh]
	 SCS Total Energy          =    -556.1278469343594679 [Eh]
	-----------------------------------------------------------

  Dipole Moment: [D]
     X:     1.7113      Y:    -2.5491      Z:     2.1798     Total:     3.7654

*** Psi4 exiting successfully. Buy a developer a beer!
