                               Psi4 1.4a3.dev225

  ==> Input File <==

--------------------------------------------------------------------------
#psi4
#
memory 32 gb

molecule  {
0 1
  O        0.3130990     2.3704440    -1.0483590
  N        1.7883250     1.2487180     0.2800910
  C        1.5025119    -1.4264838    -0.7680159
  C        2.5082430    -1.1273300     0.3546920
  C        0.0936770    -1.0844130    -0.4156830
  C       -0.3593510     0.2288580    -0.1728470
  C        2.1500350     0.1348000     1.1432270
  C       -1.6973100     0.4876920     0.1815770
  C        0.5874820     1.3794060    -0.3635620
  C       -0.8057180    -2.1460500    -0.2745700
  C       -2.5635920    -0.6025190     0.3218070
  C       -2.1294290    -1.9083920     0.0915650
  C       -2.2005820     1.8899870     0.4130340
  H        1.6305660    -2.3487650    -1.2074160
  H        1.8022820    -0.6509930    -1.6251500
  H        2.4785080    -1.9866810     1.0363320
  H        3.5296620    -1.0584230    -0.0385230
  H        1.3070990    -0.0748920     1.8087120
  H        2.9845300     0.4555350     1.7739000
  H        2.4430930     2.0063180     0.1171350
  H       -0.4670580    -3.1628320    -0.4675050
  H       -3.5988730    -0.4222000     0.6058720
  H       -2.8229980    -2.7393000     0.2003190
  H       -1.5534710     2.4410460     1.1016880
  H       -2.2209110     2.4548110    -0.5213210
  H       -3.2087000     1.8617690     0.8360960
units angstrom
no_reorient  #important for SAPT in psi4, default
symmetry c1  #important for SAPT in psi4, default
}

set PROPERTIES_ORIGIN ["COM"]
properties('MP2/aug-cc-pvtz', properties = ['dipole'])
--------------------------------------------------------------------------

    Molecular point group: c1
  Charge       = 0
  Multiplicity = 1
  Basis Set: AUG-CC-PVTZ
    Blend: AUG-CC-PVTZ
  Basis Set: (AUG-CC-PVTZ AUX)
    Blend: AUG-CC-PVTZ-JKFIT

    Orbital Energies [Eh]
    ---------------------

    Doubly Occupied:

       1A    -20.512424     2A    -15.582967     3A    -11.350215
       4A    -11.276397     5A    -11.254789     6A    -11.254363
       7A    -11.244101     8A    -11.243441     9A    -11.240653
      10A    -11.238225    11A    -11.234037    12A    -11.232620
      13A    -11.216316    14A     -1.367274    15A     -1.234981
      16A     -1.164719    17A     -1.086660    18A     -1.044562
      19A     -1.029059    20A     -0.945999    21A     -0.932540
      22A     -0.875032    23A     -0.828871    24A     -0.785658
      25A     -0.771625    26A     -0.693707    27A     -0.684103
      28A     -0.661183    29A     -0.654876    30A     -0.626103
      31A     -0.616218    32A     -0.589389    33A     -0.582759
      34A     -0.573465    35A     -0.564797    36A     -0.557526
      37A     -0.531268    38A     -0.526553    39A     -0.514619
      40A     -0.504832    41A     -0.494879    42A     -0.477887
      43A     -0.464000    44A     -0.416763    45A     -0.385911
      46A     -0.336042    47A     -0.326420

  @DF-RHF Final Energy:  -553.63115238350895

   => Energetics <=

    Nuclear Repulsion Energy =            795.6559222899402357
    One-Electron Energy =               -2331.1124929138918560
    Two-Electron Energy =                 981.8254182404426729
    Total Energy =                       -553.6311523835089474
  Basis Set: (AUG-CC-PVTZ AUX)
    Blend: AUG-CC-PVTZ-RI
    Molecular point group: c1

    Geometry (in Angstrom), charge = 0, multiplicity = 1:

       Center              X                  Y                   Z               Mass
    ------------   -----------------  -----------------  -----------------  -----------------
         O            0.327928278101     2.358692052187    -1.030865414662    15.994914619570
         N            1.803154278101     1.236966052187     0.297584585338    14.003074004430
         C            1.517341178101    -1.438235747813    -0.750522314662    12.000000000000
         C            2.523072278101    -1.139081947813     0.372185585338    12.000000000000
         C            0.108506278101    -1.096164947813    -0.398189414662    12.000000000000
         C           -0.344521721899     0.217106052187    -0.155353414662    12.000000000000
         C            2.164864278101     0.123048052187     1.160720585338    12.000000000000
         C           -1.682480721899     0.475940052187     0.199070585338    12.000000000000
         C            0.602311278101     1.367654052187    -0.346068414662    12.000000000000
         C           -0.790888721899    -2.157801947813    -0.257076414662    12.000000000000
         C           -2.548762721899    -0.614270947813     0.339300585338    12.000000000000
         C           -2.114599721899    -1.920143947813     0.109058585338    12.000000000000
         C           -2.185752721899     1.878235052187     0.430527585338    12.000000000000
         H            1.645395278101    -2.360516947813    -1.189922414662     1.007825032230
         H            1.817111278101    -0.662744947813    -1.607656414662     1.007825032230
         H            2.493337278101    -1.998432947813     1.053825585338     1.007825032230
         H            3.544491278101    -1.070174947813    -0.021029414662     1.007825032230
         H            1.321928278101    -0.086643947813     1.826205585338     1.007825032230
         H            2.999359278101     0.443783052187     1.791393585338     1.007825032230
         H            2.457922278101     1.994566052187     0.134628585338     1.007825032230
         H           -0.452228721899    -3.174583947813    -0.450011414662     1.007825032230
         H           -3.584043721899    -0.433951947813     0.623365585338     1.007825032230
         H           -2.808168721899    -2.751051947813     0.217812585338     1.007825032230
         H           -1.538641721899     2.429294052187     1.119181585338     1.007825032230
         H           -2.206081721899     2.443059052187    -0.503827414662     1.007825032230
         H           -3.193870721899     1.850017052187     0.853589585338     1.007825032230

  Basis Set: AUG-CC-PVTZ
    Blend: AUG-CC-PVTZ
  Basis Set: (AUG-CC-PVTZ AUX)
    Blend: AUG-CC-PVTZ-JKFIT
	 Reference Energy          =    -553.6311523835089474 [Eh]
	 Singles Energy            =      -0.0000000000000000 [Eh]
	 Same-Spin Energy          =      -0.6044718302290342 [Eh]
	 Opposite-Spin Energy      =      -1.9037133286011125 [Eh]
	 Correlation Energy        =      -2.5081851588301465 [Eh]
	 Total Energy              =    -556.1393375423391490 [Eh]

	 ================> DF-SCS-MP2 Energies <==================
	-----------------------------------------------------------
	 SCS Same-Spin Scale       =       0.3333333333333333 [-]
	 SCS Opposite-Spin Scale   =       1.2000000000000000 [-]
	 SCS Same-Spin Energy      =      -0.2014906100763447 [Eh]
	 SCS Opposite-Spin Energy  =      -2.2844559943213349 [Eh]
	 SCS Correlation Energy    =      -2.4859466043976797 [Eh]
	 SCS Total Energy          =    -556.1170989879066155 [Eh]
	-----------------------------------------------------------

  Dipole Moment: [D]
     X:     1.7241      Y:    -2.5734      Z:     2.2451     Total:     3.8256

*** Psi4 exiting successfully. Buy a developer a beer!
