                               Psi4 1.4a3.dev225

  ==> Input File <==

--------------------------------------------------------------------------
#psi4
#
memory 32 gb

molecule  {
0 1
  O        0.3130990     2.3704440    -1.0483590
  N        1.7883250     1.2487180     0.2800910
  C        1.5287440    -1.3320340    -0.8115580
  C        2.5082430    -1.1273300     0.3546920
  C        0.0936770    -1.0844130    -0.4156830
  C       -0.3593510     0.2288580    -0.1728470
  C        2.1500350     0.1348000     1.1432270
  C       -1.6973100     0.4876920     0.1815770
  C        0.5874820     1.3794060    -0.3635620
  C       -0.8057180    -2.1460500    -0.2745700
  C       -2.5635920    -0.6025190     0.3218070
  C       -2.1294290    -1.9083920     0.0915650
  C       -2.2005820     1.8899870     0.4130340
  H        1.6305660    -2.3487650    -1.2074160
  H        1.8022820    -0.6509930    -1.6251500
  H        2.4785080    -1.9866810     1.0363320
  H        3.5296620    -1.0584230    -0.0385230
  H        1.3070990    -0.0748920     1.8087120
  H        2.9845300     0.4555350     1.7739000
  H        2.4430930     2.0063180     0.1171350
  H       -0.4670580    -3.1628320    -0.4675050
  H       -3.6939765    -0.4056355     0.6319669
  H       -2.8229980    -2.7393000     0.2003190
  H       -1.5534710     2.4410460     1.1016880
  H       -2.2209110     2.4548110    -0.5213210
  H       -3.2087000     1.8617690     0.8360960
units angstrom
no_reorient  #important for SAPT in psi4, default
symmetry c1  #important for SAPT in psi4, default
}

set PROPERTIES_ORIGIN ["COM"]
properties('MP2/aug-cc-pvtz', properties = ['dipole'])
--------------------------------------------------------------------------

    Molecular point group: c1
  Charge       = 0
  Multiplicity = 1
  Basis Set: AUG-CC-PVTZ
    Blend: AUG-CC-PVTZ
  Basis Set: (AUG-CC-PVTZ AUX)
    Blend: AUG-CC-PVTZ-JKFIT

    Orbital Energies [Eh]
    ---------------------

    Doubly Occupied:

       1A    -20.513040     2A    -15.583393     3A    -11.350785
       4A    -11.275177     5A    -11.254799     6A    -11.254632
       7A    -11.245683     8A    -11.243830     9A    -11.242863
      10A    -11.238603    11A    -11.237691    12A    -11.236074
      13A    -11.215764    14A     -1.367936    15A     -1.235698
      16A     -1.164002    17A     -1.084423    18A     -1.045345
      19A     -1.027781    20A     -0.943375    21A     -0.931541
      22A     -0.873470    23A     -0.829657    24A     -0.782127
      25A     -0.769917    26A     -0.689247    27A     -0.681716
      28A     -0.659737    29A     -0.659331    30A     -0.618884
      31A     -0.615151    32A     -0.591067    33A     -0.581345
      34A     -0.570358    35A     -0.562583    36A     -0.552209
      37A     -0.531753    38A     -0.525678    39A     -0.513332
      40A     -0.505731    41A     -0.489123    42A     -0.479867
      43A     -0.472147    44A     -0.417798    45A     -0.386343
      46A     -0.337101    47A     -0.328164

  @DF-RHF Final Energy:  -553.63579049150985

   => Energetics <=

    Nuclear Repulsion Energy =            795.4532627190890253
    One-Electron Energy =               -2330.7455663620253290
    Two-Electron Energy =                 981.6565131514264522
    Total Energy =                       -553.6357904915098516
  Basis Set: (AUG-CC-PVTZ AUX)
    Blend: AUG-CC-PVTZ-RI
    Molecular point group: c1

    Geometry (in Angstrom), charge = 0, multiplicity = 1:

       Center              X                  Y                   Z               Mass
    ------------   -----------------  -----------------  -----------------  -----------------
         O            0.326677919051     2.352123842045    -1.028031565907    15.994914619570
         N            1.801903919051     1.230397842045     0.300418434093    14.003074004430
         C            1.542322919051    -1.350354157955    -0.791230565907    12.000000000000
         C            2.521821919051    -1.145650157955     0.375019434093    12.000000000000
         C            0.107255919051    -1.102733157955    -0.395355565907    12.000000000000
         C           -0.345772080949     0.210537842045    -0.152519565907    12.000000000000
         C            2.163613919051     0.116479842045     1.163554434093    12.000000000000
         C           -1.683731080949     0.469371842045     0.201904434093    12.000000000000
         C            0.601060919051     1.361085842045    -0.343234565907    12.000000000000
         C           -0.792139080949    -2.164370157955    -0.254242565907    12.000000000000
         C           -2.550013080949    -0.620839157955     0.342134434093    12.000000000000
         C           -2.115850080949    -1.926712157955     0.111892434093    12.000000000000
         C           -2.187003080949     1.871666842045     0.433361434093    12.000000000000
         H            1.644144919051    -2.367085157955    -1.187088565907     1.007825032230
         H            1.815860919051    -0.669313157955    -1.604822565907     1.007825032230
         H            2.492086919051    -2.005001157955     1.056659434093     1.007825032230
         H            3.543240919051    -1.076743157955    -0.018195565907     1.007825032230
         H            1.320677919051    -0.093212157955     1.829039434093     1.007825032230
         H            2.998108919051     0.437214842045     1.794227434093     1.007825032230
         H            2.456671919051     1.987997842045     0.137462434093     1.007825032230
         H           -0.453479080949    -3.181152157955    -0.447177565907     1.007825032230
         H           -3.680397580949    -0.423955657955     0.652294334093     1.007825032230
         H           -2.809419080949    -2.757620157955     0.220646434093     1.007825032230
         H           -1.539892080949     2.422725842045     1.122015434093     1.007825032230
         H           -2.207332080949     2.436490842045    -0.500993565907     1.007825032230
         H           -3.195121080949     1.843448842045     0.856423434093     1.007825032230

  Basis Set: AUG-CC-PVTZ
    Blend: AUG-CC-PVTZ
  Basis Set: (AUG-CC-PVTZ AUX)
    Blend: AUG-CC-PVTZ-JKFIT
	 Reference Energy          =    -553.6357904915098516 [Eh]
	 Singles Energy            =      -0.0000000000000000 [Eh]
	 Same-Spin Energy          =      -0.6044551597418404 [Eh]
	 Opposite-Spin Energy      =      -1.9040691040035229 [Eh]
	 Correlation Energy        =      -2.5085242637453633 [Eh]
	 Total Energy              =    -556.1443147552552091 [Eh]

	 ================> DF-SCS-MP2 Energies <==================
	-----------------------------------------------------------
	 SCS Same-Spin Scale       =       0.3333333333333333 [-]
	 SCS Opposite-Spin Scale   =       1.2000000000000000 [-]
	 SCS Same-Spin Energy      =      -0.2014850532472801 [Eh]
	 SCS Opposite-Spin Energy  =      -2.2848829248042275 [Eh]
	 SCS Correlation Energy    =      -2.4863679780515078 [Eh]
	 SCS Total Energy          =    -556.1221584695613274 [Eh]
	-----------------------------------------------------------

  Dipole Moment: [D]
     X:     1.7808      Y:    -2.5450      Z:     2.1919     Total:     3.8016

*** Psi4 exiting successfully. Buy a developer a beer!
