                               Psi4 1.4a3.dev225

  ==> Input File <==

--------------------------------------------------------------------------
#psi4
#
memory 32 gb

molecule  {
0 1
  O        0.3130990     2.3704440    -1.0483590
  N        1.7883250     1.2487180     0.2800910
  C        1.5287440    -1.3320340    -0.8115580
  C        2.5082430    -1.1273300     0.3546920
  C        0.0936770    -1.0844130    -0.4156830
  C       -0.3593510     0.2288580    -0.1728470
  C        2.1500350     0.1348000     1.1432270
  C       -1.6973100     0.4876920     0.1815770
  C        0.5874820     1.3794060    -0.3635620
  C       -0.8057180    -2.1460500    -0.2745700
  C       -2.5635920    -0.6025190     0.3218070
  C       -2.1294290    -1.9083920     0.0915650
  C       -2.2005820     1.8899870     0.4130340
  H        1.6305660    -2.3487650    -1.2074160
  H        1.8022820    -0.6509930    -1.6251500
  H        2.4785080    -1.9866810     1.0363320
  H        3.5296620    -1.0584230    -0.0385230
  H        1.3070990    -0.0748920     1.8087120
  H        2.9845300     0.4555350     1.7739000
  H        2.4430930     2.0063180     0.1171350
  H       -0.4670580    -3.1628320    -0.4675050
  H       -3.5988730    -0.4222000     0.6058720
  H       -2.8867578    -2.8156854     0.2103168
  H       -1.5534710     2.4410460     1.1016880
  H       -2.2209110     2.4548110    -0.5213210
  H       -3.2087000     1.8617690     0.8360960
units angstrom
no_reorient  #important for SAPT in psi4, default
symmetry c1  #important for SAPT in psi4, default
}

set PROPERTIES_ORIGIN ["COM"]
properties('MP2/aug-cc-pvtz', properties = ['dipole'])
--------------------------------------------------------------------------

    Molecular point group: c1
  Charge       = 0
  Multiplicity = 1
  Basis Set: AUG-CC-PVTZ
    Blend: AUG-CC-PVTZ
  Basis Set: (AUG-CC-PVTZ AUX)
    Blend: AUG-CC-PVTZ-JKFIT

    Orbital Energies [Eh]
    ---------------------

    Doubly Occupied:

       1A    -20.512983     2A    -15.583318     3A    -11.350622
       4A    -11.275150     5A    -11.255611     6A    -11.255028
       7A    -11.254212     8A    -11.242408     9A    -11.238672
      10A    -11.237698    11A    -11.236297    12A    -11.233706
      13A    -11.216334    14A     -1.367876    15A     -1.235640
      16A     -1.163994    17A     -1.084970    18A     -1.043427
      19A     -1.028505    20A     -0.943534    21A     -0.933681
      22A     -0.871172    23A     -0.828594    24A     -0.783812
      25A     -0.768884    26A     -0.694201    27A     -0.683087
      28A     -0.659676    29A     -0.651773    30A     -0.619773
      31A     -0.613045    32A     -0.586431    33A     -0.583658
      34A     -0.569496    35A     -0.566207    36A     -0.553460
      37A     -0.531908    38A     -0.530584    39A     -0.514205
      40A     -0.501564    41A     -0.487749    42A     -0.479905
      43A     -0.473919    44A     -0.417595    45A     -0.386309
      46A     -0.336960    47A     -0.328148

  @DF-RHF Final Energy:  -553.63582874957956

   => Energetics <=

    Nuclear Repulsion Energy =            795.4548413393501960
    One-Electron Energy =               -2330.7497797648302367
    Two-Electron Energy =                 981.6591096759004813
    Total Energy =                       -553.6358287495795594
  Basis Set: (AUG-CC-PVTZ AUX)
    Blend: AUG-CC-PVTZ-RI
    Molecular point group: c1

    Geometry (in Angstrom), charge = 0, multiplicity = 1:

       Center              X                  Y                   Z               Mass
    ------------   -----------------  -----------------  -----------------  -----------------
         O            0.326497513471     2.352658835700    -1.027938915497    15.994914619570
         N            1.801723513471     1.230932835700     0.300511084503    14.003074004430
         C            1.542142513471    -1.349819164300    -0.791137915497    12.000000000000
         C            2.521641513471    -1.145115164300     0.375112084503    12.000000000000
         C            0.107075513471    -1.102198164300    -0.395262915497    12.000000000000
         C           -0.345952486529     0.211072835700    -0.152426915497    12.000000000000
         C            2.163433513471     0.117014835700     1.163647084503    12.000000000000
         C           -1.683911486529     0.469906835700     0.201997084503    12.000000000000
         C            0.600880513471     1.361620835700    -0.343141915497    12.000000000000
         C           -0.792319486529    -2.163835164300    -0.254149915497    12.000000000000
         C           -2.550193486529    -0.620304164300     0.342227084503    12.000000000000
         C           -2.116030486529    -1.926177164300     0.111985084503    12.000000000000
         C           -2.187183486529     1.872201835700     0.433454084503    12.000000000000
         H            1.643964513471    -2.366550164300    -1.186995915497     1.007825032230
         H            1.815680513471    -0.668778164300    -1.604729915497     1.007825032230
         H            2.491906513471    -2.004466164300     1.056752084503     1.007825032230
         H            3.543060513471    -1.076208164300    -0.018102915497     1.007825032230
         H            1.320497513471    -0.092677164300     1.829132084503     1.007825032230
         H            2.997928513471     0.437749835700     1.794320084503     1.007825032230
         H            2.456491513471     1.988532835700     0.137555084503     1.007825032230
         H           -0.453659486529    -3.180617164300    -0.447084915497     1.007825032230
         H           -3.585474486529    -0.439985164300     0.626292084503     1.007825032230
         H           -2.873359286529    -2.833470564300     0.230736884503     1.007825032230
         H           -1.540072486529     2.423260835700     1.122108084503     1.007825032230
         H           -2.207512486529     2.437025835700    -0.500900915497     1.007825032230
         H           -3.195301486529     1.843983835700     0.856516084503     1.007825032230

  Basis Set: AUG-CC-PVTZ
    Blend: AUG-CC-PVTZ
  Basis Set: (AUG-CC-PVTZ AUX)
    Blend: AUG-CC-PVTZ-JKFIT
	 Reference Energy          =    -553.6358287495795594 [Eh]
	 Singles Energy            =      -0.0000000000000000 [Eh]
	 Same-Spin Energy          =      -0.6044099530120794 [Eh]
	 Opposite-Spin Energy      =      -1.9041165551590615 [Eh]
	 Correlation Energy        =      -2.5085265081711410 [Eh]
	 Total Energy              =    -556.1443552577507035 [Eh]

	 ================> DF-SCS-MP2 Energies <==================
	-----------------------------------------------------------
	 SCS Same-Spin Scale       =       0.3333333333333333 [-]
	 SCS Opposite-Spin Scale   =       1.2000000000000000 [-]
	 SCS Same-Spin Energy      =      -0.2014699843373598 [Eh]
	 SCS Opposite-Spin Energy  =      -2.2849398661908737 [Eh]
	 SCS Correlation Energy    =      -2.4864098505282337 [Eh]
	 SCS Total Energy          =    -556.1222386001078348 [Eh]
	-----------------------------------------------------------

  Dipole Moment: [D]
     X:     1.7648      Y:    -2.4974      Z:     2.2011     Total:     3.7677

*** Psi4 exiting successfully. Buy a developer a beer!
