                               Psi4 1.4a3.dev225

  ==> Input File <==

--------------------------------------------------------------------------
#psi4
#
memory 32 gb

molecule  {
0 1
  O        0.3130990     2.3704440    -1.0483590
  N        1.7883250     1.2487180     0.2800910
  C        1.5287440    -1.3320340    -0.8115580
  C        2.5082430    -1.1273300     0.3546920
  C        0.0936770    -1.0844130    -0.4156830
  C       -0.3593510     0.2288580    -0.1728470
  C        2.1617357     0.0935730     1.1174698
  C       -1.6973100     0.4876920     0.1815770
  C        0.5874820     1.3794060    -0.3635620
  C       -0.8057180    -2.1460500    -0.2745700
  C       -2.5635920    -0.6025190     0.3218070
  C       -2.1294290    -1.9083920     0.0915650
  C       -2.2005820     1.8899870     0.4130340
  H        1.6305660    -2.3487650    -1.2074160
  H        1.8022820    -0.6509930    -1.6251500
  H        2.4785080    -1.9866810     1.0363320
  H        3.5296620    -1.0584230    -0.0385230
  H        1.3070990    -0.0748920     1.8087120
  H        2.9845300     0.4555350     1.7739000
  H        2.4430930     2.0063180     0.1171350
  H       -0.4670580    -3.1628320    -0.4675050
  H       -3.5988730    -0.4222000     0.6058720
  H       -2.8229980    -2.7393000     0.2003190
  H       -1.5534710     2.4410460     1.1016880
  H       -2.2209110     2.4548110    -0.5213210
  H       -3.2087000     1.8617690     0.8360960
units angstrom
no_reorient  #important for SAPT in psi4, default
symmetry c1  #important for SAPT in psi4, default
}

set PROPERTIES_ORIGIN ["COM"]
properties('MP2/aug-cc-pvtz', properties = ['dipole'])
--------------------------------------------------------------------------

    Molecular point group: c1
  Charge       = 0
  Multiplicity = 1
  Basis Set: AUG-CC-PVTZ
    Blend: AUG-CC-PVTZ
  Basis Set: (AUG-CC-PVTZ AUX)
    Blend: AUG-CC-PVTZ-JKFIT

    Orbital Energies [Eh]
    ---------------------

    Doubly Occupied:

       1A    -20.511880     2A    -15.582353     3A    -11.349314
       4A    -11.277310     5A    -11.254353     6A    -11.253297
       7A    -11.244311     8A    -11.241944     9A    -11.239100
      10A    -11.236736    11A    -11.235438    12A    -11.232729
      13A    -11.215663    14A     -1.366574    15A     -1.232046
      16A     -1.163426    17A     -1.088543    18A     -1.045259
      19A     -1.032487    20A     -0.943798    21A     -0.932323
      22A     -0.872800    23A     -0.829528    24A     -0.785206
      25A     -0.768816    26A     -0.692924    27A     -0.681548
      28A     -0.660515    29A     -0.656320    30A     -0.623498
      31A     -0.616384    32A     -0.591122    33A     -0.583472
      34A     -0.569533    35A     -0.565137    36A     -0.552906
      37A     -0.531360    38A     -0.527836    39A     -0.517016
      40A     -0.504128    41A     -0.489231    42A     -0.479197
      43A     -0.472973    44A     -0.416529    45A     -0.388251
      46A     -0.336257    47A     -0.327593

  @DF-RHF Final Energy:  -553.64007433604047

   => Energetics <=

    Nuclear Repulsion Energy =            796.2772478049980691
    One-Electron Energy =               -2332.3967192749037167
    Two-Electron Energy =                 982.4793971338651772
    Total Energy =                       -553.6400743360404704
  Basis Set: (AUG-CC-PVTZ AUX)
    Blend: AUG-CC-PVTZ-RI
    Molecular point group: c1

    Geometry (in Angstrom), charge = 0, multiplicity = 1:

       Center              X                  Y                   Z               Mass
    ------------   -----------------  -----------------  -----------------  -----------------
         O            0.325328653067     2.355044567076    -1.026116168756    15.994914619570
         N            1.800554653067     1.233318567076     0.302333831244    14.003074004430
         C            1.540973653067    -1.347433432924    -0.789315168756    12.000000000000
         C            2.520472653067    -1.142729432924     0.376934831244    12.000000000000
         C            0.105906653067    -1.099812432924    -0.393440168756    12.000000000000
         C           -0.347121346933     0.213458567076    -0.150604168756    12.000000000000
         C            2.173965353067     0.078173567076     1.139712631244    12.000000000000
         C           -1.685080346933     0.472292567076     0.203819831244    12.000000000000
         C            0.599711653067     1.364006567076    -0.341319168756    12.000000000000
         C           -0.793488346933    -2.161449432924    -0.252327168756    12.000000000000
         C           -2.551362346933    -0.617918432924     0.344049831244    12.000000000000
         C           -2.117199346933    -1.923791432924     0.113807831244    12.000000000000
         C           -2.188352346933     1.874587567076     0.435276831244    12.000000000000
         H            1.642795653067    -2.364164432924    -1.185173168756     1.007825032230
         H            1.814511653067    -0.666392432924    -1.602907168756     1.007825032230
         H            2.490737653067    -2.002080432924     1.058574831244     1.007825032230
         H            3.541891653067    -1.073822432924    -0.016280168756     1.007825032230
         H            1.319328653067    -0.090291432924     1.830954831244     1.007825032230
         H            2.996759653067     0.440135567076     1.796142831244     1.007825032230
         H            2.455322653067     1.990918567076     0.139377831244     1.007825032230
         H           -0.454828346933    -3.178231432924    -0.445262168756     1.007825032230
         H           -3.586643346933    -0.437599432924     0.628114831244     1.007825032230
         H           -2.810768346933    -2.754699432924     0.222561831244     1.007825032230
         H           -1.541241346933     2.425646567076     1.123930831244     1.007825032230
         H           -2.208681346933     2.439411567076    -0.499078168756     1.007825032230
         H           -3.196470346933     1.846369567076     0.858338831244     1.007825032230

  Basis Set: AUG-CC-PVTZ
    Blend: AUG-CC-PVTZ
  Basis Set: (AUG-CC-PVTZ AUX)
    Blend: AUG-CC-PVTZ-JKFIT
	 Reference Energy          =    -553.6400743360404704 [Eh]
	 Singles Energy            =      -0.0000000000000000 [Eh]
	 Same-Spin Energy          =      -0.6045449035133145 [Eh]
	 Opposite-Spin Energy      =      -1.9036098843689901 [Eh]
	 Correlation Energy        =      -2.5081547878823045 [Eh]
	 Total Energy              =    -556.1482291239227607 [Eh]

	 ================> DF-SCS-MP2 Energies <==================
	-----------------------------------------------------------
	 SCS Same-Spin Scale       =       0.3333333333333333 [-]
	 SCS Opposite-Spin Scale   =       1.2000000000000000 [-]
	 SCS Same-Spin Energy      =      -0.2015149678377715 [Eh]
	 SCS Opposite-Spin Energy  =      -2.2843318612427881 [Eh]
	 SCS Correlation Energy    =      -2.4858468290805598 [Eh]
	 SCS Total Energy          =    -556.1259211651209853 [Eh]
	-----------------------------------------------------------

  Dipole Moment: [D]
     X:     1.7562      Y:    -2.6179      Z:     2.1892     Total:     3.8380

*** Psi4 exiting successfully. Buy a developer a beer!
