                               Psi4 1.4a3.dev225

  ==> Input File <==

--------------------------------------------------------------------------
#psi4
#
memory 32 gb

molecule  {
0 1
  O        0.3130990     2.3704440    -1.0483590
  N        1.7883250     1.2487180     0.2800910
  C        1.5287440    -1.3320340    -0.8115580
  C        2.5082430    -1.1273300     0.3546920
  C        0.0936770    -1.0844130    -0.4156830
  C       -0.3593510     0.2288580    -0.1728470
  C        2.1500350     0.1348000     1.1432270
  C       -1.6973100     0.4876920     0.1815770
  C        0.5436146     1.3841801    -0.3870750
  C       -0.8057180    -2.1460500    -0.2745700
  C       -2.5635920    -0.6025190     0.3218070
  C       -2.1294290    -1.9083920     0.0915650
  C       -2.2005820     1.8899870     0.4130340
  H        1.6305660    -2.3487650    -1.2074160
  H        1.8022820    -0.6509930    -1.6251500
  H        2.4785080    -1.9866810     1.0363320
  H        3.5296620    -1.0584230    -0.0385230
  H        1.3070990    -0.0748920     1.8087120
  H        2.9845300     0.4555350     1.7739000
  H        2.4430930     2.0063180     0.1171350
  H       -0.4670580    -3.1628320    -0.4675050
  H       -3.5988730    -0.4222000     0.6058720
  H       -2.8229980    -2.7393000     0.2003190
  H       -1.5534710     2.4410460     1.1016880
  H       -2.2209110     2.4548110    -0.5213210
  H       -3.2087000     1.8617690     0.8360960
units angstrom
no_reorient  #important for SAPT in psi4, default
symmetry c1  #important for SAPT in psi4, default
}

set PROPERTIES_ORIGIN ["COM"]
properties('MP2/aug-cc-pvtz', properties = ['dipole'])
--------------------------------------------------------------------------

    Molecular point group: c1
  Charge       = 0
  Multiplicity = 1
  Basis Set: AUG-CC-PVTZ
    Blend: AUG-CC-PVTZ
  Basis Set: (AUG-CC-PVTZ AUX)
    Blend: AUG-CC-PVTZ-JKFIT

    Orbital Energies [Eh]
    ---------------------

    Doubly Occupied:

       1A    -20.521171     2A    -15.573013     3A    -11.351805
       4A    -11.269294     5A    -11.256365     6A    -11.255161
       7A    -11.246148     8A    -11.241690     9A    -11.237008
      10A    -11.236310    11A    -11.234162    12A    -11.233694
      13A    -11.218209    14A     -1.384772    15A     -1.222101
      16A     -1.164274    17A     -1.082559    18A     -1.046985
      19A     -1.027235    20A     -0.942700    21A     -0.930540
      22A     -0.874054    23A     -0.827272    24A     -0.782939
      25A     -0.766775    26A     -0.692917    27A     -0.679225
      28A     -0.661599    29A     -0.657824    30A     -0.621438
      31A     -0.612946    32A     -0.592008    33A     -0.586608
      34A     -0.572935    35A     -0.566746    36A     -0.554035
      37A     -0.533223    38A     -0.529479    39A     -0.515540
      40A     -0.507171    41A     -0.487599    42A     -0.479966
      43A     -0.474280    44A     -0.420728    45A     -0.381319
      46A     -0.338783    47A     -0.328617

  @DF-RHF Final Energy:  -553.64101862161135

   => Energetics <=

    Nuclear Repulsion Energy =            796.0117847368751427
    One-Electron Energy =               -2331.8631604738902752
    Two-Electron Energy =                 982.2103571154037809
    Total Energy =                       -553.6410186216113516
  Basis Set: (AUG-CC-PVTZ AUX)
    Blend: AUG-CC-PVTZ-RI
    Molecular point group: c1

    Geometry (in Angstrom), charge = 0, multiplicity = 1:

       Center              X                  Y                   Z               Mass
    ------------   -----------------  -----------------  -----------------  -----------------
         O            0.329136867167     2.351892002247    -1.026269969121    15.994914619570
         N            1.804362867167     1.230166002247     0.302180030879    14.003074004430
         C            1.544781867167    -1.350585997753    -0.789468969121    12.000000000000
         C            2.524280867167    -1.145881997753     0.376781030879    12.000000000000
         C            0.109714867167    -1.102964997753    -0.393593969121    12.000000000000
         C           -0.343313132833     0.210306002247    -0.150757969121    12.000000000000
         C            2.166072867167     0.116248002247     1.165316030879    12.000000000000
         C           -1.681272132833     0.469140002247     0.203666030879    12.000000000000
         C            0.559652467167     1.365628102247    -0.364985969121    12.000000000000
         C           -0.789680132833    -2.164601997753    -0.252480969121    12.000000000000
         C           -2.547554132833    -0.621070997753     0.343896030879    12.000000000000
         C           -2.113391132833    -1.926943997753     0.113654030879    12.000000000000
         C           -2.184544132833     1.871435002247     0.435123030879    12.000000000000
         H            1.646603867167    -2.367316997753    -1.185326969121     1.007825032230
         H            1.818319867167    -0.669544997753    -1.603060969121     1.007825032230
         H            2.494545867167    -2.005232997753     1.058421030879     1.007825032230
         H            3.545699867167    -1.076974997753    -0.016433969121     1.007825032230
         H            1.323136867167    -0.093443997753     1.830801030879     1.007825032230
         H            3.000567867167     0.436983002247     1.795989030879     1.007825032230
         H            2.459130867167     1.987766002247     0.139224030879     1.007825032230
         H           -0.451020132833    -3.181383997753    -0.445415969121     1.007825032230
         H           -3.582835132833    -0.440751997753     0.627961030879     1.007825032230
         H           -2.806960132833    -2.757851997753     0.222408030879     1.007825032230
         H           -1.537433132833     2.422494002247     1.123777030879     1.007825032230
         H           -2.204873132833     2.436259002247    -0.499231969121     1.007825032230
         H           -3.192662132833     1.843217002247     0.858185030879     1.007825032230

  Basis Set: AUG-CC-PVTZ
    Blend: AUG-CC-PVTZ
  Basis Set: (AUG-CC-PVTZ AUX)
    Blend: AUG-CC-PVTZ-JKFIT
	 Reference Energy          =    -553.6410186216113516 [Eh]
	 Singles Energy            =      -0.0000000000000000 [Eh]
	 Same-Spin Energy          =      -0.6039825817594728 [Eh]
	 Opposite-Spin Energy      =      -1.9027540602184654 [Eh]
	 Correlation Energy        =      -2.5067366419779384 [Eh]
	 Total Energy              =    -556.1477552635892607 [Eh]

	 ================> DF-SCS-MP2 Energies <==================
	-----------------------------------------------------------
	 SCS Same-Spin Scale       =       0.3333333333333333 [-]
	 SCS Opposite-Spin Scale   =       1.2000000000000000 [-]
	 SCS Same-Spin Energy      =      -0.2013275272531576 [Eh]
	 SCS Opposite-Spin Energy  =      -2.2833048722621583 [Eh]
	 SCS Correlation Energy    =      -2.4846323995153159 [Eh]
	 SCS Total Energy          =    -556.1256510211267141 [Eh]
	-----------------------------------------------------------

  Dipole Moment: [D]
     X:     1.3409      Y:    -2.4459      Z:     1.9822     Total:     3.4219

*** Psi4 exiting successfully. Buy a developer a beer!
