                               Psi4 1.4a3.dev225

  ==> Input File <==

--------------------------------------------------------------------------
#psi4
#
memory 32 gb

molecule  {
0 1
  O        0.3130990     2.3704440    -1.0483590
  N        1.7883250     1.2487180     0.2800910
  C        1.5287440    -1.3320340    -0.8115580
  C        2.4706897    -1.0272662     0.3637360
  C        0.0936770    -1.0844130    -0.4156830
  C       -0.3593510     0.2288580    -0.1728470
  C        2.1500350     0.1348000     1.1432270
  C       -1.6973100     0.4876920     0.1815770
  C        0.5874820     1.3794060    -0.3635620
  C       -0.8057180    -2.1460500    -0.2745700
  C       -2.5635920    -0.6025190     0.3218070
  C       -2.1294290    -1.9083920     0.0915650
  C       -2.2005820     1.8899870     0.4130340
  H        1.6305660    -2.3487650    -1.2074160
  H        1.8022820    -0.6509930    -1.6251500
  H        2.4785080    -1.9866810     1.0363320
  H        3.5296620    -1.0584230    -0.0385230
  H        1.3070990    -0.0748920     1.8087120
  H        2.9845300     0.4555350     1.7739000
  H        2.4430930     2.0063180     0.1171350
  H       -0.4670580    -3.1628320    -0.4675050
  H       -3.5988730    -0.4222000     0.6058720
  H       -2.8229980    -2.7393000     0.2003190
  H       -1.5534710     2.4410460     1.1016880
  H       -2.2209110     2.4548110    -0.5213210
  H       -3.2087000     1.8617690     0.8360960
units angstrom
no_reorient  #important for SAPT in psi4, default
symmetry c1  #important for SAPT in psi4, default
}

set PROPERTIES_ORIGIN ["COM"]
properties('MP2/aug-cc-pvtz', properties = ['dipole'])
--------------------------------------------------------------------------

    Molecular point group: c1
  Charge       = 0
  Multiplicity = 1
  Basis Set: AUG-CC-PVTZ
    Blend: AUG-CC-PVTZ
  Basis Set: (AUG-CC-PVTZ AUX)
    Blend: AUG-CC-PVTZ-JKFIT

    Orbital Energies [Eh]
    ---------------------

    Doubly Occupied:

       1A    -20.512835     2A    -15.582233     3A    -11.350662
       4A    -11.272101     5A    -11.254224     6A    -11.253702
       7A    -11.244504     8A    -11.242993     9A    -11.242025
      10A    -11.239671    11A    -11.235171    12A    -11.232585
      13A    -11.216032    14A     -1.367941    15A     -1.240078
      16A     -1.163925    17A     -1.088700    18A     -1.045554
      19A     -1.035764    20A     -0.948065    21A     -0.934342
      22A     -0.871985    23A     -0.824323    24A     -0.785241
      25A     -0.769769    26A     -0.695622    27A     -0.687168
      28A     -0.660431    29A     -0.659407    30A     -0.627916
      31A     -0.615482    32A     -0.593427    33A     -0.583293
      34A     -0.570238    35A     -0.566793    36A     -0.555135
      37A     -0.531034    38A     -0.528002    39A     -0.520582
      40A     -0.500718    41A     -0.489930    42A     -0.472766
      43A     -0.463797    44A     -0.417274    45A     -0.389796
      46A     -0.336379    47A     -0.327426

  @DF-RHF Final Energy:  -553.63010239158984

   => Energetics <=

    Nuclear Repulsion Energy =            797.7862451107234847
    One-Electron Energy =               -2335.3386117886202555
    Two-Electron Energy =                 983.9222642863069268
    Total Energy =                       -553.6301023915898440
  Basis Set: (AUG-CC-PVTZ AUX)
    Blend: AUG-CC-PVTZ-RI
    Molecular point group: c1

    Geometry (in Angstrom), charge = 0, multiplicity = 1:

       Center              X                  Y                   Z               Mass
    ------------   -----------------  -----------------  -----------------  -----------------
         O            0.328704146872     2.345361572393    -1.028501177791    15.994914619570
         N            1.803930146872     1.223635572393     0.299948822209    14.003074004430
         C            1.544349146872    -1.357116427607    -0.791700177791    12.000000000000
         C            2.486294846872    -1.052348627607     0.383593822209    12.000000000000
         C            0.109282146872    -1.109495427607    -0.395825177791    12.000000000000
         C           -0.343745853128     0.203775572393    -0.152989177791    12.000000000000
         C            2.165640146872     0.109717572393     1.163084822209    12.000000000000
         C           -1.681704853128     0.462609572393     0.201434822209    12.000000000000
         C            0.603087146872     1.354323572393    -0.343704177791    12.000000000000
         C           -0.790112853128    -2.171132427607    -0.254712177791    12.000000000000
         C           -2.547986853128    -0.627601427607     0.341664822209    12.000000000000
         C           -2.113823853128    -1.933474427607     0.111422822209    12.000000000000
         C           -2.184976853128     1.864904572393     0.432891822209    12.000000000000
         H            1.646171146872    -2.373847427607    -1.187558177791     1.007825032230
         H            1.817887146872    -0.676075427607    -1.605292177791     1.007825032230
         H            2.494113146872    -2.011763427607     1.056189822209     1.007825032230
         H            3.545267146872    -1.083505427607    -0.018665177791     1.007825032230
         H            1.322704146872    -0.099974427607     1.828569822209     1.007825032230
         H            3.000135146872     0.430452572393     1.793757822209     1.007825032230
         H            2.458698146872     1.981235572393     0.136992822209     1.007825032230
         H           -0.451452853128    -3.187914427607    -0.447647177791     1.007825032230
         H           -3.583267853128    -0.447282427607     0.625729822209     1.007825032230
         H           -2.807392853128    -2.764382427607     0.220176822209     1.007825032230
         H           -1.537865853128     2.415963572393     1.121545822209     1.007825032230
         H           -2.205305853128     2.429728572393    -0.501463177791     1.007825032230
         H           -3.193094853128     1.836686572393     0.855953822209     1.007825032230

  Basis Set: AUG-CC-PVTZ
    Blend: AUG-CC-PVTZ
  Basis Set: (AUG-CC-PVTZ AUX)
    Blend: AUG-CC-PVTZ-JKFIT
	 Reference Energy          =    -553.6301023915898440 [Eh]
	 Singles Energy            =      -0.0000000000000000 [Eh]
	 Same-Spin Energy          =      -0.6051372422477649 [Eh]
	 Opposite-Spin Energy      =      -1.9043089162082354 [Eh]
	 Correlation Energy        =      -2.5094461584560004 [Eh]
	 Total Energy              =    -556.1395485500457880 [Eh]

	 ================> DF-SCS-MP2 Energies <==================
	-----------------------------------------------------------
	 SCS Same-Spin Scale       =       0.3333333333333333 [-]
	 SCS Opposite-Spin Scale   =       1.2000000000000000 [-]
	 SCS Same-Spin Energy      =      -0.2017124140825883 [Eh]
	 SCS Opposite-Spin Energy  =      -2.2851706994498824 [Eh]
	 SCS Correlation Energy    =      -2.4868831135324707 [Eh]
	 SCS Total Energy          =    -556.1169855051223294 [Eh]
	-----------------------------------------------------------

  Dipole Moment: [D]
     X:     1.7210      Y:    -2.5166      Z:     2.1896     Total:     3.7536

*** Psi4 exiting successfully. Buy a developer a beer!
