                               Psi4 1.4a3.dev225

  ==> Input File <==

--------------------------------------------------------------------------
#psi4
#
memory 32 gb

molecule  {
0 1
  O        0.3130990     2.3704440    -1.0483590
  N        1.7883250     1.2487180     0.2800910
  C        1.5287440    -1.3320340    -0.8115580
  C        2.5082430    -1.1273300     0.3546920
  C        0.0936770    -1.0844130    -0.4156830
  C       -0.3593510     0.2288580    -0.1728470
  C        2.1547153     0.1183092     1.1329241
  C       -1.6973100     0.4876920     0.1815770
  C        0.5874820     1.3794060    -0.3635620
  C       -0.8057180    -2.1460500    -0.2745700
  C       -2.5635920    -0.6025190     0.3218070
  C       -2.1294290    -1.9083920     0.0915650
  C       -2.2005820     1.8899870     0.4130340
  H        1.6305660    -2.3487650    -1.2074160
  H        1.8022820    -0.6509930    -1.6251500
  H        2.4785080    -1.9866810     1.0363320
  H        3.5296620    -1.0584230    -0.0385230
  H        1.3070990    -0.0748920     1.8087120
  H        2.9845300     0.4555350     1.7739000
  H        2.4430930     2.0063180     0.1171350
  H       -0.4670580    -3.1628320    -0.4675050
  H       -3.5988730    -0.4222000     0.6058720
  H       -2.8229980    -2.7393000     0.2003190
  H       -1.5534710     2.4410460     1.1016880
  H       -2.2209110     2.4548110    -0.5213210
  H       -3.2087000     1.8617690     0.8360960
units angstrom
no_reorient  #important for SAPT in psi4, default
symmetry c1  #important for SAPT in psi4, default
}

set PROPERTIES_ORIGIN ["COM"]
properties('MP2/aug-cc-pvtz', properties = ['dipole'])
--------------------------------------------------------------------------

    Molecular point group: c1
  Charge       = 0
  Multiplicity = 1
  Basis Set: AUG-CC-PVTZ
    Blend: AUG-CC-PVTZ
  Basis Set: (AUG-CC-PVTZ AUX)
    Blend: AUG-CC-PVTZ-JKFIT

    Orbital Energies [Eh]
    ---------------------

    Doubly Occupied:

       1A    -20.512368     2A    -15.582770     3A    -11.349920
       4A    -11.275799     5A    -11.254325     6A    -11.253411
       7A    -11.244365     8A    -11.241975     9A    -11.238565
      10A    -11.237203    11A    -11.235339    12A    -11.232706
      13A    -11.215803    14A     -1.367182    15A     -1.234010
      16A     -1.163590    17A     -1.086048    18A     -1.044897
      19A     -1.030248    20A     -0.943388    21A     -0.932858
      22A     -0.873329    23A     -0.829900    24A     -0.785012
      25A     -0.769441    26A     -0.693519    27A     -0.682218
      28A     -0.660098    29A     -0.657953    30A     -0.621002
      31A     -0.615723    32A     -0.591103    33A     -0.583635
      34A     -0.569859    35A     -0.565707    36A     -0.552989
      37A     -0.531365    38A     -0.529371    39A     -0.515211
      40A     -0.505013    41A     -0.489126    42A     -0.479270
      43A     -0.473603    44A     -0.417090    45A     -0.387065
      46A     -0.336370    47A     -0.327547

  @DF-RHF Final Energy:  -553.64257598442168

   => Energetics <=

    Nuclear Repulsion Energy =            796.0951399797760359
    One-Electron Energy =               -2332.0368465406877476
    Two-Electron Energy =                 982.2991305764901426
    Total Energy =                       -553.6425759844216827
  Basis Set: (AUG-CC-PVTZ AUX)
    Blend: AUG-CC-PVTZ-RI
    Molecular point group: c1

    Geometry (in Angstrom), charge = 0, multiplicity = 1:

       Center              X                  Y                   Z               Mass
    ------------   -----------------  -----------------  -----------------  -----------------
         O            0.325809777782     2.353349336438    -1.027175288704    15.994914619570
         N            1.801035777782     1.231623336438     0.301274711296    14.003074004430
         C            1.541454777782    -1.349128663562    -0.790374288704    12.000000000000
         C            2.520953777782    -1.144424663562     0.375875711296    12.000000000000
         C            0.106387777782    -1.101507663562    -0.394499288704    12.000000000000
         C           -0.346640222218     0.211763336438    -0.151663288704    12.000000000000
         C            2.167426077782     0.101214536438     1.154107811296    12.000000000000
         C           -1.684599222218     0.470597336438     0.202760711296    12.000000000000
         C            0.600192777782     1.362311336438    -0.342378288704    12.000000000000
         C           -0.793007222218    -2.163144663562    -0.253386288704    12.000000000000
         C           -2.550881222218    -0.619613663562     0.342990711296    12.000000000000
         C           -2.116718222218    -1.925486663562     0.112748711296    12.000000000000
         C           -2.187871222218     1.872892336438     0.434217711296    12.000000000000
         H            1.643276777782    -2.365859663562    -1.186232288704     1.007825032230
         H            1.814992777782    -0.668087663562    -1.603966288704     1.007825032230
         H            2.491218777782    -2.003775663562     1.057515711296     1.007825032230
         H            3.542372777782    -1.075517663562    -0.017339288704     1.007825032230
         H            1.319809777782    -0.091986663562     1.829895711296     1.007825032230
         H            2.997240777782     0.438440336438     1.795083711296     1.007825032230
         H            2.455803777782     1.989223336438     0.138318711296     1.007825032230
         H           -0.454347222218    -3.179926663562    -0.446321288704     1.007825032230
         H           -3.586162222218    -0.439294663562     0.627055711296     1.007825032230
         H           -2.810287222218    -2.756394663562     0.221502711296     1.007825032230
         H           -1.540760222218     2.423951336438     1.122871711296     1.007825032230
         H           -2.208200222218     2.437716336438    -0.500137288704     1.007825032230
         H           -3.195989222218     1.844674336438     0.857279711296     1.007825032230

  Basis Set: AUG-CC-PVTZ
    Blend: AUG-CC-PVTZ
  Basis Set: (AUG-CC-PVTZ AUX)
    Blend: AUG-CC-PVTZ-JKFIT
	 Reference Energy          =    -553.6425759844216827 [Eh]
	 Singles Energy            =      -0.0000000000000000 [Eh]
	 Same-Spin Energy          =      -0.6043009775141690 [Eh]
	 Opposite-Spin Energy      =      -1.9032481225301798 [Eh]
	 Correlation Energy        =      -2.5075491000443488 [Eh]
	 Total Energy              =    -556.1501250844660262 [Eh]

	 ================> DF-SCS-MP2 Energies <==================
	-----------------------------------------------------------
	 SCS Same-Spin Scale       =       0.3333333333333333 [-]
	 SCS Opposite-Spin Scale   =       1.2000000000000000 [-]
	 SCS Same-Spin Energy      =      -0.2014336591713897 [Eh]
	 SCS Opposite-Spin Energy  =      -2.2838977470362156 [Eh]
	 SCS Correlation Energy    =      -2.4853314062076053 [Eh]
	 SCS Total Energy          =    -556.1279073906292751 [Eh]
	-----------------------------------------------------------

  Dipole Moment: [D]
     X:     1.7395      Y:    -2.5704      Z:     2.1993     Total:     3.8039

*** Psi4 exiting successfully. Buy a developer a beer!
