                               Psi4 1.4a3.dev225

  ==> Input File <==

--------------------------------------------------------------------------
#psi4
#
memory 32 gb

molecule  {
0 1
  O        0.3130990     2.3704440    -1.0483590
  N        1.7883250     1.2487180     0.2800910
  C        1.5287440    -1.3320340    -0.8115580
  C        2.5082430    -1.1273300     0.3546920
  C        0.0936770    -1.0844130    -0.4156830
  C       -0.3593510     0.2288580    -0.1728470
  C        2.1500350     0.1348000     1.1432270
  C       -1.6973100     0.4876920     0.1815770
  C        0.5874820     1.3794060    -0.3635620
  C       -0.8057180    -2.1460500    -0.2745700
  C       -2.5635920    -0.6025190     0.3218070
  C       -2.0944150    -1.7668748     0.0972272
  C       -2.2005820     1.8899870     0.4130340
  H        1.6305660    -2.3487650    -1.2074160
  H        1.8022820    -0.6509930    -1.6251500
  H        2.4785080    -1.9866810     1.0363320
  H        3.5296620    -1.0584230    -0.0385230
  H        1.3070990    -0.0748920     1.8087120
  H        2.9845300     0.4555350     1.7739000
  H        2.4430930     2.0063180     0.1171350
  H       -0.4670580    -3.1628320    -0.4675050
  H       -3.5988730    -0.4222000     0.6058720
  H       -2.8229980    -2.7393000     0.2003190
  H       -1.5534710     2.4410460     1.1016880
  H       -2.2209110     2.4548110    -0.5213210
  H       -3.2087000     1.8617690     0.8360960
units angstrom
no_reorient  #important for SAPT in psi4, default
symmetry c1  #important for SAPT in psi4, default
}

set PROPERTIES_ORIGIN ["COM"]
properties('MP2/aug-cc-pvtz', properties = ['dipole'])
--------------------------------------------------------------------------

    Molecular point group: c1
  Charge       = 0
  Multiplicity = 1
  Basis Set: AUG-CC-PVTZ
    Blend: AUG-CC-PVTZ
  Basis Set: (AUG-CC-PVTZ AUX)
    Blend: AUG-CC-PVTZ-JKFIT

    Orbital Energies [Eh]
    ---------------------

    Doubly Occupied:

       1A    -20.512193     2A    -15.582720     3A    -11.349950
       4A    -11.274988     5A    -11.256261     6A    -11.253833
       7A    -11.240897     8A    -11.239288     9A    -11.237836
      10A    -11.237243    11A    -11.234019    12A    -11.219331
      13A    -11.217038    14A     -1.367175    15A     -1.235243
      16A     -1.176317    17A     -1.089413    18A     -1.046884
      19A     -1.034474    20A     -0.945104    21A     -0.941541
      22A     -0.866609    23A     -0.832282    24A     -0.780964
      25A     -0.770482    26A     -0.698320    27A     -0.686142
      28A     -0.662380    29A     -0.651347    30A     -0.621719
      31A     -0.613938    32A     -0.589832    33A     -0.585837
      34A     -0.571652    35A     -0.563671    36A     -0.554358
      37A     -0.535333    38A     -0.532356    39A     -0.516620
      40A     -0.495202    41A     -0.489528    42A     -0.485837
      43A     -0.461782    44A     -0.415696    45A     -0.386156
      46A     -0.348478    47A     -0.325858

  @DF-RHF Final Energy:  -553.61613108176550

   => Energetics <=

    Nuclear Repulsion Energy =            798.9307134129680890
    One-Electron Energy =               -2337.6254380075120025
    Two-Electron Energy =                 985.0785935127784114
    Total Energy =                       -553.6161310817655021
  Basis Set: (AUG-CC-PVTZ AUX)
    Blend: AUG-CC-PVTZ-RI
    Molecular point group: c1

    Geometry (in Angstrom), charge = 0, multiplicity = 1:

       Center              X                  Y                   Z               Mass
    ------------   -----------------  -----------------  -----------------  -----------------
         O            0.323730937151     2.342520672266    -1.028269414991    15.994914619570
         N            1.798956937151     1.220794672266     0.300180585009    14.003074004430
         C            1.539375937151    -1.359957327734    -0.791468414991    12.000000000000
         C            2.518874937151    -1.155253327734     0.374781585009    12.000000000000
         C            0.104308937151    -1.112336327734    -0.395593414991    12.000000000000
         C           -0.348719062849     0.200934672266    -0.152757414991    12.000000000000
         C            2.160666937151     0.106876672266     1.163316585009    12.000000000000
         C           -1.686678062849     0.459768672266     0.201666585009    12.000000000000
         C            0.598113937151     1.351482672266    -0.343472414991    12.000000000000
         C           -0.795086062849    -2.173973327734    -0.254480414991    12.000000000000
         C           -2.552960062849    -0.630442327734     0.341896585009    12.000000000000
         C           -2.083783062849    -1.794798127734     0.117316785009    12.000000000000
         C           -2.189950062849     1.862063672266     0.433123585009    12.000000000000
         H            1.641197937151    -2.376688327734    -1.187326414991     1.007825032230
         H            1.812913937151    -0.678916327734    -1.605060414991     1.007825032230
         H            2.489139937151    -2.014604327734     1.056421585009     1.007825032230
         H            3.540293937151    -1.086346327734    -0.018433414991     1.007825032230
         H            1.317730937151    -0.102815327734     1.828801585009     1.007825032230
         H            2.995161937151     0.427611672266     1.793989585009     1.007825032230
         H            2.453724937151     1.978394672266     0.137224585009     1.007825032230
         H           -0.456426062849    -3.190755327734    -0.447415414991     1.007825032230
         H           -3.588241062849    -0.450123327734     0.625961585009     1.007825032230
         H           -2.812366062849    -2.767223327734     0.220408585009     1.007825032230
         H           -1.542839062849     2.413122672266     1.121777585009     1.007825032230
         H           -2.210279062849     2.426887672266    -0.501231414991     1.007825032230
         H           -3.198068062849     1.833845672266     0.856185585009     1.007825032230

  Basis Set: AUG-CC-PVTZ
    Blend: AUG-CC-PVTZ
  Basis Set: (AUG-CC-PVTZ AUX)
    Blend: AUG-CC-PVTZ-JKFIT
	 Reference Energy          =    -553.6161310817655021 [Eh]
	 Singles Energy            =      -0.0000000000000000 [Eh]
	 Same-Spin Energy          =      -0.6043026609935853 [Eh]
	 Opposite-Spin Energy      =      -1.9032837254552937 [Eh]
	 Correlation Energy        =      -2.5075863864488790 [Eh]
	 Total Energy              =    -556.1237174682144087 [Eh]

	 ================> DF-SCS-MP2 Energies <==================
	-----------------------------------------------------------
	 SCS Same-Spin Scale       =       0.3333333333333333 [-]
	 SCS Opposite-Spin Scale   =       1.2000000000000000 [-]
	 SCS Same-Spin Energy      =      -0.2014342203311951 [Eh]
	 SCS Opposite-Spin Energy  =      -2.2839404705463524 [Eh]
	 SCS Correlation Energy    =      -2.4853746908775474 [Eh]
	 SCS Total Energy          =    -556.1015057726430086 [Eh]
	-----------------------------------------------------------

  Dipole Moment: [D]
     X:     1.7966      Y:    -2.4541      Z:     2.1899     Total:     3.7479

*** Psi4 exiting successfully. Buy a developer a beer!
