                               Psi4 1.4a3.dev225

  ==> Input File <==

--------------------------------------------------------------------------
#psi4
#
memory 32 gb

molecule  {
0 1
  O        0.3130990     2.3704440    -1.0483590
  N        1.7883250     1.2487180     0.2800910
  C        1.5287440    -1.3320340    -0.8115580
  C        2.5082430    -1.1273300     0.3546920
  C        0.0936770    -1.0844130    -0.4156830
  C       -0.3593510     0.2288580    -0.1728470
  C        2.1500350     0.1348000     1.1432270
  C       -1.6973100     0.4876920     0.1815770
  C        0.5874820     1.3794060    -0.3635620
  C       -0.8057180    -2.1460500    -0.2745700
  C       -2.5635920    -0.6025190     0.3218070
  C       -2.0671960    -2.0955760     0.0585621
  C       -2.2005820     1.8899870     0.4130340
  H        1.6305660    -2.3487650    -1.2074160
  H        1.8022820    -0.6509930    -1.6251500
  H        2.4785080    -1.9866810     1.0363320
  H        3.5296620    -1.0584230    -0.0385230
  H        1.3070990    -0.0748920     1.8087120
  H        2.9845300     0.4555350     1.7739000
  H        2.4430930     2.0063180     0.1171350
  H       -0.4670580    -3.1628320    -0.4675050
  H       -3.5988730    -0.4222000     0.6058720
  H       -2.8229980    -2.7393000     0.2003190
  H       -1.5534710     2.4410460     1.1016880
  H       -2.2209110     2.4548110    -0.5213210
  H       -3.2087000     1.8617690     0.8360960
units angstrom
no_reorient  #important for SAPT in psi4, default
symmetry c1  #important for SAPT in psi4, default
}

set PROPERTIES_ORIGIN ["COM"]
properties('MP2/aug-cc-pvtz', properties = ['dipole'])
--------------------------------------------------------------------------

    Molecular point group: c1
  Charge       = 0
  Multiplicity = 1
  Basis Set: AUG-CC-PVTZ
    Blend: AUG-CC-PVTZ
  Basis Set: (AUG-CC-PVTZ AUX)
    Blend: AUG-CC-PVTZ-JKFIT

    Orbital Energies [Eh]
    ---------------------

    Doubly Occupied:

       1A    -20.513860     2A    -15.584119     3A    -11.351509
       4A    -11.275415     5A    -11.257119     6A    -11.249344
       7A    -11.246419     8A    -11.246046     9A    -11.245324
      10A    -11.239780    11A    -11.238315    12A    -11.230678
      13A    -11.214105    14A     -1.368700    15A     -1.236202
      16A     -1.159943    17A     -1.081541    18A     -1.056126
      19A     -1.021629    20A     -0.943028    21A     -0.922055
      22A     -0.885098    23A     -0.827649    24A     -0.789368
      25A     -0.770334    26A     -0.694758    27A     -0.687944
      28A     -0.668767    29A     -0.653410    30A     -0.631968
      31A     -0.617053    32A     -0.590544    33A     -0.581622
      34A     -0.570627    35A     -0.561964    36A     -0.552094
      37A     -0.535819    38A     -0.531792    39A     -0.514252
      40A     -0.497038    41A     -0.488595    42A     -0.475864
      43A     -0.456596    44A     -0.417581    45A     -0.386670
      46A     -0.349755    47A     -0.313450

  @DF-RHF Final Energy:  -553.60055598105214

   => Energetics <=

    Nuclear Repulsion Energy =            794.0648847890167872
    One-Electron Energy =               -2327.8671380311634493
    Two-Electron Energy =                 980.2016972610945231
    Total Energy =                       -553.6005559810521390
  Basis Set: (AUG-CC-PVTZ AUX)
    Blend: AUG-CC-PVTZ-RI
    Molecular point group: c1

    Geometry (in Angstrom), charge = 0, multiplicity = 1:

       Center              X                  Y                   Z               Mass
    ------------   -----------------  -----------------  -----------------  -----------------
         O            0.321865554322     2.365047347546    -1.025619603696    15.994914619570
         N            1.797091554322     1.243321347546     0.302830396304    14.003074004430
         C            1.537510554322    -1.337430652454    -0.788818603696    12.000000000000
         C            2.517009554322    -1.132726652454     0.377431396304    12.000000000000
         C            0.102443554322    -1.089809652454    -0.392943603696    12.000000000000
         C           -0.350584445678     0.223461347546    -0.150107603696    12.000000000000
         C            2.158801554322     0.129403347546     1.165966396304    12.000000000000
         C           -1.688543445678     0.482295347546     0.204316396304    12.000000000000
         C            0.596248554322     1.374009347546    -0.340822603696    12.000000000000
         C           -0.796951445678    -2.151446652454    -0.251830603696    12.000000000000
         C           -2.554825445678    -0.607915652454     0.344546396304    12.000000000000
         C           -2.058429445678    -2.100972652454     0.081301496304    12.000000000000
         C           -2.191815445678     1.884590347546     0.435773396304    12.000000000000
         H            1.639332554322    -2.354161652454    -1.184676603696     1.007825032230
         H            1.811048554322    -0.656389652454    -1.602410603696     1.007825032230
         H            2.487274554322    -1.992077652454     1.059071396304     1.007825032230
         H            3.538428554322    -1.063819652454    -0.015783603696     1.007825032230
         H            1.315865554322    -0.080288652454     1.831451396304     1.007825032230
         H            2.993296554322     0.450138347546     1.796639396304     1.007825032230
         H            2.451859554322     2.000921347546     0.139874396304     1.007825032230
         H           -0.458291445678    -3.168228652454    -0.444765603696     1.007825032230
         H           -3.590106445678    -0.427596652454     0.628611396304     1.007825032230
         H           -2.814231445678    -2.744696652454     0.223058396304     1.007825032230
         H           -1.544704445678     2.435649347546     1.124427396304     1.007825032230
         H           -2.212144445678     2.449414347546    -0.498581603696     1.007825032230
         H           -3.199933445678     1.856372347546     0.858835396304     1.007825032230

  Basis Set: AUG-CC-PVTZ
    Blend: AUG-CC-PVTZ
  Basis Set: (AUG-CC-PVTZ AUX)
    Blend: AUG-CC-PVTZ-JKFIT
	 Reference Energy          =    -553.6005559810521390 [Eh]
	 Singles Energy            =      -0.0000000000000000 [Eh]
	 Same-Spin Energy          =      -0.6041594781714872 [Eh]
	 Opposite-Spin Energy      =      -1.9064153135816551 [Eh]
	 Correlation Energy        =      -2.5105747917531422 [Eh]
	 Total Energy              =    -556.1111307728052680 [Eh]

	 ================> DF-SCS-MP2 Energies <==================
	-----------------------------------------------------------
	 SCS Same-Spin Scale       =       0.3333333333333333 [-]
	 SCS Opposite-Spin Scale   =       1.2000000000000000 [-]
	 SCS Same-Spin Energy      =      -0.2013864927238291 [Eh]
	 SCS Opposite-Spin Energy  =      -2.2876983762979859 [Eh]
	 SCS Correlation Energy    =      -2.4890848690218150 [Eh]
	 SCS Total Energy          =    -556.0896408500739199 [Eh]
	-----------------------------------------------------------

  Dipole Moment: [D]
     X:     1.7337      Y:    -2.5530      Z:     2.2079     Total:     3.7946

*** Psi4 exiting successfully. Buy a developer a beer!
