                               Psi4 1.4a3.dev225

  ==> Input File <==

--------------------------------------------------------------------------
#psi4
#
memory 32 gb

molecule  {
0 1
  O        0.3130990     2.3704440    -1.0483590
  N        1.7883250     1.2487180     0.2800910
  C        1.5287440    -1.3320340    -0.8115580
  C        2.5082430    -1.1273300     0.3546920
  C        0.0936770    -1.0844130    -0.4156830
  C       -0.3593510     0.2288580    -0.1728470
  C        2.1500350     0.1348000     1.1432270
  C       -1.6973100     0.4876920     0.1815770
  C        0.5874820     1.3794060    -0.3635620
  C       -0.8378729    -2.1840054    -0.2695250
  C       -2.5635920    -0.6025190     0.3218070
  C       -2.1294290    -1.9083920     0.0915650
  C       -2.2005820     1.8899870     0.4130340
  H        1.6305660    -2.3487650    -1.2074160
  H        1.8022820    -0.6509930    -1.6251500
  H        2.4785080    -1.9866810     1.0363320
  H        3.5296620    -1.0584230    -0.0385230
  H        1.3070990    -0.0748920     1.8087120
  H        2.9845300     0.4555350     1.7739000
  H        2.4430930     2.0063180     0.1171350
  H       -0.4670580    -3.1628320    -0.4675050
  H       -3.5988730    -0.4222000     0.6058720
  H       -2.8229980    -2.7393000     0.2003190
  H       -1.5534710     2.4410460     1.1016880
  H       -2.2209110     2.4548110    -0.5213210
  H       -3.2087000     1.8617690     0.8360960
units angstrom
no_reorient  #important for SAPT in psi4, default
symmetry c1  #important for SAPT in psi4, default
}

set PROPERTIES_ORIGIN ["COM"]
properties('MP2/aug-cc-pvtz', properties = ['dipole'])
--------------------------------------------------------------------------

    Molecular point group: c1
  Charge       = 0
  Multiplicity = 1
  Basis Set: AUG-CC-PVTZ
    Blend: AUG-CC-PVTZ
  Basis Set: (AUG-CC-PVTZ AUX)
    Blend: AUG-CC-PVTZ-JKFIT

    Orbital Energies [Eh]
    ---------------------

    Doubly Occupied:

       1A    -20.512914     2A    -15.583345     3A    -11.350599
       4A    -11.275064     5A    -11.260057     6A    -11.253481
       7A    -11.242207     8A    -11.241552     9A    -11.239107
      10A    -11.237984    11A    -11.235863    12A    -11.231833
      13A    -11.215801    14A     -1.367828    15A     -1.235512
      16A     -1.161235    17A     -1.083764    18A     -1.047510
      19A     -1.027215    20A     -0.943105    21A     -0.932180
      22A     -0.873898    23A     -0.829699    24A     -0.783877
      25A     -0.771035    26A     -0.695219    27A     -0.683486
      28A     -0.660218    29A     -0.658203    30A     -0.619406
      31A     -0.615534    32A     -0.592160    33A     -0.584188
      34A     -0.572063    35A     -0.565920    36A     -0.552541
      37A     -0.531733    38A     -0.530781    39A     -0.514530
      40A     -0.503337    41A     -0.486951    42A     -0.479150
      43A     -0.476017    44A     -0.416976    45A     -0.386297
      46A     -0.339990    47A     -0.322587

  @DF-RHF Final Energy:  -553.64012469404463

   => Energetics <=

    Nuclear Repulsion Energy =            795.1467895626874451
    One-Electron Energy =               -2330.1259223668425875
    Two-Electron Energy =                 981.3390081101105125
    Total Energy =                       -553.6401246940446299
  Basis Set: (AUG-CC-PVTZ AUX)
    Blend: AUG-CC-PVTZ-RI
    Molecular point group: c1

    Geometry (in Angstrom), charge = 0, multiplicity = 1:

       Center              X                  Y                   Z               Mass
    ------------   -----------------  -----------------  -----------------  -----------------
         O            0.328334181676     2.354820356544    -1.028227116806    15.994914619570
         N            1.803560181676     1.233094356544     0.300222883194    14.003074004430
         C            1.543979181676    -1.347657643456    -0.791426116806    12.000000000000
         C            2.523478181676    -1.142953643456     0.374823883194    12.000000000000
         C            0.108912181676    -1.100036643456    -0.395551116806    12.000000000000
         C           -0.344115818324     0.213234356544    -0.152715116806    12.000000000000
         C            2.165270181676     0.119176356544     1.163358883194    12.000000000000
         C           -1.682074818324     0.472068356544     0.201708883194    12.000000000000
         C            0.602717181676     1.363782356544    -0.343430116806    12.000000000000
         C           -0.822637718324    -2.199629043456    -0.249393116806    12.000000000000
         C           -2.548356818324    -0.618142643456     0.341938883194    12.000000000000
         C           -2.114193818324    -1.924015643456     0.111696883194    12.000000000000
         C           -2.185346818324     1.874363356544     0.433165883194    12.000000000000
         H            1.645801181676    -2.364388643456    -1.187284116806     1.007825032230
         H            1.817517181676    -0.666616643456    -1.605018116806     1.007825032230
         H            2.493743181676    -2.002304643456     1.056463883194     1.007825032230
         H            3.544897181676    -1.074046643456    -0.018391116806     1.007825032230
         H            1.322334181676    -0.090515643456     1.828843883194     1.007825032230
         H            2.999765181676     0.439911356544     1.794031883194     1.007825032230
         H            2.458328181676     1.990694356544     0.137266883194     1.007825032230
         H           -0.451822818324    -3.178455643456    -0.447373116806     1.007825032230
         H           -3.583637818324    -0.437823643456     0.626003883194     1.007825032230
         H           -2.807762818324    -2.754923643456     0.220450883194     1.007825032230
         H           -1.538235818324     2.425422356544     1.121819883194     1.007825032230
         H           -2.205675818324     2.439187356544    -0.501189116806     1.007825032230
         H           -3.193464818324     1.846145356544     0.856227883194     1.007825032230

  Basis Set: AUG-CC-PVTZ
    Blend: AUG-CC-PVTZ
  Basis Set: (AUG-CC-PVTZ AUX)
    Blend: AUG-CC-PVTZ-JKFIT
	 Reference Energy          =    -553.6401246940446299 [Eh]
	 Singles Energy            =      -0.0000000000000000 [Eh]
	 Same-Spin Energy          =      -0.6040979627327738 [Eh]
	 Opposite-Spin Energy      =      -1.9031736723943180 [Eh]
	 Correlation Energy        =      -2.5072716351270916 [Eh]
	 Total Energy              =    -556.1473963291716700 [Eh]

	 ================> DF-SCS-MP2 Energies <==================
	-----------------------------------------------------------
	 SCS Same-Spin Scale       =       0.3333333333333333 [-]
	 SCS Opposite-Spin Scale   =       1.2000000000000000 [-]
	 SCS Same-Spin Energy      =      -0.2013659875775913 [Eh]
	 SCS Opposite-Spin Energy  =      -2.2838084068731814 [Eh]
	 SCS Correlation Energy    =      -2.4851743944507727 [Eh]
	 SCS Total Energy          =    -556.1252990884953533 [Eh]
	-----------------------------------------------------------

  Dipole Moment: [D]
     X:     1.7530      Y:    -2.5459      Z:     2.1980     Total:     3.7929

*** Psi4 exiting successfully. Buy a developer a beer!
