                               Psi4 1.4a3.dev225

  ==> Input File <==

--------------------------------------------------------------------------
#psi4
#
memory 32 gb

molecule  {
0 1
  O        0.3130990     2.3704440    -1.0483590
  N        1.7883250     1.2487180     0.2800910
  C        1.5287440    -1.3320340    -0.8115580
  C        2.5082430    -1.1273300     0.3546920
  C        0.0936770    -1.0844130    -0.4156830
  C       -0.3593510     0.2288580    -0.1728470
  C        2.1500350     0.1348000     1.1432270
  C       -1.6973100     0.4876920     0.1815770
  C        0.5874820     1.3794060    -0.3635620
  C       -0.6770983    -1.9942286    -0.2947501
  C       -2.5635920    -0.6025190     0.3218070
  C       -2.1294290    -1.9083920     0.0915650
  C       -2.2005820     1.8899870     0.4130340
  H        1.6305660    -2.3487650    -1.2074160
  H        1.8022820    -0.6509930    -1.6251500
  H        2.4785080    -1.9866810     1.0363320
  H        3.5296620    -1.0584230    -0.0385230
  H        1.3070990    -0.0748920     1.8087120
  H        2.9845300     0.4555350     1.7739000
  H        2.4430930     2.0063180     0.1171350
  H       -0.4670580    -3.1628320    -0.4675050
  H       -3.5988730    -0.4222000     0.6058720
  H       -2.8229980    -2.7393000     0.2003190
  H       -1.5534710     2.4410460     1.1016880
  H       -2.2209110     2.4548110    -0.5213210
  H       -3.2087000     1.8617690     0.8360960
units angstrom
no_reorient  #important for SAPT in psi4, default
symmetry c1  #important for SAPT in psi4, default
}

set PROPERTIES_ORIGIN ["COM"]
properties('MP2/aug-cc-pvtz', properties = ['dipole'])
--------------------------------------------------------------------------

    Molecular point group: c1
  Charge       = 0
  Multiplicity = 1
  Basis Set: AUG-CC-PVTZ
    Blend: AUG-CC-PVTZ
  Basis Set: (AUG-CC-PVTZ AUX)
    Blend: AUG-CC-PVTZ-JKFIT

    Orbital Energies [Eh]
    ---------------------

    Doubly Occupied:

       1A    -20.511680     2A    -15.581848     3A    -11.349078
       4A    -11.274545     5A    -11.255269     6A    -11.254572
       7A    -11.241351     8A    -11.236265     9A    -11.235788
      10A    -11.234954    11A    -11.230369    12A    -11.223105
      13A    -11.216747    14A     -1.366550    15A     -1.235114
      16A     -1.181208    17A     -1.092291    18A     -1.044629
      19A     -1.026527    20A     -0.946871    21A     -0.940696
      22A     -0.868652    23A     -0.831563    24A     -0.788117
      25A     -0.763978    26A     -0.694229    27A     -0.678681
      28A     -0.660863    29A     -0.659074    30A     -0.625232
      31A     -0.615905    32A     -0.591182    33A     -0.582373
      34A     -0.571267    35A     -0.556326    36A     -0.553572
      37A     -0.534930    38A     -0.528809    39A     -0.513744
      40A     -0.509062    41A     -0.490895    42A     -0.483290
      43A     -0.444401    44A     -0.417049    45A     -0.385170
      46A     -0.358355    47A     -0.321571

  @DF-RHF Final Energy:  -553.58151911207574

   => Energetics <=

    Nuclear Repulsion Energy =            799.7529907304665358
    One-Electron Energy =               -2339.2535152494142494
    Two-Electron Energy =                 985.9190054068719746
    Total Energy =                       -553.5815191120757390
  Basis Set: (AUG-CC-PVTZ AUX)
    Blend: AUG-CC-PVTZ-RI
    Molecular point group: c1

    Geometry (in Angstrom), charge = 0, multiplicity = 1:

       Center              X                  Y                   Z               Mass
    ------------   -----------------  -----------------  -----------------  -----------------
         O            0.317315915824     2.341814500924    -1.026498380688    15.994914619570
         N            1.792541915824     1.220088500924     0.301951619312    14.003074004430
         C            1.532960915824    -1.360663499076    -0.789697380688    12.000000000000
         C            2.512459915824    -1.155959499076     0.376552619312    12.000000000000
         C            0.097893915824    -1.113042499076    -0.393822380688    12.000000000000
         C           -0.355134084176     0.200228500924    -0.150986380688    12.000000000000
         C            2.154251915824     0.106170500924     1.165087619312    12.000000000000
         C           -1.693093084176     0.459062500924     0.203437619312    12.000000000000
         C            0.591698915824     1.350776500924    -0.341701380688    12.000000000000
         C           -0.672881384176    -2.022858099076    -0.272889480688    12.000000000000
         C           -2.559375084176    -0.631148499076     0.343667619312    12.000000000000
         C           -2.125212084176    -1.937021499076     0.113425619312    12.000000000000
         C           -2.196365084176     1.861357500924     0.434894619312    12.000000000000
         H            1.634782915824    -2.377394499076    -1.185555380688     1.007825032230
         H            1.806498915824    -0.679622499076    -1.603289380688     1.007825032230
         H            2.482724915824    -2.015310499076     1.058192619312     1.007825032230
         H            3.533878915824    -1.087052499076    -0.016662380688     1.007825032230
         H            1.311315915824    -0.103521499076     1.830572619312     1.007825032230
         H            2.988746915824     0.426905500924     1.795760619312     1.007825032230
         H            2.447309915824     1.977688500924     0.138995619312     1.007825032230
         H           -0.462841084176    -3.191461499076    -0.445644380688     1.007825032230
         H           -3.594656084176    -0.450829499076     0.627732619312     1.007825032230
         H           -2.818781084176    -2.767929499076     0.222179619312     1.007825032230
         H           -1.549254084176     2.412416500924     1.123548619312     1.007825032230
         H           -2.216694084176     2.426181500924    -0.499460380688     1.007825032230
         H           -3.204483084176     1.833139500924     0.857956619312     1.007825032230

  Basis Set: AUG-CC-PVTZ
    Blend: AUG-CC-PVTZ
  Basis Set: (AUG-CC-PVTZ AUX)
    Blend: AUG-CC-PVTZ-JKFIT
	 Reference Energy          =    -553.5815191120757390 [Eh]
	 Singles Energy            =      -0.0000000000000000 [Eh]
	 Same-Spin Energy          =      -0.6037367869321709 [Eh]
	 Opposite-Spin Energy      =      -1.9049582373552267 [Eh]
	 Correlation Energy        =      -2.5086950242873978 [Eh]
	 Total Energy              =    -556.0902141363631017 [Eh]

	 ================> DF-SCS-MP2 Energies <==================
	-----------------------------------------------------------
	 SCS Same-Spin Scale       =       0.3333333333333333 [-]
	 SCS Opposite-Spin Scale   =       1.2000000000000000 [-]
	 SCS Same-Spin Energy      =      -0.2012455956440570 [Eh]
	 SCS Opposite-Spin Energy  =      -2.2859498848262718 [Eh]
	 SCS Correlation Energy    =      -2.4871954804703287 [Eh]
	 SCS Total Energy          =    -556.0687145925460300 [Eh]
	-----------------------------------------------------------

  Dipole Moment: [D]
     X:     1.6120      Y:    -2.4506      Z:     2.2447     Total:     3.6935

*** Psi4 exiting successfully. Buy a developer a beer!
