                               Psi4 1.4a3.dev225

  ==> Input File <==

--------------------------------------------------------------------------
#psi4
#
memory 32 gb

molecule  {
0 1
  O        0.3130990     2.3704440    -1.0483590
  N        1.7883250     1.2487180     0.2800910
  C        1.5287440    -1.3320340    -0.8115580
  C        2.5209910    -1.1246658     0.3698706
  C        0.0936770    -1.0844130    -0.4156830
  C       -0.3593510     0.2288580    -0.1728470
  C        2.1500350     0.1348000     1.1432270
  C       -1.6973100     0.4876920     0.1815770
  C        0.5874820     1.3794060    -0.3635620
  C       -0.8057180    -2.1460500    -0.2745700
  C       -2.5635920    -0.6025190     0.3218070
  C       -2.1294290    -1.9083920     0.0915650
  C       -2.2005820     1.8899870     0.4130340
  H        1.6305660    -2.3487650    -1.2074160
  H        1.8022820    -0.6509930    -1.6251500
  H        2.4785080    -1.9866810     1.0363320
  H        3.5296620    -1.0584230    -0.0385230
  H        1.3070990    -0.0748920     1.8087120
  H        2.9845300     0.4555350     1.7739000
  H        2.4430930     2.0063180     0.1171350
  H       -0.4670580    -3.1628320    -0.4675050
  H       -3.5988730    -0.4222000     0.6058720
  H       -2.8229980    -2.7393000     0.2003190
  H       -1.5534710     2.4410460     1.1016880
  H       -2.2209110     2.4548110    -0.5213210
  H       -3.2087000     1.8617690     0.8360960
units angstrom
no_reorient  #important for SAPT in psi4, default
symmetry c1  #important for SAPT in psi4, default
}

set PROPERTIES_ORIGIN ["COM"]
properties('MP2/aug-cc-pvtz', properties = ['dipole'])
--------------------------------------------------------------------------

    Molecular point group: c1
  Charge       = 0
  Multiplicity = 1
  Basis Set: AUG-CC-PVTZ
    Blend: AUG-CC-PVTZ
  Basis Set: (AUG-CC-PVTZ AUX)
    Blend: AUG-CC-PVTZ-JKFIT

    Orbital Energies [Eh]
    ---------------------

    Doubly Occupied:

       1A    -20.512760     2A    -15.583240     3A    -11.350358
       4A    -11.274689     5A    -11.254234     6A    -11.253421
       7A    -11.244334     8A    -11.241868     9A    -11.238824
      10A    -11.237104    11A    -11.235150    12A    -11.232586
      13A    -11.215857    14A     -1.367635    15A     -1.235394
      16A     -1.163476    17A     -1.083009    18A     -1.044541
      19A     -1.029303    20A     -0.942971    21A     -0.932541
      22A     -0.873792    23A     -0.830721    24A     -0.784864
      25A     -0.769939    26A     -0.693879    27A     -0.682886
      28A     -0.659879    29A     -0.658922    30A     -0.619513
      31A     -0.615373    32A     -0.591465    33A     -0.583276
      34A     -0.570075    35A     -0.565883    36A     -0.553477
      37A     -0.531318    38A     -0.530308    39A     -0.513399
      40A     -0.505934    41A     -0.488841    42A     -0.478665
      43A     -0.473712    44A     -0.417521    45A     -0.386728
      46A     -0.336281    47A     -0.327219

  @DF-RHF Final Energy:  -553.64301139783583

   => Energetics <=

    Nuclear Repulsion Energy =            795.7210346318531720
    One-Electron Energy =               -2331.2937585780082372
    Two-Electron Energy =                 981.9297125483192303
    Total Energy =                       -553.6430113978358349
  Basis Set: (AUG-CC-PVTZ AUX)
    Blend: AUG-CC-PVTZ-RI
    Molecular point group: c1

    Geometry (in Angstrom), charge = 0, multiplicity = 1:

       Center              X                  Y                   Z               Mass
    ------------   -----------------  -----------------  -----------------  -----------------
         O            0.325256879106     2.352036598714    -1.028921596524    15.994914619570
         N            1.800482879106     1.230310598714     0.299528403476    14.003074004430
         C            1.540901879106    -1.350441401286    -0.792120596524    12.000000000000
         C            2.533148879106    -1.143073201286     0.389308003476    12.000000000000
         C            0.105834879106    -1.102820401286    -0.396245596524    12.000000000000
         C           -0.347193120894     0.210450598714    -0.153409596524    12.000000000000
         C            2.162192879106     0.116392598714     1.162664403476    12.000000000000
         C           -1.685152120894     0.469284598714     0.201014403476    12.000000000000
         C            0.599639879106     1.360998598714    -0.344124596524    12.000000000000
         C           -0.793560120894    -2.164457401286    -0.255132596524    12.000000000000
         C           -2.551434120894    -0.620926401286     0.341244403476    12.000000000000
         C           -2.117271120894    -1.926799401286     0.111002403476    12.000000000000
         C           -2.188424120894     1.871579598714     0.432471403476    12.000000000000
         H            1.642723879106    -2.367172401286    -1.187978596524     1.007825032230
         H            1.814439879106    -0.669400401286    -1.605712596524     1.007825032230
         H            2.490665879106    -2.005088401286     1.055769403476     1.007825032230
         H            3.541819879106    -1.076830401286    -0.019085596524     1.007825032230
         H            1.319256879106    -0.093299401286     1.828149403476     1.007825032230
         H            2.996687879106     0.437127598714     1.793337403476     1.007825032230
         H            2.455250879106     1.987910598714     0.136572403476     1.007825032230
         H           -0.454900120894    -3.181239401286    -0.448067596524     1.007825032230
         H           -3.586715120894    -0.440607401286     0.625309403476     1.007825032230
         H           -2.810840120894    -2.757707401286     0.219756403476     1.007825032230
         H           -1.541313120894     2.422638598714     1.121125403476     1.007825032230
         H           -2.208753120894     2.436403598714    -0.501883596524     1.007825032230
         H           -3.196542120894     1.843361598714     0.855533403476     1.007825032230

  Basis Set: AUG-CC-PVTZ
    Blend: AUG-CC-PVTZ
  Basis Set: (AUG-CC-PVTZ AUX)
    Blend: AUG-CC-PVTZ-JKFIT
	 Reference Energy          =    -553.6430113978358349 [Eh]
	 Singles Energy            =      -0.0000000000000000 [Eh]
	 Same-Spin Energy          =      -0.6041250685643994 [Eh]
	 Opposite-Spin Energy      =      -1.9030226985058347 [Eh]
	 Correlation Energy        =      -2.5071477670702342 [Eh]
	 Total Energy              =    -556.1501591649060856 [Eh]

	 ================> DF-SCS-MP2 Energies <==================
	-----------------------------------------------------------
	 SCS Same-Spin Scale       =       0.3333333333333333 [-]
	 SCS Opposite-Spin Scale   =       1.2000000000000000 [-]
	 SCS Same-Spin Energy      =      -0.2013750228547998 [Eh]
	 SCS Opposite-Spin Energy  =      -2.2836272382070018 [Eh]
	 SCS Correlation Energy    =      -2.4850022610618017 [Eh]
	 SCS Total Energy          =    -556.1280136588976575 [Eh]
	-----------------------------------------------------------

  Dipole Moment: [D]
     X:     1.7360      Y:    -2.5432      Z:     2.2054     Total:     3.7876

*** Psi4 exiting successfully. Buy a developer a beer!
