                               Psi4 1.4a3.dev225

  ==> Input File <==

--------------------------------------------------------------------------
#psi4
#
memory 32 gb

molecule  {
0 1
  O        0.3130990     2.3704440    -1.0483590
  N        1.7883250     1.2487180     0.2800910
  C        1.5287440    -1.3320340    -0.8115580
  C        2.5082430    -1.1273300     0.3546920
  C        0.0936770    -1.0844130    -0.4156830
  C       -0.3593510     0.2288580    -0.1728470
  C        2.1500350     0.1348000     1.1432270
  C       -1.6973100     0.4876920     0.1815770
  C        0.5874820     1.3794060    -0.3635620
  C       -0.8057180    -2.1460500    -0.2745700
  C       -2.5635920    -0.6025190     0.3218070
  C       -2.1294290    -1.9083920     0.0915650
  C       -2.2005820     1.8899870     0.4130340
  H        1.6305660    -2.3487650    -1.2074160
  H        1.8022820    -0.6509930    -1.6251500
  H        2.4785080    -1.9866810     1.0363320
  H        3.5296620    -1.0584230    -0.0385230
  H        1.3070990    -0.0748920     1.8087120
  H        2.9845300     0.4555350     1.7739000
  H        2.4430930     2.0063180     0.1171350
  H       -0.4670580    -3.1628320    -0.4675050
  H       -3.5037695    -0.4387645     0.5797771
  H       -2.8229980    -2.7393000     0.2003190
  H       -1.5534710     2.4410460     1.1016880
  H       -2.2209110     2.4548110    -0.5213210
  H       -3.2087000     1.8617690     0.8360960
units angstrom
no_reorient  #important for SAPT in psi4, default
symmetry c1  #important for SAPT in psi4, default
}

set PROPERTIES_ORIGIN ["COM"]
properties('MP2/aug-cc-pvtz', properties = ['dipole'])
--------------------------------------------------------------------------

    Molecular point group: c1
  Charge       = 0
  Multiplicity = 1
  Basis Set: AUG-CC-PVTZ
    Blend: AUG-CC-PVTZ
  Basis Set: (AUG-CC-PVTZ AUX)
    Blend: AUG-CC-PVTZ-JKFIT

    Orbital Energies [Eh]
    ---------------------

    Doubly Occupied:

       1A    -20.512451     2A    -15.582808     3A    -11.349963
       4A    -11.274724     5A    -11.254002     6A    -11.252636
       7A    -11.243584     8A    -11.241289     9A    -11.238032
      10A    -11.237213    11A    -11.234637    12A    -11.220647
      13A    -11.216057    14A     -1.367340    15A     -1.235121
      16A     -1.163789    17A     -1.085261    18A     -1.044300
      19A     -1.030382    20A     -0.943045    21A     -0.936029
      22A     -0.874267    23A     -0.831131    24A     -0.789261
      25A     -0.769861    26A     -0.701473    27A     -0.683242
      28A     -0.660341    29A     -0.658455    30A     -0.620865
      31A     -0.615449    32A     -0.592278    33A     -0.586714
      34A     -0.569907    35A     -0.569041    36A     -0.553542
      37A     -0.533685    38A     -0.531386    39A     -0.514025
      40A     -0.505015    41A     -0.488635    42A     -0.478905
      43A     -0.474724    44A     -0.417205    45A     -0.385835
      46A     -0.335967    47A     -0.327094

  @DF-RHF Final Energy:  -553.63753436769116

   => Energetics <=

    Nuclear Repulsion Energy =            796.5580216238622597
    One-Electron Energy =               -2332.9278904181528560
    Two-Electron Energy =                 982.7323344265994365
    Total Energy =                       -553.6375343676911598
  Basis Set: (AUG-CC-PVTZ AUX)
    Blend: AUG-CC-PVTZ-RI
    Molecular point group: c1

    Geometry (in Angstrom), charge = 0, multiplicity = 1:

       Center              X                  Y                   Z               Mass
    ------------   -----------------  -----------------  -----------------  -----------------
         O            0.325583140702     2.352314523313    -1.027731176000    15.994914619570
         N            1.800809140702     1.230588523313     0.300718824000    14.003074004430
         C            1.541228140702    -1.350163476687    -0.790930176000    12.000000000000
         C            2.520727140702    -1.145459476687     0.375319824000    12.000000000000
         C            0.106161140702    -1.102542476687    -0.395055176000    12.000000000000
         C           -0.346866859298     0.210728523313    -0.152219176000    12.000000000000
         C            2.162519140702     0.116670523313     1.163854824000    12.000000000000
         C           -1.684825859298     0.469562523313     0.202204824000    12.000000000000
         C            0.599966140702     1.361276523313    -0.342934176000    12.000000000000
         C           -0.793233859298    -2.164179476687    -0.253942176000    12.000000000000
         C           -2.551107859298    -0.620648476687     0.342434824000    12.000000000000
         C           -2.116944859298    -1.926521476687     0.112192824000    12.000000000000
         C           -2.188097859298     1.871857523313     0.433661824000    12.000000000000
         H            1.643050140702    -2.366894476687    -1.186788176000     1.007825032230
         H            1.814766140702    -0.669122476687    -1.604522176000     1.007825032230
         H            2.490992140702    -2.004810476687     1.056959824000     1.007825032230
         H            3.542146140702    -1.076552476687    -0.017895176000     1.007825032230
         H            1.319583140702    -0.093021476687     1.829339824000     1.007825032230
         H            2.997014140702     0.437405523313     1.794527824000     1.007825032230
         H            2.455577140702     1.988188523313     0.137762824000     1.007825032230
         H           -0.454573859298    -3.180961476687    -0.446877176000     1.007825032230
         H           -3.491285359298    -0.456893976687     0.600404924000     1.007825032230
         H           -2.810513859298    -2.757429476687     0.220946824000     1.007825032230
         H           -1.540986859298     2.422916523313     1.122315824000     1.007825032230
         H           -2.208426859298     2.436681523313    -0.500693176000     1.007825032230
         H           -3.196215859298     1.843639523313     0.856723824000     1.007825032230

  Basis Set: AUG-CC-PVTZ
    Blend: AUG-CC-PVTZ
  Basis Set: (AUG-CC-PVTZ AUX)
    Blend: AUG-CC-PVTZ-JKFIT
	 Reference Energy          =    -553.6375343676911598 [Eh]
	 Singles Energy            =      -0.0000000000000000 [Eh]
	 Same-Spin Energy          =      -0.6039847151746055 [Eh]
	 Opposite-Spin Energy      =      -1.9024730333135129 [Eh]
	 Correlation Energy        =      -2.5064577484881183 [Eh]
	 Total Energy              =    -556.1439921161793336 [Eh]

	 ================> DF-SCS-MP2 Energies <==================
	-----------------------------------------------------------
	 SCS Same-Spin Scale       =       0.3333333333333333 [-]
	 SCS Opposite-Spin Scale   =       1.2000000000000000 [-]
	 SCS Same-Spin Energy      =      -0.2013282383915352 [Eh]
	 SCS Opposite-Spin Energy  =      -2.2829676399762153 [Eh]
	 SCS Correlation Energy    =      -2.4842958783677505 [Eh]
	 SCS Total Energy          =    -556.1218302460589484 [Eh]
	-----------------------------------------------------------

  Dipole Moment: [D]
     X:     1.6923      Y:    -2.5347      Z:     2.2138     Total:     3.7669

*** Psi4 exiting successfully. Buy a developer a beer!
