                               Psi4 1.4a3.dev225

  ==> Input File <==

--------------------------------------------------------------------------
#psi4
#
memory 32 gb

molecule  {
0 1
  O        0.3130990     2.3704440    -1.0483590
  N        1.7883250     1.2487180     0.2800910
  C        1.5287440    -1.3320340    -0.8115580
  C        2.5082430    -1.1273300     0.3546920
  C        0.1887698    -1.1008213    -0.4419151
  C       -0.3593510     0.2288580    -0.1728470
  C        2.1500350     0.1348000     1.1432270
  C       -1.6973100     0.4876920     0.1815770
  C        0.5874820     1.3794060    -0.3635620
  C       -0.8057180    -2.1460500    -0.2745700
  C       -2.5635920    -0.6025190     0.3218070
  C       -2.1294290    -1.9083920     0.0915650
  C       -2.2005820     1.8899870     0.4130340
  H        1.6305660    -2.3487650    -1.2074160
  H        1.8022820    -0.6509930    -1.6251500
  H        2.4785080    -1.9866810     1.0363320
  H        3.5296620    -1.0584230    -0.0385230
  H        1.3070990    -0.0748920     1.8087120
  H        2.9845300     0.4555350     1.7739000
  H        2.4430930     2.0063180     0.1171350
  H       -0.4670580    -3.1628320    -0.4675050
  H       -3.5988730    -0.4222000     0.6058720
  H       -2.8229980    -2.7393000     0.2003190
  H       -1.5534710     2.4410460     1.1016880
  H       -2.2209110     2.4548110    -0.5213210
  H       -3.2087000     1.8617690     0.8360960
units angstrom
no_reorient  #important for SAPT in psi4, default
symmetry c1  #important for SAPT in psi4, default
}

set PROPERTIES_ORIGIN ["COM"]
properties('MP2/aug-cc-pvtz', properties = ['dipole'])
--------------------------------------------------------------------------

    Molecular point group: c1
  Charge       = 0
  Multiplicity = 1
  Basis Set: AUG-CC-PVTZ
    Blend: AUG-CC-PVTZ
  Basis Set: (AUG-CC-PVTZ AUX)
    Blend: AUG-CC-PVTZ-JKFIT

    Orbital Energies [Eh]
    ---------------------

    Doubly Occupied:

       1A    -20.511095     2A    -15.582817     3A    -11.347786
       4A    -11.275677     5A    -11.262125     6A    -11.253401
       7A    -11.246983     8A    -11.244368     9A    -11.241148
      10A    -11.240287    11A    -11.235156    12A    -11.233399
      13A    -11.216012    14A     -1.366267    15A     -1.235677
      16A     -1.158393    17A     -1.097536    18A     -1.041512
      19A     -1.026937    20A     -0.946807    21A     -0.930763
      22A     -0.875833    23A     -0.832922    24A     -0.784160
      25A     -0.763147    26A     -0.693304    27A     -0.685396
      28A     -0.662857    29A     -0.659214    30A     -0.621194
      31A     -0.615866    32A     -0.591784    33A     -0.586240
      34A     -0.571855    35A     -0.563777    36A     -0.554238
      37A     -0.535108    38A     -0.528094    39A     -0.516202
      40A     -0.506961    41A     -0.488088    42A     -0.480682
      43A     -0.473219    44A     -0.412829    45A     -0.386121
      46A     -0.333002    47A     -0.320302

  @DF-RHF Final Energy:  -553.62668265550610

   => Energetics <=

    Nuclear Repulsion Energy =            795.5587724605552467
    One-Electron Energy =               -2330.8978306585636346
    Two-Electron Energy =                 981.7123755425022864
    Total Energy =                       -553.6266826555061016
  Basis Set: (AUG-CC-PVTZ AUX)
    Blend: AUG-CC-PVTZ-RI
    Molecular point group: c1

    Geometry (in Angstrom), charge = 0, multiplicity = 1:

       Center              X                  Y                   Z               Mass
    ------------   -----------------  -----------------  -----------------  -----------------
         O            0.319613594048     2.353343682516    -1.026083622729    15.994914619570
         N            1.794839594048     1.231617682516     0.302366377271    14.003074004430
         C            1.535258594048    -1.349134317484    -0.789282622729    12.000000000000
         C            2.514757594048    -1.144430317484     0.376967377271    12.000000000000
         C            0.195284394048    -1.117921617484    -0.419639722729    12.000000000000
         C           -0.352836405952     0.211757682516    -0.150571622729    12.000000000000
         C            2.156549594048     0.117699682516     1.165502377271    12.000000000000
         C           -1.690795405952     0.470591682516     0.203852377271    12.000000000000
         C            0.593996594048     1.362305682516    -0.341286622729    12.000000000000
         C           -0.799203405952    -2.163150317484    -0.252294622729    12.000000000000
         C           -2.557077405952    -0.619619317484     0.344082377271    12.000000000000
         C           -2.122914405952    -1.925492317484     0.113840377271    12.000000000000
         C           -2.194067405952     1.872886682516     0.435309377271    12.000000000000
         H            1.637080594048    -2.365865317484    -1.185140622729     1.007825032230
         H            1.808796594048    -0.668093317484    -1.602874622729     1.007825032230
         H            2.485022594048    -2.003781317484     1.058607377271     1.007825032230
         H            3.536176594048    -1.075523317484    -0.016247622729     1.007825032230
         H            1.313613594048    -0.091992317484     1.830987377271     1.007825032230
         H            2.991044594048     0.438434682516     1.796175377271     1.007825032230
         H            2.449607594048     1.989217682516     0.139410377271     1.007825032230
         H           -0.460543405952    -3.179932317484    -0.445229622729     1.007825032230
         H           -3.592358405952    -0.439300317484     0.628147377271     1.007825032230
         H           -2.816483405952    -2.756400317484     0.222594377271     1.007825032230
         H           -1.546956405952     2.423945682516     1.123963377271     1.007825032230
         H           -2.214396405952     2.437710682516    -0.499045622729     1.007825032230
         H           -3.202185405952     1.844668682516     0.858371377271     1.007825032230

  Basis Set: AUG-CC-PVTZ
    Blend: AUG-CC-PVTZ
  Basis Set: (AUG-CC-PVTZ AUX)
    Blend: AUG-CC-PVTZ-JKFIT
	 Reference Energy          =    -553.6266826555061016 [Eh]
	 Singles Energy            =      -0.0000000000000000 [Eh]
	 Same-Spin Energy          =      -0.6060509962398973 [Eh]
	 Opposite-Spin Energy      =      -1.9057699243458204 [Eh]
	 Correlation Energy        =      -2.5118209205857176 [Eh]
	 Total Energy              =    -556.1385035760918072 [Eh]

	 ================> DF-SCS-MP2 Energies <==================
	-----------------------------------------------------------
	 SCS Same-Spin Scale       =       0.3333333333333333 [-]
	 SCS Opposite-Spin Scale   =       1.2000000000000000 [-]
	 SCS Same-Spin Energy      =      -0.2020169987466324 [Eh]
	 SCS Opposite-Spin Energy  =      -2.2869239092149845 [Eh]
	 SCS Correlation Energy    =      -2.4889409079616169 [Eh]
	 SCS Total Energy          =    -556.1156235634676932 [Eh]
	-----------------------------------------------------------

  Dipole Moment: [D]
     X:     1.8106      Y:    -2.5548      Z:     2.1966     Total:     3.8249

*** Psi4 exiting successfully. Buy a developer a beer!
