                               Psi4 1.4a3.dev225

  ==> Input File <==

--------------------------------------------------------------------------
#psi4
#
memory 32 gb

molecule  {
0 1
  O        0.4303966     2.4155531    -1.0178652
  N        1.7883250     1.2487180     0.2800910
  C        1.5287440    -1.3320340    -0.8115580
  C        2.5082430    -1.1273300     0.3546920
  C        0.0936770    -1.0844130    -0.4156830
  C       -0.3593510     0.2288580    -0.1728470
  C        2.1500350     0.1348000     1.1432270
  C       -1.6973100     0.4876920     0.1815770
  C        0.5874820     1.3794060    -0.3635620
  C       -0.8057180    -2.1460500    -0.2745700
  C       -2.5635920    -0.6025190     0.3218070
  C       -2.1294290    -1.9083920     0.0915650
  C       -2.2005820     1.8899870     0.4130340
  H        1.6305660    -2.3487650    -1.2074160
  H        1.8022820    -0.6509930    -1.6251500
  H        2.4785080    -1.9866810     1.0363320
  H        3.5296620    -1.0584230    -0.0385230
  H        1.3070990    -0.0748920     1.8087120
  H        2.9845300     0.4555350     1.7739000
  H        2.4430930     2.0063180     0.1171350
  H       -0.4670580    -3.1628320    -0.4675050
  H       -3.5988730    -0.4222000     0.6058720
  H       -2.8229980    -2.7393000     0.2003190
  H       -1.5534710     2.4410460     1.1016880
  H       -2.2209110     2.4548110    -0.5213210
  H       -3.2087000     1.8617690     0.8360960
units angstrom
no_reorient  #important for SAPT in psi4, default
symmetry c1  #important for SAPT in psi4, default
}

set PROPERTIES_ORIGIN ["COM"]
properties('MP2/aug-cc-pvtz', properties = ['dipole'])
--------------------------------------------------------------------------

    Molecular point group: c1
  Charge       = 0
  Multiplicity = 1
  Basis Set: AUG-CC-PVTZ
    Blend: AUG-CC-PVTZ
  Basis Set: (AUG-CC-PVTZ AUX)
    Blend: AUG-CC-PVTZ-JKFIT

    Orbital Energies [Eh]
    ---------------------

    Doubly Occupied:

       1A    -20.509870     2A    -15.575729     3A    -11.349272
       4A    -11.270918     5A    -11.257740     6A    -11.256890
       7A    -11.247390     8A    -11.246452     9A    -11.238531
      10A    -11.237499    11A    -11.236202    12A    -11.234951
      13A    -11.218951    14A     -1.368338    15A     -1.227829
      16A     -1.166162    17A     -1.084937    18A     -1.047606
      19A     -1.029123    20A     -0.944073    21A     -0.933583
      22A     -0.874956    23A     -0.830154    24A     -0.785491
      25A     -0.770200    26A     -0.693103    27A     -0.681778
      28A     -0.661139    29A     -0.657953    30A     -0.619886
      31A     -0.613484    32A     -0.591494    33A     -0.583435
      34A     -0.572881    35A     -0.567283    36A     -0.553428
      37A     -0.533443    38A     -0.530345    39A     -0.514329
      40A     -0.505716    41A     -0.488794    42A     -0.481099
      43A     -0.474982    44A     -0.416808    45A     -0.379904
      46A     -0.340380    47A     -0.329842

  @DF-RHF Final Energy:  -553.64064679436717

   => Energetics <=

    Nuclear Repulsion Energy =            795.2779782289541117
    One-Electron Energy =               -2330.3685410088432945
    Two-Electron Energy =                 981.4499159855221251
    Total Energy =                       -553.6406467943671714
  Basis Set: (AUG-CC-PVTZ AUX)
    Blend: AUG-CC-PVTZ-RI
    Molecular point group: c1

    Geometry (in Angstrom), charge = 0, multiplicity = 1:

       Center              X                  Y                   Z               Mass
    ------------   -----------------  -----------------  -----------------  -----------------
         O            0.432713291721     2.393207680843    -1.000173102215    15.994914619570
         N            1.790641691721     1.226372580843     0.297783097785    14.003074004430
         C            1.531060691721    -1.354379419157    -0.793865902215    12.000000000000
         C            2.510559691721    -1.149675419157     0.372384097785    12.000000000000
         C            0.095993691721    -1.106758419157    -0.397990902215    12.000000000000
         C           -0.357034308279     0.206512580843    -0.155154902215    12.000000000000
         C            2.152351691721     0.112454580843     1.160919097785    12.000000000000
         C           -1.694993308279     0.465346580843     0.199269097785    12.000000000000
         C            0.589798691721     1.357060580843    -0.345869902215    12.000000000000
         C           -0.803401308279    -2.168395419157    -0.256877902215    12.000000000000
         C           -2.561275308279    -0.624864419157     0.339499097785    12.000000000000
         C           -2.127112308279    -1.930737419157     0.109257097785    12.000000000000
         C           -2.198265308279     1.867641580843     0.430726097785    12.000000000000
         H            1.632882691721    -2.371110419157    -1.189723902215     1.007825032230
         H            1.804598691721    -0.673338419157    -1.607457902215     1.007825032230
         H            2.480824691721    -2.009026419157     1.054024097785     1.007825032230
         H            3.531978691721    -1.080768419157    -0.020830902215     1.007825032230
         H            1.309415691721    -0.097237419157     1.826404097785     1.007825032230
         H            2.986846691721     0.433189580843     1.791592097785     1.007825032230
         H            2.445409691721     1.983972580843     0.134827097785     1.007825032230
         H           -0.464741308279    -3.185177419157    -0.449812902215     1.007825032230
         H           -3.596556308279    -0.444545419157     0.623564097785     1.007825032230
         H           -2.820681308279    -2.761645419157     0.218011097785     1.007825032230
         H           -1.551154308279     2.418700580843     1.119380097785     1.007825032230
         H           -2.218594308279     2.432465580843    -0.503628902215     1.007825032230
         H           -3.206383308279     1.839423580843     0.853788097785     1.007825032230

  Basis Set: AUG-CC-PVTZ
    Blend: AUG-CC-PVTZ
  Basis Set: (AUG-CC-PVTZ AUX)
    Blend: AUG-CC-PVTZ-JKFIT
	 Reference Energy          =    -553.6406467943671714 [Eh]
	 Singles Energy            =      -0.0000000000000000 [Eh]
	 Same-Spin Energy          =      -0.6040555649199230 [Eh]
	 Opposite-Spin Energy      =      -1.9028546403324023 [Eh]
	 Correlation Energy        =      -2.5069102052523253 [Eh]
	 Total Energy              =    -556.1475569996194963 [Eh]

	 ================> DF-SCS-MP2 Energies <==================
	-----------------------------------------------------------
	 SCS Same-Spin Scale       =       0.3333333333333333 [-]
	 SCS Opposite-Spin Scale   =       1.2000000000000000 [-]
	 SCS Same-Spin Energy      =      -0.2013518549733077 [Eh]
	 SCS Opposite-Spin Energy  =      -2.2834255683988824 [Eh]
	 SCS Correlation Energy    =      -2.4847774233721900 [Eh]
	 SCS Total Energy          =    -556.1254242177393508 [Eh]
	-----------------------------------------------------------

  Dipole Moment: [D]
     X:     1.3465      Y:    -2.7268      Z:     2.1513     Total:     3.7252

*** Psi4 exiting successfully. Buy a developer a beer!
