                               Psi4 1.4a3.dev225

  ==> Input File <==

--------------------------------------------------------------------------
#psi4
#
memory 32 gb

molecule  {
0 1
  O        0.3130990     2.3704440    -1.0483590
  N        1.7883250     1.2487180     0.2800910
  C        1.5287440    -1.3320340    -0.8115580
  C        2.5082430    -1.1273300     0.3546920
  C        0.0758852    -1.0688217    -0.4096707
  C       -0.3593510     0.2288580    -0.1728470
  C        2.1500350     0.1348000     1.1432270
  C       -1.6973100     0.4876920     0.1815770
  C        0.5874820     1.3794060    -0.3635620
  C       -0.8057180    -2.1460500    -0.2745700
  C       -2.5635920    -0.6025190     0.3218070
  C       -2.1294290    -1.9083920     0.0915650
  C       -2.2005820     1.8899870     0.4130340
  H        1.6305660    -2.3487650    -1.2074160
  H        1.8022820    -0.6509930    -1.6251500
  H        2.4785080    -1.9866810     1.0363320
  H        3.5296620    -1.0584230    -0.0385230
  H        1.3070990    -0.0748920     1.8087120
  H        2.9845300     0.4555350     1.7739000
  H        2.4430930     2.0063180     0.1171350
  H       -0.4670580    -3.1628320    -0.4675050
  H       -3.5988730    -0.4222000     0.6058720
  H       -2.8229980    -2.7393000     0.2003190
  H       -1.5534710     2.4410460     1.1016880
  H       -2.2209110     2.4548110    -0.5213210
  H       -3.2087000     1.8617690     0.8360960
units angstrom
no_reorient  #important for SAPT in psi4, default
symmetry c1  #important for SAPT in psi4, default
}

set PROPERTIES_ORIGIN ["COM"]
properties('MP2/aug-cc-pvtz', properties = ['dipole'])
--------------------------------------------------------------------------

    Molecular point group: c1
  Charge       = 0
  Multiplicity = 1
  Basis Set: AUG-CC-PVTZ
    Blend: AUG-CC-PVTZ
  Basis Set: (AUG-CC-PVTZ AUX)
    Blend: AUG-CC-PVTZ-JKFIT

    Orbital Energies [Eh]
    ---------------------

    Doubly Occupied:

       1A    -20.513064     2A    -15.583212     3A    -11.350796
       4A    -11.274842     5A    -11.253496     6A    -11.252891
       7A    -11.244249     8A    -11.240188     9A    -11.238738
      10A    -11.236988    11A    -11.235071    12A    -11.232278
      13A    -11.215881    14A     -1.367944    15A     -1.235509
      16A     -1.165308    17A     -1.082289    18A     -1.045116
      19A     -1.029776    20A     -0.943006    21A     -0.932807
      22A     -0.873005    23A     -0.829440    24A     -0.784884
      25A     -0.772141    26A     -0.693939    27A     -0.682616
      28A     -0.659522    29A     -0.659002    30A     -0.620049
      31A     -0.614770    32A     -0.591115    33A     -0.583741
      34A     -0.570610    35A     -0.565940    36A     -0.552288
      37A     -0.531516    38A     -0.530350    39A     -0.513680
      40A     -0.504979    41A     -0.489887    42A     -0.480265
      43A     -0.470539    44A     -0.418000    45A     -0.386117
      46A     -0.338927    47A     -0.327134

  @DF-RHF Final Energy:  -553.64321342480343

   => Energetics <=

    Nuclear Repulsion Energy =            796.2019474286482819
    One-Electron Energy =               -2332.2545107726264177
    Two-Electron Energy =                 982.4093499191747014
    Total Energy =                       -553.6432134248034345
  Basis Set: (AUG-CC-PVTZ AUX)
    Blend: AUG-CC-PVTZ-RI
    Molecular point group: c1

    Geometry (in Angstrom), charge = 0, multiplicity = 1:

       Center              X                  Y                   Z               Mass
    ------------   -----------------  -----------------  -----------------  -----------------
         O            0.327349844260     2.351150673795    -1.028293408177    15.994914619570
         N            1.802575844260     1.229424673795     0.300156591823    14.003074004430
         C            1.542994844260    -1.351327326205    -0.791492408177    12.000000000000
         C            2.522493844260    -1.146623326205     0.374757591823    12.000000000000
         C            0.090136044260    -1.088115026205    -0.389605108177    12.000000000000
         C           -0.345100155740     0.209564673795    -0.152781408177    12.000000000000
         C            2.164285844260     0.115506673795     1.163292591823    12.000000000000
         C           -1.683059155740     0.468398673795     0.201642591823    12.000000000000
         C            0.601732844260     1.360112673795    -0.343496408177    12.000000000000
         C           -0.791467155740    -2.165343326205    -0.254504408177    12.000000000000
         C           -2.549341155740    -0.621812326205     0.341872591823    12.000000000000
         C           -2.115178155740    -1.927685326205     0.111630591823    12.000000000000
         C           -2.186331155740     1.870693673795     0.433099591823    12.000000000000
         H            1.644816844260    -2.368058326205    -1.187350408177     1.007825032230
         H            1.816532844260    -0.670286326205    -1.605084408177     1.007825032230
         H            2.492758844260    -2.005974326205     1.056397591823     1.007825032230
         H            3.543912844260    -1.077716326205    -0.018457408177     1.007825032230
         H            1.321349844260    -0.094185326205     1.828777591823     1.007825032230
         H            2.998780844260     0.436241673795     1.793965591823     1.007825032230
         H            2.457343844260     1.987024673795     0.137200591823     1.007825032230
         H           -0.452807155740    -3.182125326205    -0.447439408177     1.007825032230
         H           -3.584622155740    -0.441493326205     0.625937591823     1.007825032230
         H           -2.808747155740    -2.758593326205     0.220384591823     1.007825032230
         H           -1.539220155740     2.421752673795     1.121753591823     1.007825032230
         H           -2.206660155740     2.435517673795    -0.501255408177     1.007825032230
         H           -3.194449155740     1.842475673795     0.856161591823     1.007825032230

  Basis Set: AUG-CC-PVTZ
    Blend: AUG-CC-PVTZ
  Basis Set: (AUG-CC-PVTZ AUX)
    Blend: AUG-CC-PVTZ-JKFIT
	 Reference Energy          =    -553.6432134248034345 [Eh]
	 Singles Energy            =      -0.0000000000000000 [Eh]
	 Same-Spin Energy          =      -0.6039312539427516 [Eh]
	 Opposite-Spin Energy      =      -1.9027651796832075 [Eh]
	 Correlation Energy        =      -2.5066964336259590 [Eh]
	 Total Energy              =    -556.1499098584293961 [Eh]

	 ================> DF-SCS-MP2 Energies <==================
	-----------------------------------------------------------
	 SCS Same-Spin Scale       =       0.3333333333333333 [-]
	 SCS Opposite-Spin Scale   =       1.2000000000000000 [-]
	 SCS Same-Spin Energy      =      -0.2013104179809172 [Eh]
	 SCS Opposite-Spin Energy  =      -2.2833182156198490 [Eh]
	 SCS Correlation Energy    =      -2.4846286336007664 [Eh]
	 SCS Total Energy          =    -556.1278420584042124 [Eh]
	-----------------------------------------------------------

  Dipole Moment: [D]
     X:     1.7155      Y:    -2.5382      Z:     2.2059     Total:     3.7752

*** Psi4 exiting successfully. Buy a developer a beer!
