                               Psi4 1.4a3.dev225

  ==> Input File <==

--------------------------------------------------------------------------
#psi4
#
memory 32 gb

molecule  {
0 1
  O        0.3130990     2.3704440    -1.0483590
  N        1.7883250     1.2487180     0.2800910
  C        1.5287440    -1.3320340    -0.8115580
  C        2.5719832    -1.1140090     0.4305849
  C        0.0936770    -1.0844130    -0.4156830
  C       -0.3593510     0.2288580    -0.1728470
  C        2.1500350     0.1348000     1.1432270
  C       -1.6973100     0.4876920     0.1815770
  C        0.5874820     1.3794060    -0.3635620
  C       -0.8057180    -2.1460500    -0.2745700
  C       -2.5635920    -0.6025190     0.3218070
  C       -2.1294290    -1.9083920     0.0915650
  C       -2.2005820     1.8899870     0.4130340
  H        1.6305660    -2.3487650    -1.2074160
  H        1.8022820    -0.6509930    -1.6251500
  H        2.4785080    -1.9866810     1.0363320
  H        3.5296620    -1.0584230    -0.0385230
  H        1.3070990    -0.0748920     1.8087120
  H        2.9845300     0.4555350     1.7739000
  H        2.4430930     2.0063180     0.1171350
  H       -0.4670580    -3.1628320    -0.4675050
  H       -3.5988730    -0.4222000     0.6058720
  H       -2.8229980    -2.7393000     0.2003190
  H       -1.5534710     2.4410460     1.1016880
  H       -2.2209110     2.4548110    -0.5213210
  H       -3.2087000     1.8617690     0.8360960
units angstrom
no_reorient  #important for SAPT in psi4, default
symmetry c1  #important for SAPT in psi4, default
}

set PROPERTIES_ORIGIN ["COM"]
properties('MP2/aug-cc-pvtz', properties = ['dipole'])
--------------------------------------------------------------------------

    Molecular point group: c1
  Charge       = 0
  Multiplicity = 1
  Basis Set: AUG-CC-PVTZ
    Blend: AUG-CC-PVTZ
  Basis Set: (AUG-CC-PVTZ AUX)
    Blend: AUG-CC-PVTZ-JKFIT

    Orbital Energies [Eh]
    ---------------------

    Doubly Occupied:

       1A    -20.513024     2A    -15.584042     3A    -11.350546
       4A    -11.274232     5A    -11.254032     6A    -11.253188
       7A    -11.244093     8A    -11.241398     9A    -11.240883
      10A    -11.236763    11A    -11.234686    12A    -11.232178
      13A    -11.215714    14A     -1.367830    15A     -1.235599
      16A     -1.162764    17A     -1.077932    18A     -1.043879
      19A     -1.032029    20A     -0.942444    21A     -0.929707
      22A     -0.874487    23A     -0.833117    24A     -0.784609
      25A     -0.770286    26A     -0.693760    27A     -0.683250
      28A     -0.660280    29A     -0.659132    30A     -0.620713
      31A     -0.615549    32A     -0.593603    33A     -0.581557
      34A     -0.570083    35A     -0.565028    36A     -0.554934
      37A     -0.532964    38A     -0.530915    39A     -0.513423
      40A     -0.506911    41A     -0.488528    42A     -0.479649
      43A     -0.461951    44A     -0.417748    45A     -0.389049
      46A     -0.335641    47A     -0.325776

  @DF-RHF Final Energy:  -553.63562616298418

   => Energetics <=

    Nuclear Repulsion Energy =            794.7161312221163598
    One-Electron Energy =               -2329.2837039190485484
    Two-Electron Energy =                 980.9319465339478938
    Total Energy =                       -553.6356261629841811
  Basis Set: (AUG-CC-PVTZ AUX)
    Blend: AUG-CC-PVTZ-RI
    Molecular point group: c1

    Geometry (in Angstrom), charge = 0, multiplicity = 1:

       Center              X                  Y                   Z               Mass
    ------------   -----------------  -----------------  -----------------  -----------------
         O            0.321762262320     2.351306262856    -1.033082491955    15.994914619570
         N            1.796988262320     1.229580262856     0.295367508045    14.003074004430
         C            1.537407262320    -1.351171737144    -0.796281491955    12.000000000000
         C            2.580646462320    -1.133146737144     0.445861408045    12.000000000000
         C            0.102340262320    -1.103550737144    -0.400406491955    12.000000000000
         C           -0.350687737680     0.209720262856    -0.157570491955    12.000000000000
         C            2.158698262320     0.115662262856     1.158503508045    12.000000000000
         C           -1.688646737680     0.468554262856     0.196853508045    12.000000000000
         C            0.596145262320     1.360268262856    -0.348285491955    12.000000000000
         C           -0.797054737680    -2.165187737144    -0.259293491955    12.000000000000
         C           -2.554928737680    -0.621656737144     0.337083508045    12.000000000000
         C           -2.120765737680    -1.927529737144     0.106841508045    12.000000000000
         C           -2.191918737680     1.870849262856     0.428310508045    12.000000000000
         H            1.639229262320    -2.367902737144    -1.192139491955     1.007825032230
         H            1.810945262320    -0.670130737144    -1.609873491955     1.007825032230
         H            2.487171262320    -2.005818737144     1.051608508045     1.007825032230
         H            3.538325262320    -1.077560737144    -0.023246491955     1.007825032230
         H            1.315762262320    -0.094029737144     1.823988508045     1.007825032230
         H            2.993193262320     0.436397262856     1.789176508045     1.007825032230
         H            2.451756262320     1.987180262856     0.132411508045     1.007825032230
         H           -0.458394737680    -3.181969737144    -0.452228491955     1.007825032230
         H           -3.590209737680    -0.441337737144     0.621148508045     1.007825032230
         H           -2.814334737680    -2.758437737144     0.215595508045     1.007825032230
         H           -1.544807737680     2.421908262856     1.116964508045     1.007825032230
         H           -2.212247737680     2.435673262856    -0.506044491955     1.007825032230
         H           -3.200036737680     1.842631262856     0.851372508045     1.007825032230

  Basis Set: AUG-CC-PVTZ
    Blend: AUG-CC-PVTZ
  Basis Set: (AUG-CC-PVTZ AUX)
    Blend: AUG-CC-PVTZ-JKFIT
	 Reference Energy          =    -553.6356261629841811 [Eh]
	 Singles Energy            =      -0.0000000000000000 [Eh]
	 Same-Spin Energy          =      -0.6042118997797805 [Eh]
	 Opposite-Spin Energy      =      -1.9033410580238754 [Eh]
	 Correlation Energy        =      -2.5075529578036559 [Eh]
	 Total Energy              =    -556.1431791207878632 [Eh]

	 ================> DF-SCS-MP2 Energies <==================
	-----------------------------------------------------------
	 SCS Same-Spin Scale       =       0.3333333333333333 [-]
	 SCS Opposite-Spin Scale   =       1.2000000000000000 [-]
	 SCS Same-Spin Energy      =      -0.2014039665932602 [Eh]
	 SCS Opposite-Spin Energy  =      -2.2840092696286503 [Eh]
	 SCS Correlation Energy    =      -2.4854132362219103 [Eh]
	 SCS Total Energy          =    -556.1210393992060972 [Eh]
	-----------------------------------------------------------

  Dipole Moment: [D]
     X:     1.7583      Y:    -2.5550      Z:     2.2028     Total:     3.8042

*** Psi4 exiting successfully. Buy a developer a beer!
