                               Psi4 1.4a3.dev225

  ==> Input File <==

--------------------------------------------------------------------------
#psi4
#
memory 32 gb

molecule  {
0 1
  O        0.3130990     2.3704440    -1.0483590
  N        1.7883250     1.2487180     0.2800910
  C        1.5287440    -1.3320340    -0.8115580
  C        2.4992953    -1.1022014     0.3574879
  C        0.0936770    -1.0844130    -0.4156830
  C       -0.3593510     0.2288580    -0.1728470
  C        2.1500350     0.1348000     1.1432270
  C       -1.6973100     0.4876920     0.1815770
  C        0.5874820     1.3794060    -0.3635620
  C       -0.8057180    -2.1460500    -0.2745700
  C       -2.5635920    -0.6025190     0.3218070
  C       -2.1294290    -1.9083920     0.0915650
  C       -2.2005820     1.8899870     0.4130340
  H        1.6305660    -2.3487650    -1.2074160
  H        1.8022820    -0.6509930    -1.6251500
  H        2.4785080    -1.9866810     1.0363320
  H        3.5296620    -1.0584230    -0.0385230
  H        1.3070990    -0.0748920     1.8087120
  H        2.9845300     0.4555350     1.7739000
  H        2.4430930     2.0063180     0.1171350
  H       -0.4670580    -3.1628320    -0.4675050
  H       -3.5988730    -0.4222000     0.6058720
  H       -2.8229980    -2.7393000     0.2003190
  H       -1.5534710     2.4410460     1.1016880
  H       -2.2209110     2.4548110    -0.5213210
  H       -3.2087000     1.8617690     0.8360960
units angstrom
no_reorient  #important for SAPT in psi4, default
symmetry c1  #important for SAPT in psi4, default
}

set PROPERTIES_ORIGIN ["COM"]
properties('MP2/aug-cc-pvtz', properties = ['dipole'])
--------------------------------------------------------------------------

    Molecular point group: c1
  Charge       = 0
  Multiplicity = 1
  Basis Set: AUG-CC-PVTZ
    Blend: AUG-CC-PVTZ
  Basis Set: (AUG-CC-PVTZ AUX)
    Blend: AUG-CC-PVTZ-JKFIT

    Orbital Energies [Eh]
    ---------------------

    Doubly Occupied:

       1A    -20.512715     2A    -15.582821     3A    -11.350385
       4A    -11.274281     5A    -11.254264     6A    -11.253526
       7A    -11.244415     8A    -11.241985     9A    -11.238829
      10A    -11.238196    11A    -11.235237    12A    -11.232655
      13A    -11.215921    14A     -1.367652    15A     -1.236348
      16A     -1.163729    17A     -1.085445    18A     -1.044861
      19A     -1.030344    20A     -0.944257    21A     -0.933579
      22A     -0.873144    23A     -0.828700    24A     -0.784891
      25A     -0.769830    26A     -0.694271    27A     -0.683752
      28A     -0.659898    29A     -0.659097    30A     -0.621501
      31A     -0.615056    32A     -0.591703    33A     -0.583620
      34A     -0.570091    35A     -0.566256    36A     -0.553384
      37A     -0.530096    38A     -0.529944    39A     -0.515617
      40A     -0.504369    41A     -0.489523    42A     -0.478176
      43A     -0.472436    44A     -0.417430    45A     -0.387196
      46A     -0.336418    47A     -0.327490

  @DF-RHF Final Energy:  -553.64227674600352

   => Energetics <=

    Nuclear Repulsion Energy =            796.4139426342014758
    One-Electron Energy =               -2332.6617675087127282
    Two-Electron Energy =                 982.6055481285077349
    Total Energy =                       -553.6422767460035175
  Basis Set: (AUG-CC-PVTZ AUX)
    Blend: AUG-CC-PVTZ-RI
    Molecular point group: c1

    Geometry (in Angstrom), charge = 0, multiplicity = 1:

       Center              X                  Y                   Z               Mass
    ------------   -----------------  -----------------  -----------------  -----------------
         O            0.326743737046     2.350497059935    -1.028072980632    15.994914619570
         N            1.801969737046     1.228771059935     0.300377019368    14.003074004430
         C            1.542388737046    -1.351980940065    -0.791271980632    12.000000000000
         C            2.512940037046    -1.122148340065     0.377773919368    12.000000000000
         C            0.107321737046    -1.104359940065    -0.395396980632    12.000000000000
         C           -0.345706262954     0.208911059935    -0.152560980632    12.000000000000
         C            2.163679737046     0.114853059935     1.163513019368    12.000000000000
         C           -1.683665262954     0.467745059935     0.201863019368    12.000000000000
         C            0.601126737046     1.359459059935    -0.343275980632    12.000000000000
         C           -0.792073262954    -2.165996940065    -0.254283980632    12.000000000000
         C           -2.549947262954    -0.622465940065     0.342093019368    12.000000000000
         C           -2.115784262954    -1.928338940065     0.111851019368    12.000000000000
         C           -2.186937262954     1.870040059935     0.433320019368    12.000000000000
         H            1.644210737046    -2.368711940065    -1.187129980632     1.007825032230
         H            1.815926737046    -0.670939940065    -1.604863980632     1.007825032230
         H            2.492152737046    -2.006627940065     1.056618019368     1.007825032230
         H            3.543306737046    -1.078369940065    -0.018236980632     1.007825032230
         H            1.320743737046    -0.094838940065     1.828998019368     1.007825032230
         H            2.998174737046     0.435588059935     1.794186019368     1.007825032230
         H            2.456737737046     1.986371059935     0.137421019368     1.007825032230
         H           -0.453413262954    -3.182778940065    -0.447218980632     1.007825032230
         H           -3.585228262954    -0.442146940065     0.626158019368     1.007825032230
         H           -2.809353262954    -2.759246940065     0.220605019368     1.007825032230
         H           -1.539826262954     2.421099059935     1.121974019368     1.007825032230
         H           -2.207266262954     2.434864059935    -0.501034980632     1.007825032230
         H           -3.195055262954     1.841822059935     0.856382019368     1.007825032230

  Basis Set: AUG-CC-PVTZ
    Blend: AUG-CC-PVTZ
  Basis Set: (AUG-CC-PVTZ AUX)
    Blend: AUG-CC-PVTZ-JKFIT
	 Reference Energy          =    -553.6422767460035175 [Eh]
	 Singles Energy            =      -0.0000000000000000 [Eh]
	 Same-Spin Energy          =      -0.6043372045068562 [Eh]
	 Opposite-Spin Energy      =      -1.9032337830144306 [Eh]
	 Correlation Energy        =      -2.5075709875212868 [Eh]
	 Total Energy              =    -556.1498477335247799 [Eh]

	 ================> DF-SCS-MP2 Energies <==================
	-----------------------------------------------------------
	 SCS Same-Spin Scale       =       0.3333333333333333 [-]
	 SCS Opposite-Spin Scale   =       1.2000000000000000 [-]
	 SCS Same-Spin Energy      =      -0.2014457348356187 [Eh]
	 SCS Opposite-Spin Energy  =      -2.2838805396173165 [Eh]
	 SCS Correlation Energy    =      -2.4853262744529352 [Eh]
	 SCS Total Energy          =    -556.1276030204564904 [Eh]
	-----------------------------------------------------------

  Dipole Moment: [D]
     X:     1.7285      Y:    -2.5360      Z:     2.2024     Total:     3.7775

*** Psi4 exiting successfully. Buy a developer a beer!
