                               Psi4 1.4a3.dev225

  ==> Input File <==

--------------------------------------------------------------------------
#psi4
#
memory 32 gb

molecule  {
0 1
  O        0.3130990     2.3704440    -1.0483590
  N        1.7883250     1.2487180     0.2800910
  C        1.5287440    -1.3320340    -0.8115580
  C        2.5082430    -1.1273300     0.3546920
  C        0.0936770    -1.0844130    -0.4156830
  C       -0.3593510     0.2288580    -0.1728470
  C        2.0583592     0.0952687     1.1246544
  C       -1.6973100     0.4876920     0.1815770
  C        0.5874820     1.3794060    -0.3635620
  C       -0.8057180    -2.1460500    -0.2745700
  C       -2.5635920    -0.6025190     0.3218070
  C       -2.1294290    -1.9083920     0.0915650
  C       -2.2005820     1.8899870     0.4130340
  H        1.6305660    -2.3487650    -1.2074160
  H        1.8022820    -0.6509930    -1.6251500
  H        2.4785080    -1.9866810     1.0363320
  H        3.5296620    -1.0584230    -0.0385230
  H        1.3070990    -0.0748920     1.8087120
  H        2.9845300     0.4555350     1.7739000
  H        2.4430930     2.0063180     0.1171350
  H       -0.4670580    -3.1628320    -0.4675050
  H       -3.5988730    -0.4222000     0.6058720
  H       -2.8229980    -2.7393000     0.2003190
  H       -1.5534710     2.4410460     1.1016880
  H       -2.2209110     2.4548110    -0.5213210
  H       -3.2087000     1.8617690     0.8360960
units angstrom
no_reorient  #important for SAPT in psi4, default
symmetry c1  #important for SAPT in psi4, default
}

set PROPERTIES_ORIGIN ["COM"]
properties('MP2/aug-cc-pvtz', properties = ['dipole'])
--------------------------------------------------------------------------

    Molecular point group: c1
  Charge       = 0
  Multiplicity = 1
  Basis Set: AUG-CC-PVTZ
    Blend: AUG-CC-PVTZ
  Basis Set: (AUG-CC-PVTZ AUX)
    Blend: AUG-CC-PVTZ-JKFIT

    Orbital Energies [Eh]
    ---------------------

    Doubly Occupied:

       1A    -20.512242     2A    -15.583852     3A    -11.348532
       4A    -11.276872     5A    -11.254665     6A    -11.253983
       7A    -11.244864     8A    -11.242504     9A    -11.238027
      10A    -11.237072    11A    -11.235871    12A    -11.233281
      13A    -11.216271    14A     -1.367551    15A     -1.237275
      16A     -1.164185    17A     -1.087096    18A     -1.045573
      19A     -1.029013    20A     -0.944028    21A     -0.932193
      22A     -0.872047    23A     -0.833977    24A     -0.784075
      25A     -0.772532    26A     -0.695198    27A     -0.688107
      28A     -0.661967    29A     -0.653330    30A     -0.624223
      31A     -0.611873    32A     -0.594373    33A     -0.582631
      34A     -0.569462    35A     -0.567166    36A     -0.553646
      37A     -0.534200    38A     -0.530699    39A     -0.512651
      40A     -0.505518    41A     -0.481803    42A     -0.479456
      43A     -0.472319    44A     -0.416221    45A     -0.388710
      46A     -0.336986    47A     -0.328033

  @DF-RHF Final Energy:  -553.63065016834298

   => Energetics <=

    Nuclear Repulsion Energy =            797.4123022458740024
    One-Electron Energy =               -2334.6135981054853801
    Two-Electron Energy =                 983.5706456912685098
    Total Energy =                       -553.6306501683429815
  Basis Set: (AUG-CC-PVTZ AUX)
    Blend: AUG-CC-PVTZ-RI
    Molecular point group: c1

    Geometry (in Angstrom), charge = 0, multiplicity = 1:

       Center              X                  Y                   Z               Mass
    ------------   -----------------  -----------------  -----------------  -----------------
         O            0.332413290565     2.354928356721    -1.026608546488    15.994914619570
         N            1.807639290565     1.233202356721     0.301841453512    14.003074004430
         C            1.548058290565    -1.347549643279    -0.789807546488    12.000000000000
         C            2.527557290565    -1.142845643279     0.376442453512    12.000000000000
         C            0.112991290565    -1.099928643279    -0.393932546488    12.000000000000
         C           -0.340036709435     0.213342356721    -0.151096546488    12.000000000000
         C            2.077673490565     0.079753056721     1.146404853512    12.000000000000
         C           -1.677995709435     0.472176356721     0.203327453512    12.000000000000
         C            0.606796290565     1.363890356721    -0.341811546488    12.000000000000
         C           -0.786403709435    -2.161565643279    -0.252819546488    12.000000000000
         C           -2.544277709435    -0.618034643279     0.343557453512    12.000000000000
         C           -2.110114709435    -1.923907643279     0.113315453512    12.000000000000
         C           -2.181267709435     1.874471356721     0.434784453512    12.000000000000
         H            1.649880290565    -2.364280643279    -1.185665546488     1.007825032230
         H            1.821596290565    -0.666508643279    -1.603399546488     1.007825032230
         H            2.497822290565    -2.002196643279     1.058082453512     1.007825032230
         H            3.548976290565    -1.073938643279    -0.016772546488     1.007825032230
         H            1.326413290565    -0.090407643279     1.830462453512     1.007825032230
         H            3.003844290565     0.440019356721     1.795650453512     1.007825032230
         H            2.462407290565     1.990802356721     0.138885453512     1.007825032230
         H           -0.447743709435    -3.178347643279    -0.445754546488     1.007825032230
         H           -3.579558709435    -0.437715643279     0.627622453512     1.007825032230
         H           -2.803683709435    -2.754815643279     0.222069453512     1.007825032230
         H           -1.534156709435     2.425530356721     1.123438453512     1.007825032230
         H           -2.201596709435     2.439295356721    -0.499570546488     1.007825032230
         H           -3.189385709435     1.846253356721     0.857846453512     1.007825032230

  Basis Set: AUG-CC-PVTZ
    Blend: AUG-CC-PVTZ
  Basis Set: (AUG-CC-PVTZ AUX)
    Blend: AUG-CC-PVTZ-JKFIT
	 Reference Energy          =    -553.6306501683429815 [Eh]
	 Singles Energy            =      -0.0000000000000000 [Eh]
	 Same-Spin Energy          =      -0.6047969102003588 [Eh]
	 Opposite-Spin Energy      =      -1.9042252545475233 [Eh]
	 Correlation Energy        =      -2.5090221647478819 [Eh]
	 Total Energy              =    -556.1396723330908571 [Eh]

	 ================> DF-SCS-MP2 Energies <==================
	-----------------------------------------------------------
	 SCS Same-Spin Scale       =       0.3333333333333333 [-]
	 SCS Opposite-Spin Scale   =       1.2000000000000000 [-]
	 SCS Same-Spin Energy      =      -0.2015989700667862 [Eh]
	 SCS Opposite-Spin Energy  =      -2.2850703054570278 [Eh]
	 SCS Correlation Energy    =      -2.4866692755238140 [Eh]
	 SCS Total Energy          =    -556.1173194438667906 [Eh]
	-----------------------------------------------------------

  Dipole Moment: [D]
     X:     1.6518      Y:    -2.5815      Z:     2.1734     Total:     3.7571

*** Psi4 exiting successfully. Buy a developer a beer!
