                               Psi4 1.4a3.dev225

  ==> Input File <==

--------------------------------------------------------------------------
#psi4
#
memory 32 gb

molecule  {
0 1
  O        0.3130990     2.3704440    -1.0483590
  N        1.7883250     1.2487180     0.2800910
  C        1.5287440    -1.3320340    -0.8115580
  C        2.5082430    -1.1273300     0.3546920
  C        0.0936770    -1.0844130    -0.4156830
  C       -0.3593510     0.2288580    -0.1728470
  C        2.0582806     0.0953730     1.1248220
  C       -1.6973100     0.4876920     0.1815770
  C        0.5874820     1.3794060    -0.3635620
  C       -0.8057180    -2.1460500    -0.2745700
  C       -2.5635920    -0.6025190     0.3218070
  C       -2.1294290    -1.9083920     0.0915650
  C       -2.2005820     1.8899870     0.4130340
  H        1.6305660    -2.3487650    -1.2074160
  H        1.8022820    -0.6509930    -1.6251500
  H        2.4785080    -1.9866810     1.0363320
  H        3.5296620    -1.0584230    -0.0385230
  H        1.3070990    -0.0748920     1.8087120
  H        2.9845300     0.4555350     1.7739000
  H        2.4430930     2.0063180     0.1171350
  H       -0.4670580    -3.1628320    -0.4675050
  H       -3.5988730    -0.4222000     0.6058720
  H       -2.8229980    -2.7393000     0.2003190
  H       -1.5534710     2.4410460     1.1016880
  H       -2.2209110     2.4548110    -0.5213210
  H       -3.2087000     1.8617690     0.8360960
units angstrom
no_reorient  #important for SAPT in psi4, default
symmetry c1  #important for SAPT in psi4, default
}

set PROPERTIES_ORIGIN ["COM"]
properties('MP2/aug-cc-pvtz', properties = ['dipole'])
--------------------------------------------------------------------------

    Molecular point group: c1
  Charge       = 0
  Multiplicity = 1
  Basis Set: AUG-CC-PVTZ
    Blend: AUG-CC-PVTZ
  Basis Set: (AUG-CC-PVTZ AUX)
    Blend: AUG-CC-PVTZ-JKFIT

    Orbital Energies [Eh]
    ---------------------

    Doubly Occupied:

       1A    -20.512241     2A    -15.583852     3A    -11.348532
       4A    -11.276865     5A    -11.254665     6A    -11.253983
       7A    -11.244864     8A    -11.242503     9A    -11.238032
      10A    -11.237070    11A    -11.235870    12A    -11.233281
      13A    -11.216271    14A     -1.367550    15A     -1.237271
      16A     -1.164185    17A     -1.087081    18A     -1.045571
      19A     -1.028999    20A     -0.944029    21A     -0.932198
      22A     -0.872047    23A     -0.833981    24A     -0.784070
      25A     -0.772537    26A     -0.695206    27A     -0.688108
      28A     -0.661965    29A     -0.653332    30A     -0.624208
      31A     -0.611868    32A     -0.594369    33A     -0.582630
      34A     -0.569461    35A     -0.567172    36A     -0.553645
      37A     -0.534214    38A     -0.530694    39A     -0.512652
      40A     -0.505516    41A     -0.481799    42A     -0.479454
      43A     -0.472332    44A     -0.416221    45A     -0.388700
      46A     -0.336986    47A     -0.328033

  @DF-RHF Final Energy:  -553.63064738199682

   => Energetics <=

    Nuclear Repulsion Energy =            797.4102921975035088
    One-Electron Energy =               -2334.6096499846553343
    Two-Electron Energy =                 983.5687104051548886
    Total Energy =                       -553.6306473819968232
  Basis Set: (AUG-CC-PVTZ AUX)
    Blend: AUG-CC-PVTZ-RI
    Molecular point group: c1

    Geometry (in Angstrom), charge = 0, multiplicity = 1:

       Center              X                  Y                   Z               Mass
    ------------   -----------------  -----------------  -----------------  -----------------
         O            0.332418677210     2.354921208793    -1.026620032514    15.994914619570
         N            1.807644677210     1.233195208793     0.301829967486    14.003074004430
         C            1.548063677210    -1.347556791207    -0.789819032514    12.000000000000
         C            2.527562677210    -1.142852791207     0.376430967486    12.000000000000
         C            0.112996677210    -1.099935791207    -0.393944032514    12.000000000000
         C           -0.340031322790     0.213335208793    -0.151108032514    12.000000000000
         C            2.077600277210     0.079850208793     1.146560967486    12.000000000000
         C           -1.677990322790     0.472169208793     0.203315967486    12.000000000000
         C            0.606801677210     1.363883208793    -0.341823032514    12.000000000000
         C           -0.786398322790    -2.161572791207    -0.252831032514    12.000000000000
         C           -2.544272322790    -0.618041791207     0.343545967486    12.000000000000
         C           -2.110109322790    -1.923914791207     0.113303967486    12.000000000000
         C           -2.181262322790     1.874464208793     0.434772967486    12.000000000000
         H            1.649885677210    -2.364287791207    -1.185677032514     1.007825032230
         H            1.821601677210    -0.666515791207    -1.603411032514     1.007825032230
         H            2.497827677210    -2.002203791207     1.058070967486     1.007825032230
         H            3.548981677210    -1.073945791207    -0.016784032514     1.007825032230
         H            1.326418677210    -0.090414791207     1.830450967486     1.007825032230
         H            3.003849677210     0.440012208793     1.795638967486     1.007825032230
         H            2.462412677210     1.990795208793     0.138873967486     1.007825032230
         H           -0.447738322790    -3.178354791207    -0.445766032514     1.007825032230
         H           -3.579553322790    -0.437722791207     0.627610967486     1.007825032230
         H           -2.803678322790    -2.754822791207     0.222057967486     1.007825032230
         H           -1.534151322790     2.425523208793     1.123426967486     1.007825032230
         H           -2.201591322790     2.439288208793    -0.499582032514     1.007825032230
         H           -3.189380322790     1.846246208793     0.857834967486     1.007825032230

  Basis Set: AUG-CC-PVTZ
    Blend: AUG-CC-PVTZ
  Basis Set: (AUG-CC-PVTZ AUX)
    Blend: AUG-CC-PVTZ-JKFIT
	 Reference Energy          =    -553.6306473819968232 [Eh]
	 Singles Energy            =      -0.0000000000000000 [Eh]
	 Same-Spin Energy          =      -0.6047952226575081 [Eh]
	 Opposite-Spin Energy      =      -1.9042237251895666 [Eh]
	 Correlation Energy        =      -2.5090189478470748 [Eh]
	 Total Energy              =    -556.1396663298438625 [Eh]

	 ================> DF-SCS-MP2 Energies <==================
	-----------------------------------------------------------
	 SCS Same-Spin Scale       =       0.3333333333333333 [-]
	 SCS Opposite-Spin Scale   =       1.2000000000000000 [-]
	 SCS Same-Spin Energy      =      -0.2015984075525027 [Eh]
	 SCS Opposite-Spin Energy  =      -2.2850684702274799 [Eh]
	 SCS Correlation Energy    =      -2.4866668777799825 [Eh]
	 SCS Total Energy          =    -556.1173142597767765 [Eh]
	-----------------------------------------------------------

  Dipole Moment: [D]
     X:     1.6518      Y:    -2.5813      Z:     2.1735     Total:     3.7571

*** Psi4 exiting successfully. Buy a developer a beer!
