                               Psi4 1.4a3.dev225

  ==> Input File <==

--------------------------------------------------------------------------
#psi4
#
memory 32 gb

molecule  {
0 1
  O        0.3130990     2.3704440    -1.0483590
  N        1.7883250     1.2487180     0.2800910
  C        1.5287440    -1.3320340    -0.8115580
  C        2.5082430    -1.1273300     0.3546920
  C        0.0936770    -1.0844130    -0.4156830
  C       -0.3593510     0.2288580    -0.1728470
  C        2.1500350     0.1348000     1.1432270
  C       -1.6973100     0.4876920     0.1815770
  C        0.5874820     1.3794060    -0.3635620
  C       -0.7414082    -2.0701393    -0.2846601
  C       -2.5635920    -0.6025190     0.3218070
  C       -2.1294290    -1.9083920     0.0915650
  C       -2.2005820     1.8899870     0.4130340
  H        1.6305660    -2.3487650    -1.2074160
  H        1.8022820    -0.6509930    -1.6251500
  H        2.4785080    -1.9866810     1.0363320
  H        3.5296620    -1.0584230    -0.0385230
  H        1.3070990    -0.0748920     1.8087120
  H        2.9845300     0.4555350     1.7739000
  H        2.4430930     2.0063180     0.1171350
  H       -0.4670580    -3.1628320    -0.4675050
  H       -3.5988730    -0.4222000     0.6058720
  H       -2.8229980    -2.7393000     0.2003190
  H       -1.5534710     2.4410460     1.1016880
  H       -2.2209110     2.4548110    -0.5213210
  H       -3.2087000     1.8617690     0.8360960
units angstrom
no_reorient  #important for SAPT in psi4, default
symmetry c1  #important for SAPT in psi4, default
}

set PROPERTIES_ORIGIN ["COM"]
properties('MP2/aug-cc-pvtz', properties = ['dipole'])
--------------------------------------------------------------------------

    Molecular point group: c1
  Charge       = 0
  Multiplicity = 1
  Basis Set: AUG-CC-PVTZ
    Blend: AUG-CC-PVTZ
  Basis Set: (AUG-CC-PVTZ AUX)
    Blend: AUG-CC-PVTZ-JKFIT

    Orbital Energies [Eh]
    ---------------------

    Doubly Occupied:

       1A    -20.512190     2A    -15.582421     3A    -11.349680
       4A    -11.274639     5A    -11.253822     6A    -11.250129
       7A    -11.241791     8A    -11.240172     9A    -11.236708
      10A    -11.236110    11A    -11.234505    12A    -11.233144
      13A    -11.216231    14A     -1.367057    15A     -1.235102
      16A     -1.170596    17A     -1.087469    18A     -1.041996
      19A     -1.029859    20A     -0.943803    21A     -0.937023
      22A     -0.871875    23A     -0.830886    24A     -0.786757
      25A     -0.767230    26A     -0.693223    27A     -0.680969
      28A     -0.659983    29A     -0.659694    30A     -0.621747
      31A     -0.615773    32A     -0.590349    33A     -0.582858
      34A     -0.569649    35A     -0.561418    36A     -0.553817
      37A     -0.532607    38A     -0.528933    39A     -0.511975
      40A     -0.509535    41A     -0.490568    42A     -0.480667
      43A     -0.463061    44A     -0.417720    45A     -0.385544
      46A     -0.342601    47A     -0.327310

  @DF-RHF Final Energy:  -553.62984291063299

   => Energetics <=

    Nuclear Repulsion Energy =            797.7579860925872026
    One-Electron Energy =               -2335.3532733330148403
    Two-Electron Energy =                 983.9654443297947637
    Total Energy =                       -553.6298429106329877
  Basis Set: (AUG-CC-PVTZ AUX)
    Blend: AUG-CC-PVTZ-RI
    Molecular point group: c1

    Geometry (in Angstrom), charge = 0, multiplicity = 1:

       Center              X                  Y                   Z               Mass
    ------------   -----------------  -----------------  -----------------  -----------------
         O            0.321723226277     2.347016841801    -1.027189872394    15.994914619570
         N            1.796949226277     1.225290841801     0.301260127606    14.003074004430
         C            1.537368226277    -1.355461158199    -0.790388872394    12.000000000000
         C            2.516867226277    -1.150757158199     0.375861127606    12.000000000000
         C            0.102301226277    -1.107840158199    -0.394513872394    12.000000000000
         C           -0.350726773723     0.205430841801    -0.151677872394    12.000000000000
         C            2.158659226277     0.111372841801     1.164396127606    12.000000000000
         C           -1.688685773723     0.464264841801     0.202746127606    12.000000000000
         C            0.596106226277     1.355978841801    -0.342392872394    12.000000000000
         C           -0.732783973723    -2.093566458199    -0.263490972394    12.000000000000
         C           -2.554967773723    -0.625946158199     0.342976127606    12.000000000000
         C           -2.120804773723    -1.931819158199     0.112734127606    12.000000000000
         C           -2.191957773723     1.866559841801     0.434203127606    12.000000000000
         H            1.639190226277    -2.372192158199    -1.186246872394     1.007825032230
         H            1.810906226277    -0.674420158199    -1.603980872394     1.007825032230
         H            2.487132226277    -2.010108158199     1.057501127606     1.007825032230
         H            3.538286226277    -1.081850158199    -0.017353872394     1.007825032230
         H            1.315723226277    -0.098319158199     1.829881127606     1.007825032230
         H            2.993154226277     0.432107841801     1.795069127606     1.007825032230
         H            2.451717226277     1.982890841801     0.138304127606     1.007825032230
         H           -0.458433773723    -3.186259158199    -0.446335872394     1.007825032230
         H           -3.590248773723    -0.445627158199     0.627041127606     1.007825032230
         H           -2.814373773723    -2.762727158199     0.221488127606     1.007825032230
         H           -1.544846773723     2.417618841801     1.122857127606     1.007825032230
         H           -2.212286773723     2.431383841801    -0.500151872394     1.007825032230
         H           -3.200075773723     1.838341841801     0.857265127606     1.007825032230

  Basis Set: AUG-CC-PVTZ
    Blend: AUG-CC-PVTZ
  Basis Set: (AUG-CC-PVTZ AUX)
    Blend: AUG-CC-PVTZ-JKFIT
	 Reference Energy          =    -553.6298429106329877 [Eh]
	 Singles Energy            =      -0.0000000000000000 [Eh]
	 Same-Spin Energy          =      -0.6040792867269920 [Eh]
	 Opposite-Spin Energy      =      -1.9036125285972669 [Eh]
	 Correlation Energy        =      -2.5076918153242591 [Eh]
	 Total Energy              =    -556.1375347259572663 [Eh]

	 ================> DF-SCS-MP2 Energies <==================
	-----------------------------------------------------------
	 SCS Same-Spin Scale       =       0.3333333333333333 [-]
	 SCS Opposite-Spin Scale   =       1.2000000000000000 [-]
	 SCS Same-Spin Energy      =      -0.2013597622423307 [Eh]
	 SCS Opposite-Spin Energy  =      -2.2843350343167201 [Eh]
	 SCS Correlation Energy    =      -2.4856947965590508 [Eh]
	 SCS Total Energy          =    -556.1155377071920611 [Eh]
	-----------------------------------------------------------

  Dipole Moment: [D]
     X:     1.6717      Y:    -2.5105      Z:     2.2223     Total:     3.7464

*** Psi4 exiting successfully. Buy a developer a beer!
