                               Psi4 1.4a3.dev225

  ==> Input File <==

--------------------------------------------------------------------------
#psi4
#
memory 32 gb

molecule  {
0 1
  O        0.3130990     2.3704440    -1.0483590
  N        1.7883250     1.2487180     0.2800910
  C        1.5287440    -1.3320340    -0.8115580
  C        2.5082430    -1.1273300     0.3546920
  C        0.0578249    -1.0535584    -0.4036172
  C       -0.3593510     0.2288580    -0.1728470
  C        2.1500350     0.1348000     1.1432270
  C       -1.6973100     0.4876920     0.1815770
  C        0.5874820     1.3794060    -0.3635620
  C       -0.8057180    -2.1460500    -0.2745700
  C       -2.5635920    -0.6025190     0.3218070
  C       -2.1294290    -1.9083920     0.0915650
  C       -2.2005820     1.8899870     0.4130340
  H        1.6305660    -2.3487650    -1.2074160
  H        1.8022820    -0.6509930    -1.6251500
  H        2.4785080    -1.9866810     1.0363320
  H        3.5296620    -1.0584230    -0.0385230
  H        1.3070990    -0.0748920     1.8087120
  H        2.9845300     0.4555350     1.7739000
  H        2.4430930     2.0063180     0.1171350
  H       -0.4670580    -3.1628320    -0.4675050
  H       -3.5988730    -0.4222000     0.6058720
  H       -2.8229980    -2.7393000     0.2003190
  H       -1.5534710     2.4410460     1.1016880
  H       -2.2209110     2.4548110    -0.5213210
  H       -3.2087000     1.8617690     0.8360960
units angstrom
no_reorient  #important for SAPT in psi4, default
symmetry c1  #important for SAPT in psi4, default
}

set PROPERTIES_ORIGIN ["COM"]
properties('MP2/aug-cc-pvtz', properties = ['dipole'])
--------------------------------------------------------------------------

    Molecular point group: c1
  Charge       = 0
  Multiplicity = 1
  Basis Set: AUG-CC-PVTZ
    Blend: AUG-CC-PVTZ
  Basis Set: (AUG-CC-PVTZ AUX)
    Blend: AUG-CC-PVTZ-JKFIT

    Orbital Energies [Eh]
    ---------------------

    Doubly Occupied:

       1A    -20.513437     2A    -15.583370     3A    -11.351288
       4A    -11.274777     5A    -11.253510     6A    -11.251478
       7A    -11.244108     8A    -11.239201     9A    -11.238302
      10A    -11.236541    11A    -11.234914    12A    -11.231860
      13A    -11.215861    14A     -1.368302    15A     -1.235663
      16A     -1.167103    17A     -1.080073    18A     -1.045618
      19A     -1.030840    20A     -0.942876    21A     -0.932379
      22A     -0.872411    23A     -0.828781    24A     -0.785022
      25A     -0.774245    26A     -0.693980    27A     -0.682411
      28A     -0.659765    29A     -0.658650    30A     -0.620462
      31A     -0.614237    32A     -0.591167    33A     -0.583851
      34A     -0.571289    35A     -0.565634    36A     -0.551424
      37A     -0.531769    38A     -0.529978    39A     -0.513545
      40A     -0.504655    41A     -0.490803    42A     -0.481335
      43A     -0.466664    44A     -0.418389    45A     -0.386182
      46A     -0.341539    47A     -0.326666

  @DF-RHF Final Energy:  -553.64176135311720

   => Energetics <=

    Nuclear Repulsion Energy =            796.4326605397359344
    One-Electron Energy =               -2332.7161279318170273
    Two-Electron Energy =                 982.6417060389638891
    Total Energy =                       -553.6417613531172037
  Basis Set: (AUG-CC-PVTZ AUX)
    Blend: AUG-CC-PVTZ-RI
    Molecular point group: c1

    Geometry (in Angstrom), charge = 0, multiplicity = 1:

       Center              X                  Y                   Z               Mass
    ------------   -----------------  -----------------  -----------------  -----------------
         O            0.328587559588     2.350104643532    -1.028708268934    15.994914619570
         N            1.803813559588     1.228378643532     0.299741731066    14.003074004430
         C            1.544232559588    -1.352373356468    -0.791907268934    12.000000000000
         C            2.523731559588    -1.147669356468     0.374342731066    12.000000000000
         C            0.073313459588    -1.073897756468    -0.383966468934    12.000000000000
         C           -0.343862440412     0.208518643532    -0.153196268934    12.000000000000
         C            2.165523559588     0.114460643532     1.162877731066    12.000000000000
         C           -1.681821440412     0.467352643532     0.201227731066    12.000000000000
         C            0.602970559588     1.359066643532    -0.343911268934    12.000000000000
         C           -0.790229440412    -2.166389356468    -0.254919268934    12.000000000000
         C           -2.548103440412    -0.622858356468     0.341457731066    12.000000000000
         C           -2.113940440412    -1.928731356468     0.111215731066    12.000000000000
         C           -2.185093440412     1.869647643532     0.432684731066    12.000000000000
         H            1.646054559588    -2.369104356468    -1.187765268934     1.007825032230
         H            1.817770559588    -0.671332356468    -1.605499268934     1.007825032230
         H            2.493996559588    -2.007020356468     1.055982731066     1.007825032230
         H            3.545150559588    -1.078762356468    -0.018872268934     1.007825032230
         H            1.322587559588    -0.095231356468     1.828362731066     1.007825032230
         H            3.000018559588     0.435195643532     1.793550731066     1.007825032230
         H            2.458581559588     1.985978643532     0.136785731066     1.007825032230
         H           -0.451569440412    -3.183171356468    -0.447854268934     1.007825032230
         H           -3.583384440412    -0.442539356468     0.625522731066     1.007825032230
         H           -2.807509440412    -2.759639356468     0.219969731066     1.007825032230
         H           -1.537982440412     2.420706643532     1.121338731066     1.007825032230
         H           -2.205422440412     2.434471643532    -0.501670268934     1.007825032230
         H           -3.193211440412     1.841429643532     0.855746731066     1.007825032230

  Basis Set: AUG-CC-PVTZ
    Blend: AUG-CC-PVTZ
  Basis Set: (AUG-CC-PVTZ AUX)
    Blend: AUG-CC-PVTZ-JKFIT
	 Reference Energy          =    -553.6417613531172037 [Eh]
	 Singles Energy            =      -0.0000000000000000 [Eh]
	 Same-Spin Energy          =      -0.6037161758299918 [Eh]
	 Opposite-Spin Energy      =      -1.9025429013539270 [Eh]
	 Correlation Energy        =      -2.5062590771839188 [Eh]
	 Total Energy              =    -556.1480204303011305 [Eh]

	 ================> DF-SCS-MP2 Energies <==================
	-----------------------------------------------------------
	 SCS Same-Spin Scale       =       0.3333333333333333 [-]
	 SCS Opposite-Spin Scale   =       1.2000000000000000 [-]
	 SCS Same-Spin Energy      =      -0.2012387252766639 [Eh]
	 SCS Opposite-Spin Energy  =      -2.2830514816247125 [Eh]
	 SCS Correlation Energy    =      -2.4842902069013766 [Eh]
	 SCS Total Energy          =    -556.1260515600185954 [Eh]
	-----------------------------------------------------------

  Dipole Moment: [D]
     X:     1.7035      Y:    -2.5367      Z:     2.2071     Total:     3.7693

*** Psi4 exiting successfully. Buy a developer a beer!
