                               Psi4 1.4a3.dev225

  ==> Input File <==

--------------------------------------------------------------------------
#psi4
#
memory 32 gb

molecule  {
0 1
  O        0.2938074     2.3618551    -1.0527197
  N        1.7883250     1.2487180     0.2800910
  C        1.5287440    -1.3320340    -0.8115580
  C        2.5082430    -1.1273300     0.3546920
  C        0.0936770    -1.0844130    -0.4156830
  C       -0.3593510     0.2288580    -0.1728470
  C        2.1500350     0.1348000     1.1432270
  C       -1.6973100     0.4876920     0.1815770
  C        0.5874820     1.3794060    -0.3635620
  C       -0.8057180    -2.1460500    -0.2745700
  C       -2.5635920    -0.6025190     0.3218070
  C       -2.1294290    -1.9083920     0.0915650
  C       -2.2005820     1.8899870     0.4130340
  H        1.6305660    -2.3487650    -1.2074160
  H        1.8022820    -0.6509930    -1.6251500
  H        2.4785080    -1.9866810     1.0363320
  H        3.5296620    -1.0584230    -0.0385230
  H        1.3070990    -0.0748920     1.8087120
  H        2.9845300     0.4555350     1.7739000
  H        2.4430930     2.0063180     0.1171350
  H       -0.4670580    -3.1628320    -0.4675050
  H       -3.5988730    -0.4222000     0.6058720
  H       -2.8229980    -2.7393000     0.2003190
  H       -1.5534710     2.4410460     1.1016880
  H       -2.2209110     2.4548110    -0.5213210
  H       -3.2087000     1.8617690     0.8360960
units angstrom
no_reorient  #important for SAPT in psi4, default
symmetry c1  #important for SAPT in psi4, default
}

set PROPERTIES_ORIGIN ["COM"]
properties('MP2/aug-cc-pvtz', properties = ['dipole'])
--------------------------------------------------------------------------

    Molecular point group: c1
  Charge       = 0
  Multiplicity = 1
  Basis Set: AUG-CC-PVTZ
    Blend: AUG-CC-PVTZ
  Basis Set: (AUG-CC-PVTZ AUX)
    Blend: AUG-CC-PVTZ-JKFIT

    Orbital Energies [Eh]
    ---------------------

    Doubly Occupied:

       1A    -20.513147     2A    -15.584251     3A    -11.350540
       4A    -11.275529     5A    -11.253705     6A    -11.252894
       7A    -11.243874     8A    -11.241268     9A    -11.238237
      10A    -11.237547    11A    -11.234889    12A    -11.232304
      13A    -11.215389    14A     -1.367620    15A     -1.236570
      16A     -1.163245    17A     -1.084552    18A     -1.044243
      19A     -1.028602    20A     -0.943051    21A     -0.933097
      22A     -0.873400    23A     -0.830072    24A     -0.784801
      25A     -0.769780    26A     -0.694101    27A     -0.683053
      28A     -0.659991    29A     -0.658797    30A     -0.619492
      31A     -0.615550    32A     -0.591047    33A     -0.583855
      34A     -0.569637    35A     -0.565918    36A     -0.553030
      37A     -0.531394    38A     -0.530315    39A     -0.513793
      40A     -0.505303    41A     -0.488834    42A     -0.478982
      43A     -0.473548    44A     -0.417404    45A     -0.387016
      46A     -0.335738    47A     -0.327107

  @DF-RHF Final Energy:  -553.64303140223933

   => Energetics <=

    Nuclear Repulsion Energy =            796.1194561403398211
    One-Electron Energy =               -2332.0919552148275216
    Two-Electron Energy =                 982.3294676722482563
    Total Energy =                       -553.6430314022393304
  Basis Set: (AUG-CC-PVTZ AUX)
    Blend: AUG-CC-PVTZ-RI
    Molecular point group: c1

    Geometry (in Angstrom), charge = 0, multiplicity = 1:

       Center              X                  Y                   Z               Mass
    ------------   -----------------  -----------------  -----------------  -----------------
         O            0.308601168590     2.344414856902    -1.031843732072    15.994914619570
         N            1.803118768590     1.231277756902     0.300966967928    14.003074004430
         C            1.543537768590    -1.349474243098    -0.790682032072    12.000000000000
         C            2.523036768590    -1.144770243098     0.375567967928    12.000000000000
         C            0.108470768590    -1.101853243098    -0.394807032072    12.000000000000
         C           -0.344557231410     0.211417756902    -0.151971032072    12.000000000000
         C            2.164828768590     0.117359756902     1.164102967928    12.000000000000
         C           -1.682516231410     0.470251756902     0.202452967928    12.000000000000
         C            0.602275768590     1.361965756902    -0.342686032072    12.000000000000
         C           -0.790924231410    -2.163490243098    -0.253694032072    12.000000000000
         C           -2.548798231410    -0.619959243098     0.342682967928    12.000000000000
         C           -2.114635231410    -1.925832243098     0.112440967928    12.000000000000
         C           -2.185788231410     1.872546756902     0.433909967928    12.000000000000
         H            1.645359768590    -2.366205243098    -1.186540032072     1.007825032230
         H            1.817075768590    -0.668433243098    -1.604274032072     1.007825032230
         H            2.493301768590    -2.004121243098     1.057207967928     1.007825032230
         H            3.544455768590    -1.075863243098    -0.017647032072     1.007825032230
         H            1.321892768590    -0.092332243098     1.829587967928     1.007825032230
         H            2.999323768590     0.438094756902     1.794775967928     1.007825032230
         H            2.457886768590     1.988877756902     0.138010967928     1.007825032230
         H           -0.452264231410    -3.180272243098    -0.446629032072     1.007825032230
         H           -3.584079231410    -0.439640243098     0.626747967928     1.007825032230
         H           -2.808204231410    -2.756740243098     0.221194967928     1.007825032230
         H           -1.538677231410     2.423605756902     1.122563967928     1.007825032230
         H           -2.206117231410     2.437370756902    -0.500445032072     1.007825032230
         H           -3.193906231410     1.844328756902     0.856971967928     1.007825032230

  Basis Set: AUG-CC-PVTZ
    Blend: AUG-CC-PVTZ
  Basis Set: (AUG-CC-PVTZ AUX)
    Blend: AUG-CC-PVTZ-JKFIT
	 Reference Energy          =    -553.6430314022393304 [Eh]
	 Singles Energy            =      -0.0000000000000000 [Eh]
	 Same-Spin Energy          =      -0.6042326548409251 [Eh]
	 Opposite-Spin Energy      =      -1.9031682771361331 [Eh]
	 Correlation Energy        =      -2.5074009319770583 [Eh]
	 Total Energy              =    -556.1504323342163616 [Eh]

	 ================> DF-SCS-MP2 Energies <==================
	-----------------------------------------------------------
	 SCS Same-Spin Scale       =       0.3333333333333333 [-]
	 SCS Opposite-Spin Scale   =       1.2000000000000000 [-]
	 SCS Same-Spin Energy      =      -0.2014108849469750 [Eh]
	 SCS Opposite-Spin Energy  =      -2.2838019325633598 [Eh]
	 SCS Correlation Energy    =      -2.4852128175103347 [Eh]
	 SCS Total Energy          =    -556.1282442197497176 [Eh]
	-----------------------------------------------------------

  Dipole Moment: [D]
     X:     1.7910      Y:    -2.5042      Z:     2.2114     Total:     3.7907

*** Psi4 exiting successfully. Buy a developer a beer!
