                               Psi4 1.4a3.dev225

  ==> Input File <==

--------------------------------------------------------------------------
#psi4
#
memory 32 gb

molecule  {
0 1
  O        0.3130990     2.3704440    -1.0483590
  N        1.7883250     1.2487180     0.2800910
  C        1.5287440    -1.3320340    -0.8115580
  C        2.5082430    -1.1273300     0.3546920
  C        0.0936770    -1.0844130    -0.4156830
  C       -0.3593510     0.2288580    -0.1728470
  C        2.1726959     0.1455389     1.1472162
  C       -1.6973100     0.4876920     0.1815770
  C        0.5874820     1.3794060    -0.3635620
  C       -0.8057180    -2.1460500    -0.2745700
  C       -2.5635920    -0.6025190     0.3218070
  C       -2.1294290    -1.9083920     0.0915650
  C       -2.2005820     1.8899870     0.4130340
  H        1.6305660    -2.3487650    -1.2074160
  H        1.8022820    -0.6509930    -1.6251500
  H        2.4785080    -1.9866810     1.0363320
  H        3.5296620    -1.0584230    -0.0385230
  H        1.3070990    -0.0748920     1.8087120
  H        2.9845300     0.4555350     1.7739000
  H        2.4430930     2.0063180     0.1171350
  H       -0.4670580    -3.1628320    -0.4675050
  H       -3.5988730    -0.4222000     0.6058720
  H       -2.8229980    -2.7393000     0.2003190
  H       -1.5534710     2.4410460     1.1016880
  H       -2.2209110     2.4548110    -0.5213210
  H       -3.2087000     1.8617690     0.8360960
units angstrom
no_reorient  #important for SAPT in psi4, default
symmetry c1  #important for SAPT in psi4, default
}

set PROPERTIES_ORIGIN ["COM"]
properties('MP2/aug-cc-pvtz', properties = ['dipole'])
--------------------------------------------------------------------------

    Molecular point group: c1
  Charge       = 0
  Multiplicity = 1
  Basis Set: AUG-CC-PVTZ
    Blend: AUG-CC-PVTZ
  Basis Set: (AUG-CC-PVTZ AUX)
    Blend: AUG-CC-PVTZ-JKFIT

    Orbital Energies [Eh]
    ---------------------

    Doubly Occupied:

       1A    -20.512891     2A    -15.583072     3A    -11.350872
       4A    -11.274861     5A    -11.254279     6A    -11.253417
       7A    -11.244336     8A    -11.241943     9A    -11.238546
      10A    -11.237591    11A    -11.235180    12A    -11.232598
      13A    -11.215841    14A     -1.367694    15A     -1.235046
      16A     -1.163638    17A     -1.084073    18A     -1.044589
      19A     -1.028649    20A     -0.943141    21A     -0.933681
      22A     -0.874104    23A     -0.829448    24A     -0.785093
      25A     -0.769268    26A     -0.694133    27A     -0.682545
      28A     -0.661691    29A     -0.658538    30A     -0.619164
      31A     -0.615769    32A     -0.590099    33A     -0.583977
      34A     -0.570352    35A     -0.565596    36A     -0.552981
      37A     -0.532245    38A     -0.530055    39A     -0.513331
      40A     -0.505053    41A     -0.490423    42A     -0.479162
      43A     -0.473136    44A     -0.417810    45A     -0.385086
      46A     -0.336352    47A     -0.327437

  @DF-RHF Final Energy:  -553.64258356702112

   => Energetics <=

    Nuclear Repulsion Energy =            795.6223794589244562
    One-Electron Energy =               -2331.0923621688971252
    Two-Electron Energy =                 981.8273991429514354
    Total Energy =                       -553.6425835670211200
  Basis Set: (AUG-CC-PVTZ AUX)
    Blend: AUG-CC-PVTZ-RI
    Molecular point group: c1

    Geometry (in Angstrom), charge = 0, multiplicity = 1:

       Center              X                  Y                   Z               Mass
    ------------   -----------------  -----------------  -----------------  -----------------
         O            0.324577524485     2.351483220312    -1.028154760321    15.994914619570
         N            1.799803524485     1.229757220312     0.300295239679    14.003074004430
         C            1.540222524485    -1.350994779688    -0.791353760321    12.000000000000
         C            2.519721524485    -1.146290779688     0.374896239679    12.000000000000
         C            0.105155524485    -1.103373779688    -0.395478760321    12.000000000000
         C           -0.347872475515     0.209897220312    -0.152642760321    12.000000000000
         C            2.184174424485     0.126578120312     1.167420439679    12.000000000000
         C           -1.685831475515     0.468731220312     0.201781239679    12.000000000000
         C            0.598960524485     1.360445220312    -0.343357760321    12.000000000000
         C           -0.794239475515    -2.165010779688    -0.254365760321    12.000000000000
         C           -2.552113475515    -0.621479779688     0.342011239679    12.000000000000
         C           -2.117950475515    -1.927352779688     0.111769239679    12.000000000000
         C           -2.189103475515     1.871026220312     0.433238239679    12.000000000000
         H            1.642044524485    -2.367725779688    -1.187211760321     1.007825032230
         H            1.813760524485    -0.669953779688    -1.604945760321     1.007825032230
         H            2.489986524485    -2.005641779688     1.056536239679     1.007825032230
         H            3.541140524485    -1.077383779688    -0.018318760321     1.007825032230
         H            1.318577524485    -0.093852779688     1.828916239679     1.007825032230
         H            2.996008524485     0.436574220312     1.794104239679     1.007825032230
         H            2.454571524485     1.987357220312     0.137339239679     1.007825032230
         H           -0.455579475515    -3.181792779688    -0.447300760321     1.007825032230
         H           -3.587394475515    -0.441160779688     0.626076239679     1.007825032230
         H           -2.811519475515    -2.758260779688     0.220523239679     1.007825032230
         H           -1.541992475515     2.422085220312     1.121892239679     1.007825032230
         H           -2.209432475515     2.435850220312    -0.501116760321     1.007825032230
         H           -3.197221475515     1.842808220312     0.856300239679     1.007825032230

  Basis Set: AUG-CC-PVTZ
    Blend: AUG-CC-PVTZ
  Basis Set: (AUG-CC-PVTZ AUX)
    Blend: AUG-CC-PVTZ-JKFIT
	 Reference Energy          =    -553.6425835670211200 [Eh]
	 Singles Energy            =      -0.0000000000000000 [Eh]
	 Same-Spin Energy          =      -0.6041198145868504 [Eh]
	 Opposite-Spin Energy      =      -1.9030268467960325 [Eh]
	 Correlation Energy        =      -2.5071466613828828 [Eh]
	 Total Energy              =    -556.1497302284039961 [Eh]

	 ================> DF-SCS-MP2 Energies <==================
	-----------------------------------------------------------
	 SCS Same-Spin Scale       =       0.3333333333333333 [-]
	 SCS Opposite-Spin Scale   =       1.2000000000000000 [-]
	 SCS Same-Spin Energy      =      -0.2013732715289501 [Eh]
	 SCS Opposite-Spin Energy  =      -2.2836322161552389 [Eh]
	 SCS Correlation Energy    =      -2.4850054876841892 [Eh]
	 SCS Total Energy          =    -556.1275890547052541 [Eh]
	-----------------------------------------------------------

  Dipole Moment: [D]
     X:     1.7415      Y:    -2.5285      Z:     2.2049     Total:     3.7799

*** Psi4 exiting successfully. Buy a developer a beer!
