                               Psi4 1.4a3.dev225

  ==> Input File <==

--------------------------------------------------------------------------
#psi4
#
memory 32 gb

molecule  {
0 1
  O        0.3130990     2.3704440    -1.0483590
  N        1.7883250     1.2487180     0.2800910
  C        1.5287440    -1.3320340    -0.8115580
  C        2.5082430    -1.1273300     0.3546920
  C       -0.0965086    -1.0515964    -0.3632187
  C       -0.3593510     0.2288580    -0.1728470
  C        2.1500350     0.1348000     1.1432270
  C       -1.6973100     0.4876920     0.1815770
  C        0.5874820     1.3794060    -0.3635620
  C       -0.8057180    -2.1460500    -0.2745700
  C       -2.5635920    -0.6025190     0.3218070
  C       -2.1294290    -1.9083920     0.0915650
  C       -2.2005820     1.8899870     0.4130340
  H        1.6305660    -2.3487650    -1.2074160
  H        1.8022820    -0.6509930    -1.6251500
  H        2.4785080    -1.9866810     1.0363320
  H        3.5296620    -1.0584230    -0.0385230
  H        1.3070990    -0.0748920     1.8087120
  H        2.9845300     0.4555350     1.7739000
  H        2.4430930     2.0063180     0.1171350
  H       -0.4670580    -3.1628320    -0.4675050
  H       -3.5988730    -0.4222000     0.6058720
  H       -2.8229980    -2.7393000     0.2003190
  H       -1.5534710     2.4410460     1.1016880
  H       -2.2209110     2.4548110    -0.5213210
  H       -3.2087000     1.8617690     0.8360960
units angstrom
no_reorient  #important for SAPT in psi4, default
symmetry c1  #important for SAPT in psi4, default
}

set PROPERTIES_ORIGIN ["COM"]
properties('MP2/aug-cc-pvtz', properties = ['dipole'])
--------------------------------------------------------------------------

    Molecular point group: c1
  Charge       = 0
  Multiplicity = 1
  Basis Set: AUG-CC-PVTZ
    Blend: AUG-CC-PVTZ
  Basis Set: (AUG-CC-PVTZ AUX)
    Blend: AUG-CC-PVTZ-JKFIT

    Orbital Energies [Eh]
    ---------------------

    Doubly Occupied:

       1A    -20.515983     2A    -15.583712     3A    -11.355727
       4A    -11.273639     5A    -11.254586     6A    -11.245631
       7A    -11.243940     8A    -11.238613     9A    -11.234163
      10A    -11.233388    11A    -11.230479    12A    -11.225932
      13A    -11.215713    14A     -1.370326    15A     -1.235454
      16A     -1.182161    17A     -1.070287    18A     -1.052513
      19A     -1.032031    20A     -0.945134    21A     -0.931560
      22A     -0.871870    23A     -0.821803    24A     -0.785273
      25A     -0.783210    26A     -0.696917    27A     -0.681394
      28A     -0.670877    29A     -0.655758    30A     -0.618781
      31A     -0.610732    32A     -0.593125    33A     -0.586031
      34A     -0.575620    35A     -0.564469    36A     -0.545268
      37A     -0.533893    38A     -0.527472    39A     -0.513850
      40A     -0.507085    41A     -0.490015    42A     -0.488909
      43A     -0.434025    44A     -0.415073    45A     -0.385382
      46A     -0.346557    47A     -0.335323

  @DF-RHF Final Energy:  -553.60480195054686

   => Energetics <=

    Nuclear Repulsion Energy =            797.1460577171332034
    One-Electron Energy =               -2334.0823490235165991
    Two-Electron Energy =                 983.3314893558364247
    Total Energy =                       -553.6048019505468574
  Basis Set: (AUG-CC-PVTZ AUX)
    Blend: AUG-CC-PVTZ-RI
    Molecular point group: c1

    Geometry (in Angstrom), charge = 0, multiplicity = 1:

       Center              X                  Y                   Z               Mass
    ------------   -----------------  -----------------  -----------------  -----------------
         O            0.339164401533     2.349970183004    -1.031476874255    15.994914619570
         N            1.814390401533     1.228244183004     0.296973125745    14.003074004430
         C            1.554809401533    -1.352507816996    -0.794675874255    12.000000000000
         C            2.534308401533    -1.147803816996     0.371574125745    12.000000000000
         C           -0.070443198467    -1.072070216996    -0.346336574255    12.000000000000
         C           -0.333285598467     0.208384183004    -0.155964874255    12.000000000000
         C            2.176100401533     0.114326183004     1.160109125745    12.000000000000
         C           -1.671244598467     0.467218183004     0.198459125745    12.000000000000
         C            0.613547401533     1.358932183004    -0.346679874255    12.000000000000
         C           -0.779652598467    -2.166523816996    -0.257687874255    12.000000000000
         C           -2.537526598467    -0.622992816996     0.338689125745    12.000000000000
         C           -2.103363598467    -1.928865816996     0.108447125745    12.000000000000
         C           -2.174516598467     1.869513183004     0.429916125745    12.000000000000
         H            1.656631401533    -2.369238816996    -1.190533874255     1.007825032230
         H            1.828347401533    -0.671466816996    -1.608267874255     1.007825032230
         H            2.504573401533    -2.007154816996     1.053214125745     1.007825032230
         H            3.555727401533    -1.078896816996    -0.021640874255     1.007825032230
         H            1.333164401533    -0.095365816996     1.825594125745     1.007825032230
         H            3.010595401533     0.435061183004     1.790782125745     1.007825032230
         H            2.469158401533     1.985844183004     0.134017125745     1.007825032230
         H           -0.440992598467    -3.183305816996    -0.450622874255     1.007825032230
         H           -3.572807598467    -0.442673816996     0.622754125745     1.007825032230
         H           -2.796932598467    -2.759773816996     0.217201125745     1.007825032230
         H           -1.527405598467     2.420572183004     1.118570125745     1.007825032230
         H           -2.194845598467     2.434337183004    -0.504438874255     1.007825032230
         H           -3.182634598467     1.841295183004     0.852978125745     1.007825032230

  Basis Set: AUG-CC-PVTZ
    Blend: AUG-CC-PVTZ
  Basis Set: (AUG-CC-PVTZ AUX)
    Blend: AUG-CC-PVTZ-JKFIT
	 Reference Energy          =    -553.6048019505468574 [Eh]
	 Singles Energy            =      -0.0000000000000000 [Eh]
	 Same-Spin Energy          =      -0.6039200765034569 [Eh]
	 Opposite-Spin Energy      =      -1.9034206520633572 [Eh]
	 Correlation Energy        =      -2.5073407285668141 [Eh]
	 Total Energy              =    -556.1121426791136173 [Eh]

	 ================> DF-SCS-MP2 Energies <==================
	-----------------------------------------------------------
	 SCS Same-Spin Scale       =       0.3333333333333333 [-]
	 SCS Opposite-Spin Scale   =       1.2000000000000000 [-]
	 SCS Same-Spin Energy      =      -0.2013066921678190 [Eh]
	 SCS Opposite-Spin Energy  =      -2.2841047824760286 [Eh]
	 SCS Correlation Energy    =      -2.4854114746438474 [Eh]
	 SCS Total Energy          =    -556.0902134251906546 [Eh]
	-----------------------------------------------------------

  Dipole Moment: [D]
     X:     1.5666      Y:    -2.4898      Z:     2.2302     Total:     3.6915

*** Psi4 exiting successfully. Buy a developer a beer!
