                               Psi4 1.4a3.dev225

  ==> Input File <==

--------------------------------------------------------------------------
#psi4
#
memory 32 gb

molecule  {
0 1
  O        0.3130990     2.3704440    -1.0483590
  N        1.7883250     1.2487180     0.2800910
  C        1.5287440    -1.3320340    -0.8115580
  C        2.5082430    -1.1273300     0.3546920
  C        0.0936770    -1.0844130    -0.4156830
  C       -0.3593510     0.2288580    -0.1728470
  C        2.1500350     0.1348000     1.1432270
  C       -1.6973100     0.4876920     0.1815770
  C        0.5874820     1.3794060    -0.3635620
  C       -0.8057180    -2.1460500    -0.2745700
  C       -2.5635920    -0.6025190     0.3218070
  C       -2.1294290    -1.9083920     0.0915650
  C       -2.2339612     1.9829933     0.4283852
  H        1.6305660    -2.3487650    -1.2074160
  H        1.8022820    -0.6509930    -1.6251500
  H        2.4785080    -1.9866810     1.0363320
  H        3.5296620    -1.0584230    -0.0385230
  H        1.3070990    -0.0748920     1.8087120
  H        2.9845300     0.4555350     1.7739000
  H        2.4430930     2.0063180     0.1171350
  H       -0.4670580    -3.1628320    -0.4675050
  H       -3.5988730    -0.4222000     0.6058720
  H       -2.8229980    -2.7393000     0.2003190
  H       -1.5534710     2.4410460     1.1016880
  H       -2.2209110     2.4548110    -0.5213210
  H       -3.2087000     1.8617690     0.8360960
units angstrom
no_reorient  #important for SAPT in psi4, default
symmetry c1  #important for SAPT in psi4, default
}

set PROPERTIES_ORIGIN ["COM"]
properties('MP2/aug-cc-pvtz', properties = ['dipole'])
--------------------------------------------------------------------------

    Molecular point group: c1
  Charge       = 0
  Multiplicity = 1
  Basis Set: AUG-CC-PVTZ
    Blend: AUG-CC-PVTZ
  Basis Set: (AUG-CC-PVTZ AUX)
    Blend: AUG-CC-PVTZ-JKFIT

    Orbital Energies [Eh]
    ---------------------

    Doubly Occupied:

       1A    -20.512718     2A    -15.582985     3A    -11.350128
       4A    -11.274811     5A    -11.256255     6A    -11.253876
       7A    -11.244121     8A    -11.241863     9A    -11.238053
      10A    -11.237242    11A    -11.235006    12A    -11.232661
      13A    -11.215299    14A     -1.367499    15A     -1.235274
      16A     -1.161297    17A     -1.082065    18A     -1.039020
      19A     -1.026940    20A     -0.943494    21A     -0.933949
      22A     -0.873805    23A     -0.830688    24A     -0.783971
      25A     -0.769809    26A     -0.693714    27A     -0.682353
      28A     -0.659253    29A     -0.656745    30A     -0.618294
      31A     -0.614580    32A     -0.589770    33A     -0.585367
      34A     -0.574874    35A     -0.563058    36A     -0.553941
      37A     -0.542896    38A     -0.531461    39A     -0.513541
      40A     -0.501528    41A     -0.484281    42A     -0.481934
      43A     -0.466005    44A     -0.417626    45A     -0.386181
      46A     -0.336447    47A     -0.328710

  @DF-RHF Final Energy:  -553.63625566344933

   => Energetics <=

    Nuclear Repulsion Energy =            794.0893044804914780
    One-Electron Energy =               -2328.0403414862494174
    Two-Electron Energy =                 980.3147813423084926
    Total Energy =                       -553.6362556634493330
  Basis Set: (AUG-CC-PVTZ AUX)
    Blend: AUG-CC-PVTZ-RI
    Molecular point group: c1

    Geometry (in Angstrom), charge = 0, multiplicity = 1:

       Center              X                  Y                   Z               Mass
    ------------   -----------------  -----------------  -----------------  -----------------
         O            0.328418085868     2.345845239660    -1.028933425213    15.994914619570
         N            1.803644085868     1.224119239660     0.299516574787    14.003074004430
         C            1.544063085868    -1.356632760340    -0.792132425213    12.000000000000
         C            2.523562085868    -1.151928760340     0.374117574787    12.000000000000
         C            0.108996085868    -1.109011760340    -0.396257425213    12.000000000000
         C           -0.344031914132     0.204259239660    -0.153421425213    12.000000000000
         C            2.165354085868     0.110201239660     1.162652574787    12.000000000000
         C           -1.681990914132     0.463093239660     0.201002574787    12.000000000000
         C            0.602801085868     1.354807239660    -0.344136425213    12.000000000000
         C           -0.790398914132    -2.170648760340    -0.255144425213    12.000000000000
         C           -2.548272914132    -0.627117760340     0.341232574787    12.000000000000
         C           -2.114109914132    -1.932990760340     0.110990574787    12.000000000000
         C           -2.218642114132     1.958394539660     0.447810774787    12.000000000000
         H            1.645885085868    -2.373363760340    -1.187990425213     1.007825032230
         H            1.817601085868    -0.675591760340    -1.605724425213     1.007825032230
         H            2.493827085868    -2.011279760340     1.055757574787     1.007825032230
         H            3.544981085868    -1.083021760340    -0.019097425213     1.007825032230
         H            1.322418085868    -0.099490760340     1.828137574787     1.007825032230
         H            2.999849085868     0.430936239660     1.793325574787     1.007825032230
         H            2.458412085868     1.981719239660     0.136560574787     1.007825032230
         H           -0.451738914132    -3.187430760340    -0.448079425213     1.007825032230
         H           -3.583553914132    -0.446798760340     0.625297574787     1.007825032230
         H           -2.807678914132    -2.763898760340     0.219744574787     1.007825032230
         H           -1.538151914132     2.416447239660     1.121113574787     1.007825032230
         H           -2.205591914132     2.430212239660    -0.501895425213     1.007825032230
         H           -3.193380914132     1.837170239660     0.855521574787     1.007825032230

  Basis Set: AUG-CC-PVTZ
    Blend: AUG-CC-PVTZ
  Basis Set: (AUG-CC-PVTZ AUX)
    Blend: AUG-CC-PVTZ-JKFIT
	 Reference Energy          =    -553.6362556634493330 [Eh]
	 Singles Energy            =      -0.0000000000000000 [Eh]
	 Same-Spin Energy          =      -0.6036221805227959 [Eh]
	 Opposite-Spin Energy      =      -1.9028548589193444 [Eh]
	 Correlation Energy        =      -2.5064770394421405 [Eh]
	 Total Energy              =    -556.1427327028915215 [Eh]

	 ================> DF-SCS-MP2 Energies <==================
	-----------------------------------------------------------
	 SCS Same-Spin Scale       =       0.3333333333333333 [-]
	 SCS Opposite-Spin Scale   =       1.2000000000000000 [-]
	 SCS Same-Spin Energy      =      -0.2012073935075986 [Eh]
	 SCS Opposite-Spin Energy  =      -2.2834258307032131 [Eh]
	 SCS Correlation Energy    =      -2.4846332242108118 [Eh]
	 SCS Total Energy          =    -556.1208888876601577 [Eh]
	-----------------------------------------------------------

  Dipole Moment: [D]
     X:     1.7301      Y:    -2.5732      Z:     2.2119     Total:     3.8088

*** Psi4 exiting successfully. Buy a developer a beer!
