                               Psi4 1.4a3.dev225

  ==> Input File <==

--------------------------------------------------------------------------
#psi4
#
memory 32 gb

molecule  {
0 1
  O        0.3130990     2.3704440    -1.0483590
  N        1.7883250     1.2487180     0.2800910
  C        1.5287440    -1.3320340    -0.8115580
  C        2.5082430    -1.1273300     0.3546920
  C        0.0936770    -1.0844130    -0.4156830
  C       -0.3593510     0.2288580    -0.1728470
  C        2.1500350     0.1348000     1.1432270
  C       -1.6973100     0.4876920     0.1815770
  C        0.5874820     1.3794060    -0.3635620
  C       -0.8057180    -2.1460500    -0.2745700
  C       -2.5635920    -0.6025190     0.3218070
  C       -2.1104351    -1.9118022     0.0863113
  C       -2.2005820     1.8899870     0.4130340
  H        1.6305660    -2.3487650    -1.2074160
  H        1.8022820    -0.6509930    -1.6251500
  H        2.4785080    -1.9866810     1.0363320
  H        3.5296620    -1.0584230    -0.0385230
  H        1.3070990    -0.0748920     1.8087120
  H        2.9845300     0.4555350     1.7739000
  H        2.4430930     2.0063180     0.1171350
  H       -0.4670580    -3.1628320    -0.4675050
  H       -3.5988730    -0.4222000     0.6058720
  H       -2.8229980    -2.7393000     0.2003190
  H       -1.5534710     2.4410460     1.1016880
  H       -2.2209110     2.4548110    -0.5213210
  H       -3.2087000     1.8617690     0.8360960
units angstrom
no_reorient  #important for SAPT in psi4, default
symmetry c1  #important for SAPT in psi4, default
}

set PROPERTIES_ORIGIN ["COM"]
properties('MP2/aug-cc-pvtz', properties = ['dipole'])
--------------------------------------------------------------------------

    Molecular point group: c1
  Charge       = 0
  Multiplicity = 1
  Basis Set: AUG-CC-PVTZ
    Blend: AUG-CC-PVTZ
  Basis Set: (AUG-CC-PVTZ AUX)
    Blend: AUG-CC-PVTZ-JKFIT

    Orbital Energies [Eh]
    ---------------------

    Doubly Occupied:

       1A    -20.512688     2A    -15.583097     3A    -11.350329
       4A    -11.274961     5A    -11.254668     6A    -11.253072
       7A    -11.244007     8A    -11.241916     9A    -11.238418
      10A    -11.237565    11A    -11.233363    12A    -11.233242
      13A    -11.215694    14A     -1.367595    15A     -1.235396
      16A     -1.164562    17A     -1.084424    18A     -1.046671
      19A     -1.028028    20A     -0.943176    21A     -0.933175
      22A     -0.874278    23A     -0.829303    24A     -0.785243
      25A     -0.769440    26A     -0.694376    27A     -0.683038
      28A     -0.660108    29A     -0.657868    30A     -0.619875
      31A     -0.615682    32A     -0.589437    33A     -0.583729
      34A     -0.570574    35A     -0.566666    36A     -0.553150
      37A     -0.531734    38A     -0.531518    39A     -0.513989
      40A     -0.503282    41A     -0.488118    42A     -0.480059
      43A     -0.474825    44A     -0.417350    45A     -0.386067
      46A     -0.336992    47A     -0.327658

  @DF-RHF Final Energy:  -553.64280755420430

   => Energetics <=

    Nuclear Repulsion Energy =            796.2183366584761188
    One-Electron Energy =               -2332.2814749485678476
    Two-Electron Energy =                 982.4203307358874326
    Total Energy =                       -553.6428075542042961
  Basis Set: (AUG-CC-PVTZ AUX)
    Blend: AUG-CC-PVTZ-RI
    Molecular point group: c1

    Geometry (in Angstrom), charge = 0, multiplicity = 1:

       Center              X                  Y                   Z               Mass
    ------------   -----------------  -----------------  -----------------  -----------------
         O            0.324828832719     2.352452891798    -1.027521322393    15.994914619570
         N            1.800054832719     1.230726891798     0.300928677607    14.003074004430
         C            1.540473832719    -1.350025108202    -0.790720322393    12.000000000000
         C            2.519972832719    -1.145321108202     0.375529677607    12.000000000000
         C            0.105406832719    -1.102404108202    -0.394845322393    12.000000000000
         C           -0.347621167281     0.210866891798    -0.152009322393    12.000000000000
         C            2.161764832719     0.116808891798     1.164064677607    12.000000000000
         C           -1.685580167281     0.469700891798     0.202414677607    12.000000000000
         C            0.599211832719     1.361414891798    -0.342724322393    12.000000000000
         C           -0.793988167281    -2.164041108202    -0.253732322393    12.000000000000
         C           -2.551862167281    -0.620510108202     0.342644677607    12.000000000000
         C           -2.098705267281    -1.929793308202     0.107148977607    12.000000000000
         C           -2.188852167281     1.871995891798     0.433871677607    12.000000000000
         H            1.642295832719    -2.366756108202    -1.186578322393     1.007825032230
         H            1.814011832719    -0.668984108202    -1.604312322393     1.007825032230
         H            2.490237832719    -2.004672108202     1.057169677607     1.007825032230
         H            3.541391832719    -1.076414108202    -0.017685322393     1.007825032230
         H            1.318828832719    -0.092883108202     1.829549677607     1.007825032230
         H            2.996259832719     0.437543891798     1.794737677607     1.007825032230
         H            2.454822832719     1.988326891798     0.137972677607     1.007825032230
         H           -0.455328167281    -3.180823108202    -0.446667322393     1.007825032230
         H           -3.587143167281    -0.440191108202     0.626709677607     1.007825032230
         H           -2.811268167281    -2.757291108202     0.221156677607     1.007825032230
         H           -1.541741167281     2.423054891798     1.122525677607     1.007825032230
         H           -2.209181167281     2.436819891798    -0.500483322393     1.007825032230
         H           -3.196970167281     1.843777891798     0.856933677607     1.007825032230

  Basis Set: AUG-CC-PVTZ
    Blend: AUG-CC-PVTZ
  Basis Set: (AUG-CC-PVTZ AUX)
    Blend: AUG-CC-PVTZ-JKFIT
	 Reference Energy          =    -553.6428075542042961 [Eh]
	 Singles Energy            =      -0.0000000000000000 [Eh]
	 Same-Spin Energy          =      -0.6041804739084972 [Eh]
	 Opposite-Spin Energy      =      -1.9030294296522072 [Eh]
	 Correlation Energy        =      -2.5072099035607045 [Eh]
	 Total Energy              =    -556.1500174577649886 [Eh]

	 ================> DF-SCS-MP2 Energies <==================
	-----------------------------------------------------------
	 SCS Same-Spin Scale       =       0.3333333333333333 [-]
	 SCS Opposite-Spin Scale   =       1.2000000000000000 [-]
	 SCS Same-Spin Energy      =      -0.2013934913028324 [Eh]
	 SCS Opposite-Spin Energy  =      -2.2836353155826488 [Eh]
	 SCS Correlation Energy    =      -2.4850288068854813 [Eh]
	 SCS Total Energy          =    -556.1278363610897486 [Eh]
	-----------------------------------------------------------

  Dipole Moment: [D]
     X:     1.7292      Y:    -2.5358      Z:     2.2047     Total:     3.7790

*** Psi4 exiting successfully. Buy a developer a beer!
