                               Psi4 1.4a3.dev225

  ==> Input File <==

--------------------------------------------------------------------------
#psi4
#
memory 32 gb

molecule  {
0 1
  O        0.3130990     2.3704440    -1.0483590
  N        1.7883250     1.2487180     0.2800910
  C        1.5287440    -1.3320340    -0.8115580
  C        2.5082430    -1.1273300     0.3546920
  C        0.0936770    -1.0844130    -0.4156830
  C       -0.3593510     0.2288580    -0.1728470
  C        2.1500350     0.1348000     1.1432270
  C       -1.6973100     0.4876920     0.1815770
  C        0.5874820     1.3794060    -0.3635620
  C       -0.8057180    -2.1460500    -0.2745700
  C       -2.5635920    -0.6025190     0.3218070
  C       -2.1294290    -1.9083920     0.0915650
  C       -2.2005820     1.8899870     0.4130340
  H        1.6305660    -2.3487650    -1.2074160
  H        1.8022820    -0.6509930    -1.6251500
  H        2.4785080    -1.9866810     1.0363320
  H        3.5296620    -1.0584230    -0.0385230
  H        1.2300658    -0.0940551     1.8695286
  H        2.9845300     0.4555350     1.7739000
  H        2.4430930     2.0063180     0.1171350
  H       -0.4670580    -3.1628320    -0.4675050
  H       -3.5988730    -0.4222000     0.6058720
  H       -2.8229980    -2.7393000     0.2003190
  H       -1.5534710     2.4410460     1.1016880
  H       -2.2209110     2.4548110    -0.5213210
  H       -3.2087000     1.8617690     0.8360960
units angstrom
no_reorient  #important for SAPT in psi4, default
symmetry c1  #important for SAPT in psi4, default
}

set PROPERTIES_ORIGIN ["COM"]
properties('MP2/aug-cc-pvtz', properties = ['dipole'])
--------------------------------------------------------------------------

    Molecular point group: c1
  Charge       = 0
  Multiplicity = 1
  Basis Set: AUG-CC-PVTZ
    Blend: AUG-CC-PVTZ
  Basis Set: (AUG-CC-PVTZ AUX)
    Blend: AUG-CC-PVTZ-JKFIT

    Orbital Energies [Eh]
    ---------------------

    Doubly Occupied:

       1A    -20.513254     2A    -15.584316     3A    -11.350713
       4A    -11.286207     5A    -11.254193     6A    -11.253327
       7A    -11.244255     8A    -11.241900     9A    -11.238827
      10A    -11.238199    11A    -11.235133    12A    -11.232567
      13A    -11.215828    14A     -1.368074    15A     -1.235339
      16A     -1.163615    17A     -1.084553    18A     -1.044630
      19A     -1.027635    20A     -0.941305    21A     -0.931380
      22A     -0.873708    23A     -0.827664    24A     -0.785065
      25A     -0.767891    26A     -0.693426    27A     -0.678821
      28A     -0.660104    29A     -0.658586    30A     -0.619317
      31A     -0.614810    32A     -0.590658    33A     -0.583124
      34A     -0.569909    35A     -0.563901    36A     -0.552958
      37A     -0.531569    38A     -0.526323    39A     -0.512729
      40A     -0.504152    41A     -0.488628    42A     -0.478784
      43A     -0.472516    44A     -0.417885    45A     -0.385643
      46A     -0.335880    47A     -0.327387

  @DF-RHF Final Energy:  -553.63629113864431

   => Energetics <=

    Nuclear Repulsion Energy =            795.5790059257985831
    One-Electron Energy =               -2331.0172198250388647
    Two-Electron Energy =                 981.8019227605959713
    Total Energy =                       -553.6362911386443102
  Basis Set: (AUG-CC-PVTZ AUX)
    Blend: AUG-CC-PVTZ-RI
    Molecular point group: c1

    Geometry (in Angstrom), charge = 0, multiplicity = 1:

       Center              X                  Y                   Z               Mass
    ------------   -----------------  -----------------  -----------------  -----------------
         O            0.326573911453     2.352329480128    -1.028231414311    15.994914619570
         N            1.801799911453     1.230603480128     0.300218585689    14.003074004430
         C            1.542218911453    -1.350148519872    -0.791430414311    12.000000000000
         C            2.521717911453    -1.145444519872     0.374819585689    12.000000000000
         C            0.107151911453    -1.102527519872    -0.395555414311    12.000000000000
         C           -0.345876088547     0.210743480128    -0.152719414311    12.000000000000
         C            2.163509911453     0.116685480128     1.163354585689    12.000000000000
         C           -1.683835088547     0.469577480128     0.201704585689    12.000000000000
         C            0.600956911453     1.361291480128    -0.343434414311    12.000000000000
         C           -0.792243088547    -2.164164519872    -0.254442414311    12.000000000000
         C           -2.550117088547    -0.620633519872     0.341934585689    12.000000000000
         C           -2.115954088547    -1.926506519872     0.111692585689    12.000000000000
         C           -2.187107088547     1.871872480128     0.433161585689    12.000000000000
         H            1.644040911453    -2.366879519872    -1.187288414311     1.007825032230
         H            1.815756911453    -0.669107519872    -1.605022414311     1.007825032230
         H            2.491982911453    -2.004795519872     1.056459585689     1.007825032230
         H            3.543136911453    -1.076537519872    -0.018395414311     1.007825032230
         H            1.243540711453    -0.112169619872     1.889656185689     1.007825032230
         H            2.998004911453     0.437420480128     1.794027585689     1.007825032230
         H            2.456567911453     1.988203480128     0.137262585689     1.007825032230
         H           -0.453583088547    -3.180946519872    -0.447377414311     1.007825032230
         H           -3.585398088547    -0.440314519872     0.625999585689     1.007825032230
         H           -2.809523088547    -2.757414519872     0.220446585689     1.007825032230
         H           -1.539996088547     2.422931480128     1.121815585689     1.007825032230
         H           -2.207436088547     2.436696480128    -0.501193414311     1.007825032230
         H           -3.195225088547     1.843654480128     0.856223585689     1.007825032230

  Basis Set: AUG-CC-PVTZ
    Blend: AUG-CC-PVTZ
  Basis Set: (AUG-CC-PVTZ AUX)
    Blend: AUG-CC-PVTZ-JKFIT
	 Reference Energy          =    -553.6362911386443102 [Eh]
	 Singles Energy            =      -0.0000000000000000 [Eh]
	 Same-Spin Energy          =      -0.6044495540275125 [Eh]
	 Opposite-Spin Energy      =      -1.9040765818561609 [Eh]
	 Correlation Energy        =      -2.5085261358836735 [Eh]
	 Total Energy              =    -556.1448172745280090 [Eh]

	 ================> DF-SCS-MP2 Energies <==================
	-----------------------------------------------------------
	 SCS Same-Spin Scale       =       0.3333333333333333 [-]
	 SCS Opposite-Spin Scale   =       1.2000000000000000 [-]
	 SCS Same-Spin Energy      =      -0.2014831846758375 [Eh]
	 SCS Opposite-Spin Energy  =      -2.2848918982273929 [Eh]
	 SCS Correlation Energy    =      -2.4863750829032303 [Eh]
	 SCS Total Energy          =    -556.1226662215475471 [Eh]
	-----------------------------------------------------------

  Dipole Moment: [D]
     X:     1.7476      Y:    -2.5252      Z:     2.1526     Total:     3.7503

*** Psi4 exiting successfully. Buy a developer a beer!
