                               Psi4 1.4a3.dev225

  ==> Input File <==

--------------------------------------------------------------------------
#psi4
#
memory 32 gb

molecule  {
0 1
  O        0.3130990     2.3704440    -1.0483590
  N        1.7883250     1.2487180     0.2800910
  C        1.5287440    -1.3320340    -0.8115580
  C        2.5082430    -1.1273300     0.3546920
  C        0.0936770    -1.0844130    -0.4156830
  C       -0.3593510     0.2288580    -0.1728470
  C        2.1500350     0.1348000     1.1432270
  C       -1.6973100     0.4876920     0.1815770
  C        0.6752168     1.3698578    -0.3165361
  C       -0.8057180    -2.1460500    -0.2745700
  C       -2.5635920    -0.6025190     0.3218070
  C       -2.1294290    -1.9083920     0.0915650
  C       -2.2005820     1.8899870     0.4130340
  H        1.6305660    -2.3487650    -1.2074160
  H        1.8022820    -0.6509930    -1.6251500
  H        2.4785080    -1.9866810     1.0363320
  H        3.5296620    -1.0584230    -0.0385230
  H        1.3070990    -0.0748920     1.8087120
  H        2.9845300     0.4555350     1.7739000
  H        2.4430930     2.0063180     0.1171350
  H       -0.4670580    -3.1628320    -0.4675050
  H       -3.5988730    -0.4222000     0.6058720
  H       -2.8229980    -2.7393000     0.2003190
  H       -1.5534710     2.4410460     1.1016880
  H       -2.2209110     2.4548110    -0.5213210
  H       -3.2087000     1.8617690     0.8360960
units angstrom
no_reorient  #important for SAPT in psi4, default
symmetry c1  #important for SAPT in psi4, default
}

set PROPERTIES_ORIGIN ["COM"]
properties('MP2/aug-cc-pvtz', properties = ['dipole'])
--------------------------------------------------------------------------

    Molecular point group: c1
  Charge       = 0
  Multiplicity = 1
  Basis Set: AUG-CC-PVTZ
    Blend: AUG-CC-PVTZ
  Basis Set: (AUG-CC-PVTZ AUX)
    Blend: AUG-CC-PVTZ-JKFIT

    Orbital Energies [Eh]
    ---------------------

    Doubly Occupied:

       1A    -20.494939     2A    -15.601900     3A    -11.346055
       4A    -11.286128     5A    -11.250541     6A    -11.250381
       7A    -11.244493     8A    -11.243753     9A    -11.241083
      10A    -11.240573    11A    -11.233437    12A    -11.230899
      13A    -11.211412    14A     -1.350705    15A     -1.251769
      16A     -1.161967    17A     -1.090181    18A     -1.042384
      19A     -1.030327    20A     -0.950880    21A     -0.932611
      22A     -0.875677    23A     -0.836205    24A     -0.792438
      25A     -0.774393    26A     -0.695070    27A     -0.692795
      28A     -0.663093    29A     -0.658082    30A     -0.622481
      31A     -0.617727    32A     -0.590797    33A     -0.577771
      34A     -0.564716    35A     -0.561157    36A     -0.553517
      37A     -0.533691    38A     -0.525543    39A     -0.513040
      40A     -0.501945    41A     -0.489335    42A     -0.477855
      43A     -0.472969    44A     -0.405304    45A     -0.388610
      46A     -0.331466    47A     -0.325289

  @DF-RHF Final Energy:  -553.62780639604671

   => Energetics <=

    Nuclear Repulsion Energy =            796.0170722643202907
    One-Electron Energy =               -2331.8349963702685272
    Two-Electron Energy =                 982.1901177099016422
    Total Energy =                       -553.6278063960467080
  Basis Set: (AUG-CC-PVTZ AUX)
    Blend: AUG-CC-PVTZ-RI
    Molecular point group: c1

    Geometry (in Angstrom), charge = 0, multiplicity = 1:

       Center              X                  Y                   Z               Mass
    ------------   -----------------  -----------------  -----------------  -----------------
         O            0.320117855294     2.352873543542    -1.031104167764    15.994914619570
         N            1.795343855294     1.231147543542     0.297345832236    14.003074004430
         C            1.535762855294    -1.349604456458    -0.794303167764    12.000000000000
         C            2.515261855294    -1.144900456458     0.371946832236    12.000000000000
         C            0.100695855294    -1.101983456458    -0.398428167764    12.000000000000
         C           -0.352332144706     0.211287543542    -0.155592167764    12.000000000000
         C            2.157053855294     0.117229543542     1.160481832236    12.000000000000
         C           -1.690291144706     0.470121543542     0.198831832236    12.000000000000
         C            0.682235655294     1.352287343542    -0.299281267764    12.000000000000
         C           -0.798699144706    -2.163620456458    -0.257315167764    12.000000000000
         C           -2.556573144706    -0.620089456458     0.339061832236    12.000000000000
         C           -2.122410144706    -1.925962456458     0.108819832236    12.000000000000
         C           -2.193563144706     1.872416543542     0.430288832236    12.000000000000
         H            1.637584855294    -2.366335456458    -1.190161167764     1.007825032230
         H            1.809300855294    -0.668563456458    -1.607895167764     1.007825032230
         H            2.485526855294    -2.004251456458     1.053586832236     1.007825032230
         H            3.536680855294    -1.075993456458    -0.021268167764     1.007825032230
         H            1.314117855294    -0.092462456458     1.825966832236     1.007825032230
         H            2.991548855294     0.437964543542     1.791154832236     1.007825032230
         H            2.450111855294     1.988747543542     0.134389832236     1.007825032230
         H           -0.460039144706    -3.180402456458    -0.450250167764     1.007825032230
         H           -3.591854144706    -0.439770456458     0.623126832236     1.007825032230
         H           -2.815979144706    -2.756870456458     0.217573832236     1.007825032230
         H           -1.546452144706     2.423475543542     1.118942832236     1.007825032230
         H           -2.213892144706     2.437240543542    -0.504066167764     1.007825032230
         H           -3.201681144706     1.844198543542     0.853350832236     1.007825032230

  Basis Set: AUG-CC-PVTZ
    Blend: AUG-CC-PVTZ
  Basis Set: (AUG-CC-PVTZ AUX)
    Blend: AUG-CC-PVTZ-JKFIT
	 Reference Energy          =    -553.6278063960467080 [Eh]
	 Singles Energy            =      -0.0000000000000000 [Eh]
	 Same-Spin Energy          =      -0.6048147661699397 [Eh]
	 Opposite-Spin Energy      =      -1.9042069960975729 [Eh]
	 Correlation Energy        =      -2.5090217622675128 [Eh]
	 Total Energy              =    -556.1368281583141879 [Eh]

	 ================> DF-SCS-MP2 Energies <==================
	-----------------------------------------------------------
	 SCS Same-Spin Scale       =       0.3333333333333333 [-]
	 SCS Opposite-Spin Scale   =       1.2000000000000000 [-]
	 SCS Same-Spin Energy      =      -0.2016049220566465 [Eh]
	 SCS Opposite-Spin Energy  =      -2.2850483953170873 [Eh]
	 SCS Correlation Energy    =      -2.4866533173737340 [Eh]
	 SCS Total Energy          =    -556.1144597134203877 [Eh]
	-----------------------------------------------------------

  Dipole Moment: [D]
     X:     2.4502      Y:    -2.7635      Z:     2.6485     Total:     4.5448

*** Psi4 exiting successfully. Buy a developer a beer!
