                               Psi4 1.4a3.dev225

  ==> Input File <==

--------------------------------------------------------------------------
#psi4
#
memory 32 gb

molecule  {
0 1
  O        0.3130990     2.3704440    -1.0483590
  N        1.7883250     1.2487180     0.2800910
  C        1.5287440    -1.3320340    -0.8115580
  C        2.5082430    -1.1273300     0.3546920
  C        0.0936770    -1.0844130    -0.4156830
  C       -0.3593510     0.2288580    -0.1728470
  C        2.1500350     0.1348000     1.1432270
  C       -1.6973100     0.4876920     0.1815770
  C        0.5874820     1.3794060    -0.3635620
  C       -0.8057180    -2.1460500    -0.2745700
  C       -2.5635920    -0.6025190     0.3218070
  C       -2.1294290    -1.9083920     0.0915650
  C       -2.2005820     1.8899870     0.4130340
  H        1.6305660    -2.3487650    -1.2074160
  H        1.8022820    -0.6509930    -1.6251500
  H        2.4785080    -1.9866810     1.0363320
  H        3.5296620    -1.0584230    -0.0385230
  H        1.4611655    -0.0365658     1.6870789
  H        2.9845300     0.4555350     1.7739000
  H        2.4430930     2.0063180     0.1171350
  H       -0.4670580    -3.1628320    -0.4675050
  H       -3.5988730    -0.4222000     0.6058720
  H       -2.8229980    -2.7393000     0.2003190
  H       -1.5534710     2.4410460     1.1016880
  H       -2.2209110     2.4548110    -0.5213210
  H       -3.2087000     1.8617690     0.8360960
units angstrom
no_reorient  #important for SAPT in psi4, default
symmetry c1  #important for SAPT in psi4, default
}

set PROPERTIES_ORIGIN ["COM"]
properties('MP2/aug-cc-pvtz', properties = ['dipole'])
--------------------------------------------------------------------------

    Molecular point group: c1
  Charge       = 0
  Multiplicity = 1
  Basis Set: AUG-CC-PVTZ
    Blend: AUG-CC-PVTZ
  Basis Set: (AUG-CC-PVTZ AUX)
    Blend: AUG-CC-PVTZ-JKFIT

    Orbital Energies [Eh]
    ---------------------

    Doubly Occupied:

       1A    -20.512058     2A    -15.581505     3A    -11.349963
       4A    -11.254534     5A    -11.253720     6A    -11.251078
       7A    -11.244613     8A    -11.242232     9A    -11.237955
      10A    -11.236102    11A    -11.235500    12A    -11.232886
      13A    -11.215983    14A     -1.367107    15A     -1.237390
      16A     -1.163864    17A     -1.085579    18A     -1.045109
      19A     -1.033895    20A     -0.953583    21A     -0.936011
      22A     -0.874071    23A     -0.838084    24A     -0.784769
      25A     -0.775488    26A     -0.701337    27A     -0.688815
      28A     -0.660541    29A     -0.658810    30A     -0.621640
      31A     -0.615951    32A     -0.593436    33A     -0.585459
      34A     -0.572530    35A     -0.568614    36A     -0.553514
      37A     -0.538059    38A     -0.531132    39A     -0.515088
      40A     -0.506252    41A     -0.489182    42A     -0.480078
      43A     -0.474753    44A     -0.416976    45A     -0.386799
      46A     -0.337217    47A     -0.327696

  @DF-RHF Final Energy:  -553.61033469922313

   => Energetics <=

    Nuclear Repulsion Energy =            796.9291900410073595
    One-Electron Energy =               -2333.5451314066403938
    Two-Electron Energy =                 983.0056066664099035
    Total Energy =                       -553.6103346992231309
  Basis Set: (AUG-CC-PVTZ AUX)
    Blend: AUG-CC-PVTZ-RI
    Molecular point group: c1

    Geometry (in Angstrom), charge = 0, multiplicity = 1:

       Center              X                  Y                   Z               Mass
    ------------   -----------------  -----------------  -----------------  -----------------
         O            0.325243766148     2.351998587780    -1.027181284813    15.994914619570
         N            1.800469766148     1.230272587780     0.301268715187    14.003074004430
         C            1.540888766148    -1.350479412220    -0.790380284813    12.000000000000
         C            2.520387766148    -1.145775412220     0.375869715187    12.000000000000
         C            0.105821766148    -1.102858412220    -0.394505284813    12.000000000000
         C           -0.347206233852     0.210412587780    -0.151669284813    12.000000000000
         C            2.162179766148     0.116354587780     1.164404715187    12.000000000000
         C           -1.685165233852     0.469246587780     0.202754715187    12.000000000000
         C            0.599626766148     1.360960587780    -0.342384284813    12.000000000000
         C           -0.793573233852    -2.164495412220    -0.253392284813    12.000000000000
         C           -2.551447233852    -0.620964412220     0.342984715187    12.000000000000
         C           -2.117284233852    -1.926837412220     0.112742715187    12.000000000000
         C           -2.188437233852     1.871541587780     0.434211715187    12.000000000000
         H            1.642710766148    -2.367210412220    -1.186238284813     1.007825032230
         H            1.814426766148    -0.669438412220    -1.603972284813     1.007825032230
         H            2.490652766148    -2.005126412220     1.057509715187     1.007825032230
         H            3.541806766148    -1.076868412220    -0.017345284813     1.007825032230
         H            1.473310266148    -0.055011212220     1.708256615187     1.007825032230
         H            2.996674766148     0.437089587780     1.795077715187     1.007825032230
         H            2.455237766148     1.987872587780     0.138312715187     1.007825032230
         H           -0.454913233852    -3.181277412220    -0.446327284813     1.007825032230
         H           -3.586728233852    -0.440645412220     0.627049715187     1.007825032230
         H           -2.810853233852    -2.757745412220     0.221496715187     1.007825032230
         H           -1.541326233852     2.422600587780     1.122865715187     1.007825032230
         H           -2.208766233852     2.436365587780    -0.500143284813     1.007825032230
         H           -3.196555233852     1.843323587780     0.857273715187     1.007825032230

  Basis Set: AUG-CC-PVTZ
    Blend: AUG-CC-PVTZ
  Basis Set: (AUG-CC-PVTZ AUX)
    Blend: AUG-CC-PVTZ-JKFIT
	 Reference Energy          =    -553.6103346992231309 [Eh]
	 Singles Energy            =      -0.0000000000000000 [Eh]
	 Same-Spin Energy          =      -0.6038248621131432 [Eh]
	 Opposite-Spin Energy      =      -1.9019552856432440 [Eh]
	 Correlation Energy        =      -2.5057801477563872 [Eh]
	 Total Energy              =    -556.1161148469794853 [Eh]

	 ================> DF-SCS-MP2 Energies <==================
	-----------------------------------------------------------
	 SCS Same-Spin Scale       =       0.3333333333333333 [-]
	 SCS Opposite-Spin Scale   =       1.2000000000000000 [-]
	 SCS Same-Spin Energy      =      -0.2012749540377144 [Eh]
	 SCS Opposite-Spin Energy  =      -2.2823463427718926 [Eh]
	 SCS Correlation Energy    =      -2.4836212968096070 [Eh]
	 SCS Total Energy          =    -556.0939559960327188 [Eh]
	-----------------------------------------------------------

  Dipole Moment: [D]
     X:     1.7124      Y:    -2.5562      Z:     2.2644     Total:     3.8201

*** Psi4 exiting successfully. Buy a developer a beer!
