                               Psi4 1.4a3.dev225

  ==> Input File <==

--------------------------------------------------------------------------
#psi4
#
memory 32 gb

molecule  {
0 1
  O        0.3130990     2.3704440    -1.0483590
  N        1.7883250     1.2487180     0.2800910
  C        1.5287440    -1.3320340    -0.8115580
  C        2.5082430    -1.1273300     0.3546920
  C        0.0936770    -1.0844130    -0.4156830
  C       -0.3593510     0.2288580    -0.1728470
  C        2.1500350     0.1348000     1.1432270
  C       -1.6973100     0.4876920     0.1815770
  C        0.5874820     1.3794060    -0.3635620
  C       -0.8057180    -2.1460500    -0.2745700
  C       -2.5635920    -0.6025190     0.3218070
  C       -2.1294290    -1.9083920     0.0915650
  C       -2.2005820     1.8899870     0.4130340
  H        1.6305660    -2.3487650    -1.2074160
  H        1.8022820    -0.6509930    -1.6251500
  H        2.4785080    -1.9866810     1.0363320
  H        3.5296620    -1.0584230    -0.0385230
  H        1.3841322    -0.0557289     1.7478954
  H        2.9845300     0.4555350     1.7739000
  H        2.4430930     2.0063180     0.1171350
  H       -0.4670580    -3.1628320    -0.4675050
  H       -3.5988730    -0.4222000     0.6058720
  H       -2.8229980    -2.7393000     0.2003190
  H       -1.5534710     2.4410460     1.1016880
  H       -2.2209110     2.4548110    -0.5213210
  H       -3.2087000     1.8617690     0.8360960
units angstrom
no_reorient  #important for SAPT in psi4, default
symmetry c1  #important for SAPT in psi4, default
}

set PROPERTIES_ORIGIN ["COM"]
properties('MP2/aug-cc-pvtz', properties = ['dipole'])
--------------------------------------------------------------------------

    Molecular point group: c1
  Charge       = 0
  Multiplicity = 1
  Basis Set: AUG-CC-PVTZ
    Blend: AUG-CC-PVTZ
  Basis Set: (AUG-CC-PVTZ AUX)
    Blend: AUG-CC-PVTZ-JKFIT

    Orbital Energies [Eh]
    ---------------------

    Doubly Occupied:

       1A    -20.512310     2A    -15.582124     3A    -11.350079
       4A    -11.262988     5A    -11.254426     6A    -11.253620
       7A    -11.244522     8A    -11.242112     9A    -11.238050
      10A    -11.236635    11A    -11.235400    12A    -11.232802
      13A    -11.215950    14A     -1.367278    15A     -1.236009
      16A     -1.163777    17A     -1.084926    18A     -1.044878
      19A     -1.030662    20A     -0.946997    21A     -0.934924
      22A     -0.873738    23A     -0.833579    24A     -0.784799
      25A     -0.772431    26A     -0.696257    27A     -0.686743
      28A     -0.660225    29A     -0.658870    30A     -0.620337
      31A     -0.615694    32A     -0.592000    33A     -0.584635
      34A     -0.570916    35A     -0.567918    36A     -0.553290
      37A     -0.534877    38A     -0.531192    39A     -0.514610
      40A     -0.505946    41A     -0.489010    42A     -0.479737
      43A     -0.474406    44A     -0.417165    45A     -0.386411
      46A     -0.336889    47A     -0.327622

  @DF-RHF Final Energy:  -553.63768675265260

   => Energetics <=

    Nuclear Repulsion Energy =            796.4201885147888333
    One-Electron Energy =               -2332.6362180428086504
    Two-Electron Energy =                 982.5783427753672186
    Total Energy =                       -553.6376867526525984
  Basis Set: (AUG-CC-PVTZ AUX)
    Blend: AUG-CC-PVTZ-RI
    Molecular point group: c1

    Geometry (in Angstrom), charge = 0, multiplicity = 1:

       Center              X                  Y                   Z               Mass
    ------------   -----------------  -----------------  -----------------  -----------------
         O            0.325687148300     2.352108885229    -1.027531327596    15.994914619570
         N            1.800913148300     1.230382885229     0.300918672404    14.003074004430
         C            1.541332148300    -1.350369114771    -0.790730327596    12.000000000000
         C            2.520831148300    -1.145665114771     0.375519672404    12.000000000000
         C            0.106265148300    -1.102748114771    -0.394855327596    12.000000000000
         C           -0.346762851700     0.210522885229    -0.152019327596    12.000000000000
         C            2.162623148300     0.116464885229     1.164054672404    12.000000000000
         C           -1.684721851700     0.469356885229     0.202404672404    12.000000000000
         C            0.600070148300     1.361070885229    -0.342734327596    12.000000000000
         C           -0.793129851700    -2.164385114771    -0.253742327596    12.000000000000
         C           -2.551003851700    -0.620854114771     0.342634672404    12.000000000000
         C           -2.116840851700    -1.926727114771     0.112392672404    12.000000000000
         C           -2.187993851700     1.871651885229     0.433861672404    12.000000000000
         H            1.643154148300    -2.367100114771    -1.186588327596     1.007825032230
         H            1.814870148300    -0.669328114771    -1.604322327596     1.007825032230
         H            2.491096148300    -2.005016114771     1.057159672404     1.007825032230
         H            3.542250148300    -1.076758114771    -0.017695327596     1.007825032230
         H            1.396720348300    -0.074064014771     1.768723072404     1.007825032230
         H            2.997118148300     0.437199885229     1.794727672404     1.007825032230
         H            2.455681148300     1.987982885229     0.137962672404     1.007825032230
         H           -0.454469851700    -3.181167114771    -0.446677327596     1.007825032230
         H           -3.586284851700    -0.440535114771     0.626699672404     1.007825032230
         H           -2.810409851700    -2.757635114771     0.221146672404     1.007825032230
         H           -1.540882851700     2.422710885229     1.122515672404     1.007825032230
         H           -2.208322851700     2.436475885229    -0.500493327596     1.007825032230
         H           -3.196111851700     1.843433885229     0.856923672404     1.007825032230

  Basis Set: AUG-CC-PVTZ
    Blend: AUG-CC-PVTZ
  Basis Set: (AUG-CC-PVTZ AUX)
    Blend: AUG-CC-PVTZ-JKFIT
	 Reference Energy          =    -553.6376867526525984 [Eh]
	 Singles Energy            =      -0.0000000000000000 [Eh]
	 Same-Spin Energy          =      -0.6039641705814529 [Eh]
	 Opposite-Spin Energy      =      -1.9023382080775515 [Eh]
	 Correlation Energy        =      -2.5063023786590044 [Eh]
	 Total Energy              =    -556.1439891313116277 [Eh]

	 ================> DF-SCS-MP2 Energies <==================
	-----------------------------------------------------------
	 SCS Same-Spin Scale       =       0.3333333333333333 [-]
	 SCS Opposite-Spin Scale   =       1.2000000000000000 [-]
	 SCS Same-Spin Energy      =      -0.2013213901938176 [Eh]
	 SCS Opposite-Spin Energy  =      -2.2828058496930619 [Eh]
	 SCS Correlation Energy    =      -2.4841272398868797 [Eh]
	 SCS Total Energy          =    -556.1218139925395008 [Eh]
	-----------------------------------------------------------

  Dipole Moment: [D]
     X:     1.7161      Y:    -2.5496      Z:     2.2419     Total:     3.8041

*** Psi4 exiting successfully. Buy a developer a beer!
