                               Psi4 1.4a3.dev225

  ==> Input File <==

--------------------------------------------------------------------------
#psi4
#
memory 32 gb

molecule  {
0 1
  O        0.3130990     2.3704440    -1.0483590
  N        1.7883250     1.2487180     0.2800910
  C        1.5287440    -1.3320340    -0.8115580
  C        2.5410243    -1.2283911     0.3399661
  C        0.0936770    -1.0844130    -0.4156830
  C       -0.3593510     0.2288580    -0.1728470
  C        2.1500350     0.1348000     1.1432270
  C       -1.6973100     0.4876920     0.1815770
  C        0.5874820     1.3794060    -0.3635620
  C       -0.8057180    -2.1460500    -0.2745700
  C       -2.5635920    -0.6025190     0.3218070
  C       -2.1294290    -1.9083920     0.0915650
  C       -2.2005820     1.8899870     0.4130340
  H        1.6305660    -2.3487650    -1.2074160
  H        1.8022820    -0.6509930    -1.6251500
  H        2.4785080    -1.9866810     1.0363320
  H        3.5296620    -1.0584230    -0.0385230
  H        1.3070990    -0.0748920     1.8087120
  H        2.9845300     0.4555350     1.7739000
  H        2.4430930     2.0063180     0.1171350
  H       -0.4670580    -3.1628320    -0.4675050
  H       -3.5988730    -0.4222000     0.6058720
  H       -2.8229980    -2.7393000     0.2003190
  H       -1.5534710     2.4410460     1.1016880
  H       -2.2209110     2.4548110    -0.5213210
  H       -3.2087000     1.8617690     0.8360960
units angstrom
no_reorient  #important for SAPT in psi4, default
symmetry c1  #important for SAPT in psi4, default
}

set PROPERTIES_ORIGIN ["COM"]
properties('MP2/aug-cc-pvtz', properties = ['dipole'])
--------------------------------------------------------------------------

    Molecular point group: c1
  Charge       = 0
  Multiplicity = 1
  Basis Set: AUG-CC-PVTZ
    Blend: AUG-CC-PVTZ
  Basis Set: (AUG-CC-PVTZ AUX)
    Blend: AUG-CC-PVTZ-JKFIT

    Orbital Energies [Eh]
    ---------------------

    Doubly Occupied:

       1A    -20.512767     2A    -15.584148     3A    -11.350192
       4A    -11.276888     5A    -11.254624     6A    -11.253409
       7A    -11.244408     8A    -11.242161     9A    -11.238070
      10A    -11.235501    11A    -11.235027    12A    -11.232906
      13A    -11.215867    14A     -1.367521    15A     -1.232426
      16A     -1.163672    17A     -1.082332    18A     -1.044502
      19A     -1.023430    20A     -0.939985    21A     -0.931201
      22A     -0.875990    23A     -0.835243    24A     -0.785489
      25A     -0.769936    26A     -0.693146    27A     -0.680680
      28A     -0.661164    29A     -0.658004    30A     -0.618429
      31A     -0.612727    32A     -0.588153    33A     -0.585004
      34A     -0.570299    35A     -0.565636    36A     -0.552940
      37A     -0.541259    38A     -0.532489    39A     -0.515689
      40A     -0.502843    41A     -0.486181    42A     -0.479431
      43A     -0.471394    44A     -0.417599    45A     -0.379505
      46A     -0.336619    47A     -0.327643

  @DF-RHF Final Energy:  -553.63320989143358

   => Energetics <=

    Nuclear Repulsion Energy =            794.3090999574066018
    One-Electron Energy =               -2328.4755592350147708
    Two-Electron Energy =                 980.5332493861747025
    Total Energy =                       -553.6332098914335802
  Basis Set: (AUG-CC-PVTZ AUX)
    Blend: AUG-CC-PVTZ-RI
    Molecular point group: c1

    Geometry (in Angstrom), charge = 0, multiplicity = 1:

       Center              X                  Y                   Z               Mass
    ------------   -----------------  -----------------  -----------------  -----------------
         O            0.323883949394     2.359145140306    -1.026872169991    15.994914619570
         N            1.799109949394     1.237419140306     0.301577830009    14.003074004430
         C            1.539528949394    -1.343332859694    -0.790071169991    12.000000000000
         C            2.551809249394    -1.239689959694     0.361452930009    12.000000000000
         C            0.104461949394    -1.095711859694    -0.394196169991    12.000000000000
         C           -0.348566050606     0.217559140306    -0.151360169991    12.000000000000
         C            2.160819949394     0.123501140306     1.164713830009    12.000000000000
         C           -1.686525050606     0.476393140306     0.203063830009    12.000000000000
         C            0.598266949394     1.368107140306    -0.342075169991    12.000000000000
         C           -0.794933050606    -2.157348859694    -0.253083169991    12.000000000000
         C           -2.552807050606    -0.613817859694     0.343293830009    12.000000000000
         C           -2.118644050606    -1.919690859694     0.113051830009    12.000000000000
         C           -2.189797050606     1.878688140306     0.434520830009    12.000000000000
         H            1.641350949394    -2.360063859694    -1.185929169991     1.007825032230
         H            1.813066949394    -0.662291859694    -1.603663169991     1.007825032230
         H            2.489292949394    -1.997979859694     1.057818830009     1.007825032230
         H            3.540446949394    -1.069721859694    -0.017036169991     1.007825032230
         H            1.317883949394    -0.086190859694     1.830198830009     1.007825032230
         H            2.995314949394     0.444236140306     1.795386830009     1.007825032230
         H            2.453877949394     1.995019140306     0.138621830009     1.007825032230
         H           -0.456273050606    -3.174130859694    -0.446018169991     1.007825032230
         H           -3.588088050606    -0.433498859694     0.627358830009     1.007825032230
         H           -2.812213050606    -2.750598859694     0.221805830009     1.007825032230
         H           -1.542686050606     2.429747140306     1.123174830009     1.007825032230
         H           -2.210126050606     2.443512140306    -0.499834169991     1.007825032230
         H           -3.197915050606     1.850470140306     0.857582830009     1.007825032230

  Basis Set: AUG-CC-PVTZ
    Blend: AUG-CC-PVTZ
  Basis Set: (AUG-CC-PVTZ AUX)
    Blend: AUG-CC-PVTZ-JKFIT
	 Reference Energy          =    -553.6332098914335802 [Eh]
	 Singles Energy            =      -0.0000000000000000 [Eh]
	 Same-Spin Energy          =      -0.6041082850052605 [Eh]
	 Opposite-Spin Energy      =      -1.9034802346934296 [Eh]
	 Correlation Energy        =      -2.5075885196986900 [Eh]
	 Total Energy              =    -556.1407984111323231 [Eh]

	 ================> DF-SCS-MP2 Energies <==================
	-----------------------------------------------------------
	 SCS Same-Spin Scale       =       0.3333333333333333 [-]
	 SCS Opposite-Spin Scale   =       1.2000000000000000 [-]
	 SCS Same-Spin Energy      =      -0.2013694283350868 [Eh]
	 SCS Opposite-Spin Energy  =      -2.2841762816321154 [Eh]
	 SCS Correlation Energy    =      -2.4855457099672020 [Eh]
	 SCS Total Energy          =    -556.1187556014008351 [Eh]
	-----------------------------------------------------------

  Dipole Moment: [D]
     X:     1.7124      Y:    -2.5374      Z:     2.2072     Total:     3.7740

*** Psi4 exiting successfully. Buy a developer a beer!
