                               Psi4 1.4a3.dev225

  ==> Input File <==

--------------------------------------------------------------------------
#psi4
#
memory 32 gb

molecule  {
0 1
  O        0.3130990     2.3704440    -1.0483590
  N        1.7883250     1.2487180     0.2800910
  C        1.5287440    -1.3320340    -0.8115580
  C        2.5082430    -1.1273300     0.3546920
  C        0.0936770    -1.0844130    -0.4156830
  C       -0.3593510     0.2288580    -0.1728470
  C        2.1500350     0.1348000     1.1432270
  C       -1.6973100     0.4876920     0.1815770
  C        0.5874820     1.3794060    -0.3635620
  C       -0.8057180    -2.1460500    -0.2745700
  C       -2.5635920    -0.6025190     0.3218070
  C       -2.1294290    -1.9083920     0.0915650
  C       -2.2005820     1.8899870     0.4130340
  H        1.6305660    -2.3487650    -1.2074160
  H        1.8022820    -0.6509930    -1.6251500
  H        2.4785080    -1.9866810     1.0363320
  H        3.5296620    -1.0584230    -0.0385230
  H        1.3179520    -0.0701265     1.8236865
  H        2.9845300     0.4555350     1.7739000
  H        2.4430930     2.0063180     0.1171350
  H       -0.4670580    -3.1628320    -0.4675050
  H       -3.5988730    -0.4222000     0.6058720
  H       -2.8229980    -2.7393000     0.2003190
  H       -1.5534710     2.4410460     1.1016880
  H       -2.2209110     2.4548110    -0.5213210
  H       -3.2087000     1.8617690     0.8360960
units angstrom
no_reorient  #important for SAPT in psi4, default
symmetry c1  #important for SAPT in psi4, default
}

set PROPERTIES_ORIGIN ["COM"]
properties('MP2/aug-cc-pvtz', properties = ['dipole'])
--------------------------------------------------------------------------

    Molecular point group: c1
  Charge       = 0
  Multiplicity = 1
  Basis Set: AUG-CC-PVTZ
    Blend: AUG-CC-PVTZ
  Basis Set: (AUG-CC-PVTZ AUX)
    Blend: AUG-CC-PVTZ-JKFIT

    Orbital Energies [Eh]
    ---------------------

    Doubly Occupied:

       1A    -20.512750     2A    -15.583181     3A    -11.350332
       4A    -11.274921     5A    -11.254251     6A    -11.253424
       7A    -11.244335     8A    -11.241956     9A    -11.238275
      10A    -11.237533    11A    -11.235219    12A    -11.232639
      13A    -11.215870    14A     -1.367623    15A     -1.235316
      16A     -1.163632    17A     -1.084570    18A     -1.044680
      19A     -1.028701    20A     -0.943139    21A     -0.933271
      22A     -0.873638    23A     -0.830093    24A     -0.784849
      25A     -0.769823    26A     -0.693714    27A     -0.683427
      28A     -0.659791    29A     -0.658922    30A     -0.619742
      31A     -0.615132    32A     -0.591013    33A     -0.583625
      34A     -0.570006    35A     -0.566024    36A     -0.553045
      37A     -0.531471    38A     -0.530253    39A     -0.514135
      40A     -0.505278    41A     -0.488578    42A     -0.479314
      43A     -0.473716    44A     -0.417469    45A     -0.386352
      46A     -0.336396    47A     -0.327463

  @DF-RHF Final Energy:  -553.64323558877356

   => Energetics <=

    Nuclear Repulsion Energy =            795.9184862905245836
    One-Electron Energy =               -2331.6856700813045791
    Two-Electron Energy =                 982.1239482020065452
    Total Energy =                       -553.6432355887735639
  Basis Set: (AUG-CC-PVTZ AUX)
    Blend: AUG-CC-PVTZ-RI
    Molecular point group: c1

    Geometry (in Angstrom), charge = 0, multiplicity = 1:

       Center              X                  Y                   Z               Mass
    ------------   -----------------  -----------------  -----------------  -----------------
         O            0.326068063041     2.352191753792    -1.027967559992    15.994914619570
         N            1.801294063041     1.230465753792     0.300482440008    14.003074004430
         C            1.541713063041    -1.350286246208    -0.791166559992    12.000000000000
         C            2.521212063041    -1.145582246208     0.375083440008    12.000000000000
         C            0.106646063041    -1.102665246208    -0.395291559992    12.000000000000
         C           -0.346381936959     0.210605753792    -0.152455559992    12.000000000000
         C            2.163004063041     0.116547753792     1.163618440008    12.000000000000
         C           -1.684340936959     0.469439753792     0.201968440008    12.000000000000
         C            0.600451063041     1.361153753792    -0.343170559992    12.000000000000
         C           -0.792748936959    -2.164302246208    -0.254178559992    12.000000000000
         C           -2.550622936959    -0.620771246208     0.342198440008    12.000000000000
         C           -2.116459936959    -1.926644246208     0.111956440008    12.000000000000
         C           -2.187612936959     1.871734753792     0.433425440008    12.000000000000
         H            1.643535063041    -2.367017246208    -1.187024559992     1.007825032230
         H            1.815251063041    -0.669245246208    -1.604758559992     1.007825032230
         H            2.491477063041    -2.004933246208     1.056723440008     1.007825032230
         H            3.542631063041    -1.076675246208    -0.018131559992     1.007825032230
         H            1.330921063041    -0.088378746208     1.844077940008     1.007825032230
         H            2.997499063041     0.437282753792     1.794291440008     1.007825032230
         H            2.456062063041     1.988065753792     0.137526440008     1.007825032230
         H           -0.454088936959    -3.181084246208    -0.447113559992     1.007825032230
         H           -3.585903936959    -0.440452246208     0.626263440008     1.007825032230
         H           -2.810028936959    -2.757552246208     0.220710440008     1.007825032230
         H           -1.540501936959     2.422793753792     1.122079440008     1.007825032230
         H           -2.207941936959     2.436558753792    -0.500929559992     1.007825032230
         H           -3.195730936959     1.843516753792     0.856487440008     1.007825032230

  Basis Set: AUG-CC-PVTZ
    Blend: AUG-CC-PVTZ
  Basis Set: (AUG-CC-PVTZ AUX)
    Blend: AUG-CC-PVTZ-JKFIT
	 Reference Energy          =    -553.6432355887735639 [Eh]
	 Singles Energy            =      -0.0000000000000000 [Eh]
	 Same-Spin Energy          =      -0.6041471483814299 [Eh]
	 Opposite-Spin Energy      =      -1.9030305378426875 [Eh]
	 Correlation Energy        =      -2.5071776862241175 [Eh]
	 Total Energy              =    -556.1504132749977316 [Eh]

	 ================> DF-SCS-MP2 Energies <==================
	-----------------------------------------------------------
	 SCS Same-Spin Scale       =       0.3333333333333333 [-]
	 SCS Opposite-Spin Scale   =       1.2000000000000000 [-]
	 SCS Same-Spin Energy      =      -0.2013823827938100 [Eh]
	 SCS Opposite-Spin Energy  =      -2.2836366454112249 [Eh]
	 SCS Correlation Energy    =      -2.4850190282050351 [Eh]
	 SCS Total Energy          =    -556.1282546169785519 [Eh]
	-----------------------------------------------------------

  Dipole Moment: [D]
     X:     1.7320      Y:    -2.5368      Z:     2.2110     Total:     3.7847

*** Psi4 exiting successfully. Buy a developer a beer!
