                               Psi4 1.4a3.dev225

  ==> Input File <==

--------------------------------------------------------------------------
#psi4
#
memory 32 gb

molecule  {
0 1
  O        0.3130990     2.3704440    -1.0483590
  N        1.7883250     1.2487180     0.2800910
  C        1.5287440    -1.3320340    -0.8115580
  C        2.5082430    -1.1273300     0.3546920
  C        0.0936770    -1.0844130    -0.4156830
  C       -0.3593510     0.2288580    -0.1728470
  C        2.1500350     0.1348000     1.1432270
  C       -1.6022913     0.4693102     0.1564066
  C        0.5874820     1.3794060    -0.3635620
  C       -0.8057180    -2.1460500    -0.2745700
  C       -2.5635920    -0.6025190     0.3218070
  C       -2.1294290    -1.9083920     0.0915650
  C       -2.2005820     1.8899870     0.4130340
  H        1.6305660    -2.3487650    -1.2074160
  H        1.8022820    -0.6509930    -1.6251500
  H        2.4785080    -1.9866810     1.0363320
  H        3.5296620    -1.0584230    -0.0385230
  H        1.3070990    -0.0748920     1.8087120
  H        2.9845300     0.4555350     1.7739000
  H        2.4430930     2.0063180     0.1171350
  H       -0.4670580    -3.1628320    -0.4675050
  H       -3.5988730    -0.4222000     0.6058720
  H       -2.8229980    -2.7393000     0.2003190
  H       -1.5534710     2.4410460     1.1016880
  H       -2.2209110     2.4548110    -0.5213210
  H       -3.2087000     1.8617690     0.8360960
units angstrom
no_reorient  #important for SAPT in psi4, default
symmetry c1  #important for SAPT in psi4, default
}

set PROPERTIES_ORIGIN ["COM"]
properties('MP2/aug-cc-pvtz', properties = ['dipole'])
--------------------------------------------------------------------------

    Molecular point group: c1
  Charge       = 0
  Multiplicity = 1
  Basis Set: AUG-CC-PVTZ
    Blend: AUG-CC-PVTZ
  Basis Set: (AUG-CC-PVTZ AUX)
    Blend: AUG-CC-PVTZ-JKFIT

    Orbital Energies [Eh]
    ---------------------

    Doubly Occupied:

       1A    -20.513587     2A    -15.583600     3A    -11.350826
       4A    -11.275725     5A    -11.254079     6A    -11.248855
       7A    -11.242724     8A    -11.238328     9A    -11.237588
      10A    -11.237496    11A    -11.234563    12A    -11.232171
      13A    -11.217477    14A     -1.368575    15A     -1.236272
      16A     -1.169583    17A     -1.082900    18A     -1.049585
      19A     -1.024394    20A     -0.944082    21A     -0.928292
      22A     -0.871084    23A     -0.835164    24A     -0.793490
      25A     -0.766094    26A     -0.696213    27A     -0.683166
      28A     -0.661626    29A     -0.655177    30A     -0.619415
      31A     -0.617148    32A     -0.589454    33A     -0.586425
      34A     -0.571757    35A     -0.562352    36A     -0.550990
      37A     -0.532907    38A     -0.529794    39A     -0.516756
      40A     -0.500071    41A     -0.483262    42A     -0.481366
      43A     -0.473794    44A     -0.415793    45A     -0.386601
      46A     -0.349579    47A     -0.321642

  @DF-RHF Final Energy:  -553.63174943698414

   => Energetics <=

    Nuclear Repulsion Energy =            797.3781490183146161
    One-Electron Energy =               -2334.5761602352531554
    Two-Electron Energy =                 983.5662617799544023
    Total Energy =                       -553.6317494369841370
  Basis Set: (AUG-CC-PVTZ AUX)
    Blend: AUG-CC-PVTZ-RI
    Molecular point group: c1

    Geometry (in Angstrom), charge = 0, multiplicity = 1:

       Center              X                  Y                   Z               Mass
    ------------   -----------------  -----------------  -----------------  -----------------
         O            0.319618672297     2.353478931167    -1.026156383556    15.994914619570
         N            1.794844672297     1.231752931167     0.302293616444    14.003074004430
         C            1.535263672297    -1.348999068833    -0.789355383556    12.000000000000
         C            2.514762672297    -1.144295068833     0.376894616444    12.000000000000
         C            0.100196672297    -1.101378068833    -0.393480383556    12.000000000000
         C           -0.352831327703     0.211892931167    -0.150644383556    12.000000000000
         C            2.156554672297     0.117834931167     1.165429616444    12.000000000000
         C           -1.595771627703     0.452345131167     0.178609216444    12.000000000000
         C            0.594001672297     1.362440931167    -0.341359383556    12.000000000000
         C           -0.799198327703    -2.163015068833    -0.252367383556    12.000000000000
         C           -2.557072327703    -0.619484068833     0.344009616444    12.000000000000
         C           -2.122909327703    -1.925357068833     0.113767616444    12.000000000000
         C           -2.194062327703     1.873021931167     0.435236616444    12.000000000000
         H            1.637085672297    -2.365730068833    -1.185213383556     1.007825032230
         H            1.808801672297    -0.667958068833    -1.602947383556     1.007825032230
         H            2.485027672297    -2.003646068833     1.058534616444     1.007825032230
         H            3.536181672297    -1.075388068833    -0.016320383556     1.007825032230
         H            1.313618672297    -0.091857068833     1.830914616444     1.007825032230
         H            2.991049672297     0.438569931167     1.796102616444     1.007825032230
         H            2.449612672297     1.989352931167     0.139337616444     1.007825032230
         H           -0.460538327703    -3.179797068833    -0.445302383556     1.007825032230
         H           -3.592353327703    -0.439165068833     0.628074616444     1.007825032230
         H           -2.816478327703    -2.756265068833     0.222521616444     1.007825032230
         H           -1.546951327703     2.424080931167     1.123890616444     1.007825032230
         H           -2.214391327703     2.437845931167    -0.499118383556     1.007825032230
         H           -3.202180327703     1.844803931167     0.858298616444     1.007825032230

  Basis Set: AUG-CC-PVTZ
    Blend: AUG-CC-PVTZ
  Basis Set: (AUG-CC-PVTZ AUX)
    Blend: AUG-CC-PVTZ-JKFIT
	 Reference Energy          =    -553.6317494369841370 [Eh]
	 Singles Energy            =      -0.0000000000000000 [Eh]
	 Same-Spin Energy          =      -0.6034131520301944 [Eh]
	 Opposite-Spin Energy      =      -1.9028605281929454 [Eh]
	 Correlation Energy        =      -2.5062736802231398 [Eh]
	 Total Energy              =    -556.1380231172072399 [Eh]

	 ================> DF-SCS-MP2 Energies <==================
	-----------------------------------------------------------
	 SCS Same-Spin Scale       =       0.3333333333333333 [-]
	 SCS Opposite-Spin Scale   =       1.2000000000000000 [-]
	 SCS Same-Spin Energy      =      -0.2011377173433981 [Eh]
	 SCS Opposite-Spin Energy  =      -2.2834326338315343 [Eh]
	 SCS Correlation Energy    =      -2.4845703511749324 [Eh]
	 SCS Total Energy          =    -556.1163197881591032 [Eh]
	-----------------------------------------------------------

  Dipole Moment: [D]
     X:     1.7374      Y:    -2.5910      Z:     2.1997     Total:     3.8171

*** Psi4 exiting successfully. Buy a developer a beer!
