                               Psi4 1.4a3.dev225

  ==> Input File <==

--------------------------------------------------------------------------
#psi4
#
memory 32 gb

molecule  {
0 1
  O        0.3130990     2.3704440    -1.0483590
  N        1.7883250     1.2487180     0.2800910
  C        1.5442438    -1.2279707    -0.8064486
  C        2.5082430    -1.1273300     0.3546920
  C        0.0936770    -1.0844130    -0.4156830
  C       -0.3593510     0.2288580    -0.1728470
  C        2.1500350     0.1348000     1.1432270
  C       -1.6973100     0.4876920     0.1815770
  C        0.5874820     1.3794060    -0.3635620
  C       -0.8057180    -2.1460500    -0.2745700
  C       -2.5635920    -0.6025190     0.3218070
  C       -2.1294290    -1.9083920     0.0915650
  C       -2.2005820     1.8899870     0.4130340
  H        1.6305660    -2.3487650    -1.2074160
  H        1.8022820    -0.6509930    -1.6251500
  H        2.4785080    -1.9866810     1.0363320
  H        3.5296620    -1.0584230    -0.0385230
  H        1.3070990    -0.0748920     1.8087120
  H        2.9845300     0.4555350     1.7739000
  H        2.4430930     2.0063180     0.1171350
  H       -0.4670580    -3.1628320    -0.4675050
  H       -3.5988730    -0.4222000     0.6058720
  H       -2.8229980    -2.7393000     0.2003190
  H       -1.5534710     2.4410460     1.1016880
  H       -2.2209110     2.4548110    -0.5213210
  H       -3.2087000     1.8617690     0.8360960
units angstrom
no_reorient  #important for SAPT in psi4, default
symmetry c1  #important for SAPT in psi4, default
}

set PROPERTIES_ORIGIN ["COM"]
properties('MP2/aug-cc-pvtz', properties = ['dipole'])
--------------------------------------------------------------------------

    Molecular point group: c1
  Charge       = 0
  Multiplicity = 1
  Basis Set: AUG-CC-PVTZ
    Blend: AUG-CC-PVTZ
  Basis Set: (AUG-CC-PVTZ AUX)
    Blend: AUG-CC-PVTZ-JKFIT

    Orbital Energies [Eh]
    ---------------------

    Doubly Occupied:

       1A    -20.513367     2A    -15.583504     3A    -11.350839
       4A    -11.273745     5A    -11.254690     6A    -11.252998
       7A    -11.245136     8A    -11.241071     9A    -11.240344
      10A    -11.237421    11A    -11.237205    12A    -11.233345
      13A    -11.215784    14A     -1.368301    15A     -1.236836
      16A     -1.164053    17A     -1.087047    18A     -1.045685
      19A     -1.030378    20A     -0.940834    21A     -0.934649
      22A     -0.873641    23A     -0.833137    24A     -0.785721
      25A     -0.768445    26A     -0.694998    27A     -0.681971
      28A     -0.666178    29A     -0.658925    30A     -0.620278
      31A     -0.614990    32A     -0.592371    33A     -0.585773
      34A     -0.569276    35A     -0.566622    36A     -0.550064
      37A     -0.539645    38A     -0.528074    39A     -0.515894
      40A     -0.505012    41A     -0.485855    42A     -0.476663
      43A     -0.465069    44A     -0.418268    45A     -0.386581
      46A     -0.337251    47A     -0.328484

  @DF-RHF Final Energy:  -553.63013584928694

   => Energetics <=

    Nuclear Repulsion Energy =            797.0888175126434589
    One-Electron Energy =               -2333.9650692638897453
    Two-Electron Energy =                 983.2461159019594561
    Total Energy =                       -553.6301358492869440
  Basis Set: (AUG-CC-PVTZ AUX)
    Blend: AUG-CC-PVTZ-RI
    Molecular point group: c1

    Geometry (in Angstrom), charge = 0, multiplicity = 1:

       Center              X                  Y                   Z               Mass
    ------------   -----------------  -----------------  -----------------  -----------------
         O            0.325068291705     2.345087477143    -1.028231530292    15.994914619570
         N            1.800294291705     1.223361477143     0.300218469708    14.003074004430
         C            1.556213091705    -1.253327222857    -0.786321130292    12.000000000000
         C            2.520212291705    -1.152686522857     0.374819469708    12.000000000000
         C            0.105646291705    -1.109769522857    -0.395555530292    12.000000000000
         C           -0.347381708295     0.203501477143    -0.152719530292    12.000000000000
         C            2.162004291705     0.109443477143     1.163354469708    12.000000000000
         C           -1.685340708295     0.462335477143     0.201704469708    12.000000000000
         C            0.599451291705     1.354049477143    -0.343434530292    12.000000000000
         C           -0.793748708295    -2.171406522857    -0.254442530292    12.000000000000
         C           -2.551622708295    -0.627875522857     0.341934469708    12.000000000000
         C           -2.117459708295    -1.933748522857     0.111692469708    12.000000000000
         C           -2.188612708295     1.864630477143     0.433161469708    12.000000000000
         H            1.642535291705    -2.374121522857    -1.187288530292     1.007825032230
         H            1.814251291705    -0.676349522857    -1.605022530292     1.007825032230
         H            2.490477291705    -2.012037522857     1.056459469708     1.007825032230
         H            3.541631291705    -1.083779522857    -0.018395530292     1.007825032230
         H            1.319068291705    -0.100248522857     1.828839469708     1.007825032230
         H            2.996499291705     0.430178477143     1.794027469708     1.007825032230
         H            2.455062291705     1.980961477143     0.137262469708     1.007825032230
         H           -0.455088708295    -3.188188522857    -0.447377530292     1.007825032230
         H           -3.586903708295    -0.447556522857     0.625999469708     1.007825032230
         H           -2.811028708295    -2.764656522857     0.220446469708     1.007825032230
         H           -1.541501708295     2.415689477143     1.121815469708     1.007825032230
         H           -2.208941708295     2.429454477143    -0.501193530292     1.007825032230
         H           -3.196730708295     1.836412477143     0.856223469708     1.007825032230

  Basis Set: AUG-CC-PVTZ
    Blend: AUG-CC-PVTZ
  Basis Set: (AUG-CC-PVTZ AUX)
    Blend: AUG-CC-PVTZ-JKFIT
	 Reference Energy          =    -553.6301358492869440 [Eh]
	 Singles Energy            =      -0.0000000000000000 [Eh]
	 Same-Spin Energy          =      -0.6048859071857005 [Eh]
	 Opposite-Spin Energy      =      -1.9043334460426515 [Eh]
	 Correlation Energy        =      -2.5092193532283522 [Eh]
	 Total Energy              =    -556.1393552025152758 [Eh]

	 ================> DF-SCS-MP2 Energies <==================
	-----------------------------------------------------------
	 SCS Same-Spin Scale       =       0.3333333333333333 [-]
	 SCS Opposite-Spin Scale   =       1.2000000000000000 [-]
	 SCS Same-Spin Energy      =      -0.2016286357285668 [Eh]
	 SCS Opposite-Spin Energy  =      -2.2852001352511819 [Eh]
	 SCS Correlation Energy    =      -2.4868287709797485 [Eh]
	 SCS Total Energy          =    -556.1169646202666854 [Eh]
	-----------------------------------------------------------

  Dipole Moment: [D]
     X:     1.7045      Y:    -2.4747      Z:     2.2259     Total:     3.7395

*** Psi4 exiting successfully. Buy a developer a beer!
