                               Psi4 1.4a3.dev225

  ==> Input File <==

--------------------------------------------------------------------------
#psi4
#
memory 32 gb

molecule  {
0 1
  O        0.3130990     2.3704440    -1.0483590
  N        1.7883250     1.2487180     0.2800910
  C        1.5287440    -1.3320340    -0.8115580
  C        2.5082430    -1.1273300     0.3546920
  C        0.1412234    -1.0926171    -0.4287991
  C       -0.3593510     0.2288580    -0.1728470
  C        2.1500350     0.1348000     1.1432270
  C       -1.6973100     0.4876920     0.1815770
  C        0.5874820     1.3794060    -0.3635620
  C       -0.8057180    -2.1460500    -0.2745700
  C       -2.5635920    -0.6025190     0.3218070
  C       -2.1294290    -1.9083920     0.0915650
  C       -2.2005820     1.8899870     0.4130340
  H        1.6305660    -2.3487650    -1.2074160
  H        1.8022820    -0.6509930    -1.6251500
  H        2.4785080    -1.9866810     1.0363320
  H        3.5296620    -1.0584230    -0.0385230
  H        1.3070990    -0.0748920     1.8087120
  H        2.9845300     0.4555350     1.7739000
  H        2.4430930     2.0063180     0.1171350
  H       -0.4670580    -3.1628320    -0.4675050
  H       -3.5988730    -0.4222000     0.6058720
  H       -2.8229980    -2.7393000     0.2003190
  H       -1.5534710     2.4410460     1.1016880
  H       -2.2209110     2.4548110    -0.5213210
  H       -3.2087000     1.8617690     0.8360960
units angstrom
no_reorient  #important for SAPT in psi4, default
symmetry c1  #important for SAPT in psi4, default
}

set PROPERTIES_ORIGIN ["COM"]
properties('MP2/aug-cc-pvtz', properties = ['dipole'])
--------------------------------------------------------------------------

    Molecular point group: c1
  Charge       = 0
  Multiplicity = 1
  Basis Set: AUG-CC-PVTZ
    Blend: AUG-CC-PVTZ
  Basis Set: (AUG-CC-PVTZ AUX)
    Blend: AUG-CC-PVTZ-JKFIT

    Orbital Energies [Eh]
    ---------------------

    Doubly Occupied:

       1A    -20.511904     2A    -15.582929     3A    -11.349044
       4A    -11.275266     5A    -11.258109     6A    -11.253431
       7A    -11.244495     8A    -11.244352     9A    -11.238825
      10A    -11.238214    11A    -11.236771    12A    -11.233131
      13A    -11.215972    14A     -1.366935    15A     -1.235479
      16A     -1.160599    17A     -1.090590    18A     -1.043061
      19A     -1.027784    20A     -0.944763    21A     -0.932160
      22A     -0.874624    23A     -0.831687    24A     -0.784637
      25A     -0.766462    26A     -0.693520    27A     -0.683989
      28A     -0.661254    29A     -0.658509    30A     -0.620119
      31A     -0.615886    32A     -0.591062    33A     -0.585070
      34A     -0.570726    35A     -0.564860    36A     -0.554089
      37A     -0.533044    38A     -0.529412    39A     -0.514892
      40A     -0.505965    41A     -0.486291    42A     -0.481384
      43A     -0.475881    44A     -0.415361    45A     -0.386082
      46A     -0.334498    47A     -0.324346

  @DF-RHF Final Energy:  -553.63837400064335

   => Energetics <=

    Nuclear Repulsion Energy =            795.7485585236732959
    One-Electron Energy =               -2331.3189383450867354
    Two-Electron Energy =                 981.9320058207702004
    Total Energy =                       -553.6383740006433527
  Basis Set: (AUG-CC-PVTZ AUX)
    Blend: AUG-CC-PVTZ-RI
    Molecular point group: c1

    Geometry (in Angstrom), charge = 0, multiplicity = 1:

       Center              X                  Y                   Z               Mass
    ------------   -----------------  -----------------  -----------------  -----------------
         O            0.322872061962     2.352781429171    -1.026982493415    15.994914619570
         N            1.798098061962     1.231055429171     0.301467506585    14.003074004430
         C            1.538517061962    -1.349696570829    -0.790181493415    12.000000000000
         C            2.518016061962    -1.144992570829     0.376068506585    12.000000000000
         C            0.150996461962    -1.110279670829    -0.407422593415    12.000000000000
         C           -0.349577938038     0.211195429171    -0.151470493415    12.000000000000
         C            2.159808061962     0.117137429171     1.164603506585    12.000000000000
         C           -1.687536938038     0.470029429171     0.202953506585    12.000000000000
         C            0.597255061962     1.361743429171    -0.342185493415    12.000000000000
         C           -0.795944938038    -2.163712570829    -0.253193493415    12.000000000000
         C           -2.553818938038    -0.620181570829     0.343183506585    12.000000000000
         C           -2.119655938038    -1.926054570829     0.112941506585    12.000000000000
         C           -2.190808938038     1.872324429171     0.434410506585    12.000000000000
         H            1.640339061962    -2.366427570829    -1.186039493415     1.007825032230
         H            1.812055061962    -0.668655570829    -1.603773493415     1.007825032230
         H            2.488281061962    -2.004343570829     1.057708506585     1.007825032230
         H            3.539435061962    -1.076085570829    -0.017146493415     1.007825032230
         H            1.316872061962    -0.092554570829     1.830088506585     1.007825032230
         H            2.994303061962     0.437872429171     1.795276506585     1.007825032230
         H            2.452866061962     1.988655429171     0.138511506585     1.007825032230
         H           -0.457284938038    -3.180494570829    -0.446128493415     1.007825032230
         H           -3.589099938038    -0.439862570829     0.627248506585     1.007825032230
         H           -2.813224938038    -2.756962570829     0.221695506585     1.007825032230
         H           -1.543697938038     2.423383429171     1.123064506585     1.007825032230
         H           -2.211137938038     2.437148429171    -0.499944493415     1.007825032230
         H           -3.198926938038     1.844106429171     0.857472506585     1.007825032230

  Basis Set: AUG-CC-PVTZ
    Blend: AUG-CC-PVTZ
  Basis Set: (AUG-CC-PVTZ AUX)
    Blend: AUG-CC-PVTZ-JKFIT
	 Reference Energy          =    -553.6383740006433527 [Eh]
	 Singles Energy            =      -0.0000000000000000 [Eh]
	 Same-Spin Energy          =      -0.6049659544352521 [Eh]
	 Opposite-Spin Energy      =      -1.9041856920067013 [Eh]
	 Correlation Energy        =      -2.5091516464419534 [Eh]
	 Total Energy              =    -556.1475256470853310 [Eh]

	 ================> DF-SCS-MP2 Energies <==================
	-----------------------------------------------------------
	 SCS Same-Spin Scale       =       0.3333333333333333 [-]
	 SCS Opposite-Spin Scale   =       1.2000000000000000 [-]
	 SCS Same-Spin Energy      =      -0.2016553181450840 [Eh]
	 SCS Opposite-Spin Energy  =      -2.2850228304080415 [Eh]
	 SCS Correlation Energy    =      -2.4866781485531257 [Eh]
	 SCS Total Energy          =    -556.1250521491964491 [Eh]
	-----------------------------------------------------------

  Dipole Moment: [D]
     X:     1.7660      Y:    -2.5471      Z:     2.2010     Total:     3.8014

*** Psi4 exiting successfully. Buy a developer a beer!
