                               Psi4 1.4a3.dev225

  ==> Input File <==

--------------------------------------------------------------------------
#psi4
#
memory 32 gb

molecule  {
0 1
  O        0.3130990     2.3704440    -1.0483590
  N        1.7883250     1.2487180     0.2800910
  C        1.5287440    -1.3320340    -0.8115580
  C        2.5082430    -1.1273300     0.3546920
  C        0.0936770    -1.0844130    -0.4156830
  C       -0.3593510     0.2288580    -0.1728470
  C        2.1500350     0.1348000     1.1432270
  C       -1.6973100     0.4876920     0.1815770
  C        0.4997472     1.3889542    -0.4105879
  C       -0.8057180    -2.1460500    -0.2745700
  C       -2.5635920    -0.6025190     0.3218070
  C       -2.1294290    -1.9083920     0.0915650
  C       -2.2005820     1.8899870     0.4130340
  H        1.6305660    -2.3487650    -1.2074160
  H        1.8022820    -0.6509930    -1.6251500
  H        2.4785080    -1.9866810     1.0363320
  H        3.5296620    -1.0584230    -0.0385230
  H        1.3070990    -0.0748920     1.8087120
  H        2.9845300     0.4555350     1.7739000
  H        2.4430930     2.0063180     0.1171350
  H       -0.4670580    -3.1628320    -0.4675050
  H       -3.5988730    -0.4222000     0.6058720
  H       -2.8229980    -2.7393000     0.2003190
  H       -1.5534710     2.4410460     1.1016880
  H       -2.2209110     2.4548110    -0.5213210
  H       -3.2087000     1.8617690     0.8360960
units angstrom
no_reorient  #important for SAPT in psi4, default
symmetry c1  #important for SAPT in psi4, default
}

set PROPERTIES_ORIGIN ["COM"]
properties('MP2/aug-cc-pvtz', properties = ['dipole'])
--------------------------------------------------------------------------

    Molecular point group: c1
  Charge       = 0
  Multiplicity = 1
  Basis Set: AUG-CC-PVTZ
    Blend: AUG-CC-PVTZ
  Basis Set: (AUG-CC-PVTZ AUX)
    Blend: AUG-CC-PVTZ-JKFIT

    Orbital Energies [Eh]
    ---------------------

    Doubly Occupied:

       1A    -20.529431     2A    -15.562513     3A    -11.353255
       4A    -11.263632     5A    -11.258530     6A    -11.256946
       7A    -11.247964     8A    -11.241880     9A    -11.237433
      10A    -11.235860    11A    -11.234785    12A    -11.230925
      13A    -11.220578    14A     -1.403729    15A     -1.209544
      16A     -1.164232    17A     -1.080998    18A     -1.049596
      19A     -1.025627    20A     -0.943843    21A     -0.926605
      22A     -0.875184    23A     -0.824540    24A     -0.781779
      25A     -0.764075    26A     -0.691213    27A     -0.677802
      28A     -0.663548    29A     -0.657377    30A     -0.623902
      31A     -0.611229    32A     -0.593356    33A     -0.587169
      34A     -0.575444    35A     -0.567543    36A     -0.556354
      37A     -0.535487    38A     -0.528330    39A     -0.516915
      40A     -0.508614    41A     -0.486501    42A     -0.480737
      43A     -0.474254    44A     -0.421433    45A     -0.374915
      46A     -0.340970    47A     -0.329750

  @DF-RHF Final Energy:  -553.63345570320780

   => Energetics <=

    Nuclear Repulsion Energy =            796.0732224812679760
    One-Electron Energy =               -2331.9607102765062336
    Two-Electron Energy =                 982.2540320920304566
    Total Energy =                       -553.6334557032078010
  Basis Set: (AUG-CC-PVTZ AUX)
    Blend: AUG-CC-PVTZ-RI
    Molecular point group: c1

    Geometry (in Angstrom), charge = 0, multiplicity = 1:

       Center              X                  Y                   Z               Mass
    ------------   -----------------  -----------------  -----------------  -----------------
         O            0.332143204459     2.351564821816    -1.024658574143    15.994914619570
         N            1.807369204459     1.229838821816     0.303791425857    14.003074004430
         C            1.547788204459    -1.350913178184    -0.787857574143    12.000000000000
         C            2.527287204459    -1.146209178184     0.378392425857    12.000000000000
         C            0.112721204459    -1.103292178184    -0.391982574143    12.000000000000
         C           -0.340306795541     0.209978821816    -0.149146574143    12.000000000000
         C            2.169079204459     0.115920821816     1.166927425857    12.000000000000
         C           -1.678265795541     0.468812821816     0.205277425857    12.000000000000
         C            0.518791404459     1.370075021816    -0.386887474143    12.000000000000
         C           -0.786673795541    -2.164929178184    -0.250869574143    12.000000000000
         C           -2.544547795541    -0.621398178184     0.345507425857    12.000000000000
         C           -2.110384795541    -1.927271178184     0.115265425857    12.000000000000
         C           -2.181537795541     1.871107821816     0.436734425857    12.000000000000
         H            1.649610204459    -2.367644178184    -1.183715574143     1.007825032230
         H            1.821326204459    -0.669872178184    -1.601449574143     1.007825032230
         H            2.497552204459    -2.005560178184     1.060032425857     1.007825032230
         H            3.548706204459    -1.077302178184    -0.014822574143     1.007825032230
         H            1.326143204459    -0.093771178184     1.832412425857     1.007825032230
         H            3.003574204459     0.436655821816     1.797600425857     1.007825032230
         H            2.462137204459     1.987438821816     0.140835425857     1.007825032230
         H           -0.448013795541    -3.181711178184    -0.443804574143     1.007825032230
         H           -3.579828795541    -0.441079178184     0.629572425857     1.007825032230
         H           -2.803953795541    -2.758179178184     0.224019425857     1.007825032230
         H           -1.534426795541     2.422166821816     1.125388425857     1.007825032230
         H           -2.201866795541     2.435931821816    -0.497620574143     1.007825032230
         H           -3.189655795541     1.842889821816     0.859796425857     1.007825032230

  Basis Set: AUG-CC-PVTZ
    Blend: AUG-CC-PVTZ
  Basis Set: (AUG-CC-PVTZ AUX)
    Blend: AUG-CC-PVTZ-JKFIT
	 Reference Energy          =    -553.6334557032078010 [Eh]
	 Singles Energy            =      -0.0000000000000000 [Eh]
	 Same-Spin Energy          =      -0.6039169864126404 [Eh]
	 Opposite-Spin Energy      =      -1.9026774246081140 [Eh]
	 Correlation Energy        =      -2.5065944110207541 [Eh]
	 Total Energy              =    -556.1400501142285293 [Eh]

	 ================> DF-SCS-MP2 Energies <==================
	-----------------------------------------------------------
	 SCS Same-Spin Scale       =       0.3333333333333333 [-]
	 SCS Opposite-Spin Scale   =       1.2000000000000000 [-]
	 SCS Same-Spin Energy      =      -0.2013056621375468 [Eh]
	 SCS Opposite-Spin Energy  =      -2.2832129095297367 [Eh]
	 SCS Correlation Energy    =      -2.4845185716672833 [Eh]
	 SCS Total Energy          =    -556.1179742748751096 [Eh]
	-----------------------------------------------------------

  Dipole Moment: [D]
     X:     0.9362      Y:    -2.3604      Z:     1.7564     Total:     3.0875

*** Psi4 exiting successfully. Buy a developer a beer!
