                               Psi4 1.4a3.dev225

  ==> Input File <==

--------------------------------------------------------------------------
#psi4
#
memory 32 gb

molecule  {
0 1
  O        0.3130990     2.3704440    -1.0483590
  N        1.7883250     1.2487180     0.2800910
  C        1.5287440    -1.3320340    -0.8115580
  C        2.5082430    -1.1273300     0.3546920
  C        0.0936770    -1.0844130    -0.4156830
  C       -0.3593510     0.2288580    -0.1728470
  C        2.1453547     0.1512908     1.1535299
  C       -1.6973100     0.4876920     0.1815770
  C        0.5874820     1.3794060    -0.3635620
  C       -0.8057180    -2.1460500    -0.2745700
  C       -2.5635920    -0.6025190     0.3218070
  C       -2.1294290    -1.9083920     0.0915650
  C       -2.2005820     1.8899870     0.4130340
  H        1.6305660    -2.3487650    -1.2074160
  H        1.8022820    -0.6509930    -1.6251500
  H        2.4785080    -1.9866810     1.0363320
  H        3.5296620    -1.0584230    -0.0385230
  H        1.3070990    -0.0748920     1.8087120
  H        2.9845300     0.4555350     1.7739000
  H        2.4430930     2.0063180     0.1171350
  H       -0.4670580    -3.1628320    -0.4675050
  H       -3.5988730    -0.4222000     0.6058720
  H       -2.8229980    -2.7393000     0.2003190
  H       -1.5534710     2.4410460     1.1016880
  H       -2.2209110     2.4548110    -0.5213210
  H       -3.2087000     1.8617690     0.8360960
units angstrom
no_reorient  #important for SAPT in psi4, default
symmetry c1  #important for SAPT in psi4, default
}

set PROPERTIES_ORIGIN ["COM"]
properties('MP2/aug-cc-pvtz', properties = ['dipole'])
--------------------------------------------------------------------------

    Molecular point group: c1
  Charge       = 0
  Multiplicity = 1
  Basis Set: AUG-CC-PVTZ
    Blend: AUG-CC-PVTZ
  Basis Set: (AUG-CC-PVTZ AUX)
    Blend: AUG-CC-PVTZ-JKFIT

    Orbital Energies [Eh]
    ---------------------

    Doubly Occupied:

       1A    -20.513051     2A    -15.583363     3A    -11.350729
       4A    -11.274132     5A    -11.254294     6A    -11.253562
       7A    -11.244437     8A    -11.242023     9A    -11.238064
      10A    -11.237467    11A    -11.235215    12A    -11.232681
      13A    -11.215994    14A     -1.368020    15A     -1.236757
      16A     -1.163792    17A     -1.083349    18A     -1.044625
      19A     -1.027170    20A     -0.942952    21A     -0.933632
      22A     -0.873888    23A     -0.830268    24A     -0.784801
      25A     -0.770259    26A     -0.694420    27A     -0.683675
      28A     -0.660423    29A     -0.659236    30A     -0.618214
      31A     -0.614913    32A     -0.591043    33A     -0.584042
      34A     -0.570333    35A     -0.566528    36A     -0.553246
      37A     -0.532177    38A     -0.531222    39A     -0.512668
      40A     -0.505534    41A     -0.488409    42A     -0.479308
      43A     -0.473805    44A     -0.417843    45A     -0.384837
      46A     -0.336521    47A     -0.327488

  @DF-RHF Final Energy:  -553.64309248410132

   => Energetics <=

    Nuclear Repulsion Energy =            795.8566878036491516
    One-Electron Energy =               -2331.5587394483718526
    Two-Electron Energy =                 982.0589591606214981
    Total Energy =                       -553.6430924841013166
  Basis Set: (AUG-CC-PVTZ AUX)
    Blend: AUG-CC-PVTZ-RI
    Molecular point group: c1

    Geometry (in Angstrom), charge = 0, multiplicity = 1:

       Center              X                  Y                   Z               Mass
    ------------   -----------------  -----------------  -----------------  -----------------
         O            0.326451281971     2.351089028920    -1.028587453203    15.994914619570
         N            1.801677281971     1.229363028920     0.299862546797    14.003074004430
         C            1.542096281971    -1.351388971080    -0.791786453203    12.000000000000
         C            2.521595281971    -1.146684971080     0.374463546797    12.000000000000
         C            0.107029281971    -1.103767971080    -0.395911453203    12.000000000000
         C           -0.345998718029     0.209503028920    -0.153075453203    12.000000000000
         C            2.158706981971     0.131935828920     1.173301446797    12.000000000000
         C           -1.683957718029     0.468337028920     0.201348546797    12.000000000000
         C            0.600834281971     1.360051028920    -0.343790453203    12.000000000000
         C           -0.792365718029    -2.165404971080    -0.254798453203    12.000000000000
         C           -2.550239718029    -0.621873971080     0.341578546797    12.000000000000
         C           -2.116076718029    -1.927746971080     0.111336546797    12.000000000000
         C           -2.187229718029     1.870632028920     0.432805546797    12.000000000000
         H            1.643918281971    -2.368119971080    -1.187644453203     1.007825032230
         H            1.815634281971    -0.670347971080    -1.605378453203     1.007825032230
         H            2.491860281971    -2.006035971080     1.056103546797     1.007825032230
         H            3.543014281971    -1.077777971080    -0.018751453203     1.007825032230
         H            1.320451281971    -0.094246971080     1.828483546797     1.007825032230
         H            2.997882281971     0.436180028920     1.793671546797     1.007825032230
         H            2.456445281971     1.986963028920     0.136906546797     1.007825032230
         H           -0.453705718029    -3.182186971080    -0.447733453203     1.007825032230
         H           -3.585520718029    -0.441554971080     0.625643546797     1.007825032230
         H           -2.809645718029    -2.758654971080     0.220090546797     1.007825032230
         H           -1.540118718029     2.421691028920     1.121459546797     1.007825032230
         H           -2.207558718029     2.435456028920    -0.501549453203     1.007825032230
         H           -3.195347718029     1.842414028920     0.855867546797     1.007825032230

  Basis Set: AUG-CC-PVTZ
    Blend: AUG-CC-PVTZ
  Basis Set: (AUG-CC-PVTZ AUX)
    Blend: AUG-CC-PVTZ-JKFIT
	 Reference Energy          =    -553.6430924841013166 [Eh]
	 Singles Energy            =      -0.0000000000000000 [Eh]
	 Same-Spin Energy          =      -0.6041011719957774 [Eh]
	 Opposite-Spin Energy      =      -1.9029732068051506 [Eh]
	 Correlation Energy        =      -2.5070743788009278 [Eh]
	 Total Energy              =    -556.1501668629022106 [Eh]

	 ================> DF-SCS-MP2 Energies <==================
	-----------------------------------------------------------
	 SCS Same-Spin Scale       =       0.3333333333333333 [-]
	 SCS Opposite-Spin Scale   =       1.2000000000000000 [-]
	 SCS Same-Spin Energy      =      -0.2013670573319258 [Eh]
	 SCS Opposite-Spin Energy  =      -2.2835678481661805 [Eh]
	 SCS Correlation Energy    =      -2.4849349054981063 [Eh]
	 SCS Total Energy          =    -556.1280273895994242 [Eh]
	-----------------------------------------------------------

  Dipole Moment: [D]
     X:     1.7162      Y:    -2.5084      Z:     2.2097     Total:     3.7577

*** Psi4 exiting successfully. Buy a developer a beer!
