                               Psi4 1.4a3.dev225

  ==> Input File <==

--------------------------------------------------------------------------
#psi4
#
memory 32 gb

molecule  {
0 1
  O        0.3130990     2.3704440    -1.0483590
  N        1.7883250     1.2487180     0.2800910
  C        1.5287440    -1.3320340    -0.8115580
  C        2.5082430    -1.1273300     0.3546920
  C        0.0936770    -1.0844130    -0.4156830
  C       -0.3593510     0.2288580    -0.1728470
  C        2.1500350     0.1348000     1.1432270
  C       -1.6973100     0.4876920     0.1815770
  C        0.5874820     1.3794060    -0.3635620
  C       -0.8057180    -2.1460500    -0.2745700
  C       -2.5635920    -0.6025190     0.3218070
  C       -2.1294290    -1.9083920     0.0915650
  C       -2.2005820     1.8899870     0.4130340
  H        1.6305660    -2.3487650    -1.2074160
  H        1.8022820    -0.6509930    -1.6251500
  H        2.4785080    -1.9866810     1.0363320
  H        3.5296620    -1.0584230    -0.0385230
  H        1.3070990    -0.0748920     1.8087120
  H        2.9845300     0.4555350     1.7739000
  H        2.4430930     2.0063180     0.1171350
  H       -0.4670580    -3.1628320    -0.4675050
  H       -3.6464247    -0.4139177     0.6189195
  H       -2.8229980    -2.7393000     0.2003190
  H       -1.5534710     2.4410460     1.1016880
  H       -2.2209110     2.4548110    -0.5213210
  H       -3.2087000     1.8617690     0.8360960
units angstrom
no_reorient  #important for SAPT in psi4, default
symmetry c1  #important for SAPT in psi4, default
}

set PROPERTIES_ORIGIN ["COM"]
properties('MP2/aug-cc-pvtz', properties = ['dipole'])
--------------------------------------------------------------------------

    Molecular point group: c1
  Charge       = 0
  Multiplicity = 1
  Basis Set: AUG-CC-PVTZ
    Blend: AUG-CC-PVTZ
  Basis Set: (AUG-CC-PVTZ AUX)
    Blend: AUG-CC-PVTZ-JKFIT

    Orbital Energies [Eh]
    ---------------------

    Doubly Occupied:

       1A    -20.512862     2A    -15.583216     3A    -11.350542
       4A    -11.275035     5A    -11.254530     6A    -11.254023
       7A    -11.244936     8A    -11.242411     9A    -11.238447
      10A    -11.238420    11A    -11.237538    12A    -11.235653
      13A    -11.215827    14A     -1.367756    15A     -1.235522
      16A     -1.163802    17A     -1.084473    18A     -1.045020
      19A     -1.028166    20A     -0.943252    21A     -0.932272
      22A     -0.873496    23A     -0.829819    24A     -0.783333
      25A     -0.769874    26A     -0.691185    27A     -0.682429
      28A     -0.659829    29A     -0.659120    30A     -0.619121
      31A     -0.615232    32A     -0.590997    33A     -0.582417
      34A     -0.570213    35A     -0.564311    36A     -0.552721
      37A     -0.531641    38A     -0.528264    39A     -0.513693
      40A     -0.505581    41A     -0.488983    42A     -0.479560
      43A     -0.473089    44A     -0.417623    45A     -0.386187
      46A     -0.336751    47A     -0.327813

  @DF-RHF Final Energy:  -553.64071329839589

   => Energetics <=

    Nuclear Repulsion Energy =            795.7076518903668330
    One-Electron Energy =               -2331.2627564267409070
    Two-Electron Energy =                 981.9143912379781796
    Total Energy =                       -553.6407132983958945
  Basis Set: (AUG-CC-PVTZ AUX)
    Blend: AUG-CC-PVTZ-RI
    Molecular point group: c1

    Geometry (in Angstrom), charge = 0, multiplicity = 1:

       Center              X                  Y                   Z               Mass
    ------------   -----------------  -----------------  -----------------  -----------------
         O            0.326404224176     2.352171512074    -1.027956468718    15.994914619570
         N            1.801630224176     1.230445512074     0.300493531282    14.003074004430
         C            1.542049224176    -1.350306487926    -0.791155468718    12.000000000000
         C            2.521548224176    -1.145602487926     0.375094531282    12.000000000000
         C            0.106982224176    -1.102685487926    -0.395280468718    12.000000000000
         C           -0.346045775824     0.210585512074    -0.152444468718    12.000000000000
         C            2.163340224176     0.116527512074     1.163629531282    12.000000000000
         C           -1.684004775824     0.469419512074     0.201979531282    12.000000000000
         C            0.600787224176     1.361133512074    -0.343159468718    12.000000000000
         C           -0.792412775824    -2.164322487926    -0.254167468718    12.000000000000
         C           -2.550286775824    -0.620791487926     0.342209531282    12.000000000000
         C           -2.116123775824    -1.926664487926     0.111967531282    12.000000000000
         C           -2.187276775824     1.871714512074     0.433436531282    12.000000000000
         H            1.643871224176    -2.367037487926    -1.187013468718     1.007825032230
         H            1.815587224176    -0.669265487926    -1.604747468718     1.007825032230
         H            2.491813224176    -2.004953487926     1.056734531282     1.007825032230
         H            3.542967224176    -1.076695487926    -0.018120468718     1.007825032230
         H            1.320404224176    -0.093164487926     1.829114531282     1.007825032230
         H            2.997835224176     0.437262512074     1.794302531282     1.007825032230
         H            2.456398224176     1.988045512074     0.137537531282     1.007825032230
         H           -0.453752775824    -3.181104487926    -0.447102468718     1.007825032230
         H           -3.633119475824    -0.432190187926     0.639322031282     1.007825032230
         H           -2.809692775824    -2.757572487926     0.220721531282     1.007825032230
         H           -1.540165775824     2.422773512074     1.122090531282     1.007825032230
         H           -2.207605775824     2.436538512074    -0.500918468718     1.007825032230
         H           -3.195394775824     1.843496512074     0.856498531282     1.007825032230

  Basis Set: AUG-CC-PVTZ
    Blend: AUG-CC-PVTZ
  Basis Set: (AUG-CC-PVTZ AUX)
    Blend: AUG-CC-PVTZ-JKFIT
	 Reference Energy          =    -553.6407132983958945 [Eh]
	 Singles Energy            =      -0.0000000000000000 [Eh]
	 Same-Spin Energy          =      -0.6043124676311097 [Eh]
	 Opposite-Spin Energy      =      -1.9035341122951472 [Eh]
	 Correlation Energy        =      -2.5078465799262570 [Eh]
	 Total Energy              =    -556.1485598783222031 [Eh]

	 ================> DF-SCS-MP2 Energies <==================
	-----------------------------------------------------------
	 SCS Same-Spin Scale       =       0.3333333333333333 [-]
	 SCS Opposite-Spin Scale   =       1.2000000000000000 [-]
	 SCS Same-Spin Energy      =      -0.2014374892103699 [Eh]
	 SCS Opposite-Spin Energy  =      -2.2842409347541768 [Eh]
	 SCS Correlation Energy    =      -2.4856784239645466 [Eh]
	 SCS Total Energy          =    -556.1263917223604949 [Eh]
	-----------------------------------------------------------

  Dipole Moment: [D]
     X:     1.7523      Y:    -2.5420      Z:     2.1989     Total:     3.7904

*** Psi4 exiting successfully. Buy a developer a beer!
