                               Psi4 1.4a3.dev225

  ==> Input File <==

--------------------------------------------------------------------------
#psi4
#
memory 32 gb

molecule  {
0 1
  O        0.3130990     2.3704440    -1.0483590
  N        1.7883250     1.2487180     0.2800910
  C        1.5287440    -1.3320340    -0.8115580
  C        2.5082430    -1.1273300     0.3546920
  C        0.0936770    -1.0844130    -0.4156830
  C       -0.3593510     0.2288580    -0.1728470
  C        2.1500350     0.1348000     1.1432270
  C       -1.6973100     0.4876920     0.1815770
  C        0.5874820     1.3794060    -0.3635620
  C       -0.8057180    -2.1460500    -0.2745700
  C       -2.5635920    -0.6025190     0.3218070
  C       -2.1294290    -1.9083920     0.0915650
  C       -2.2005820     1.8899870     0.4130340
  H        1.6305660    -2.3487650    -1.2074160
  H        1.8022820    -0.6509930    -1.6251500
  H        2.4785080    -1.9866810     1.0363320
  H        3.5296620    -1.0584230    -0.0385230
  H        1.2474832    -0.1020944     1.7147718
  H        2.9845300     0.4555350     1.7739000
  H        2.4430930     2.0063180     0.1171350
  H       -0.4670580    -3.1628320    -0.4675050
  H       -3.5988730    -0.4222000     0.6058720
  H       -2.8229980    -2.7393000     0.2003190
  H       -1.5534710     2.4410460     1.1016880
  H       -2.2209110     2.4548110    -0.5213210
  H       -3.2087000     1.8617690     0.8360960
units angstrom
no_reorient  #important for SAPT in psi4, default
symmetry c1  #important for SAPT in psi4, default
}

set PROPERTIES_ORIGIN ["COM"]
properties('MP2/aug-cc-pvtz', properties = ['dipole'])
--------------------------------------------------------------------------

    Molecular point group: c1
  Charge       = 0
  Multiplicity = 1
  Basis Set: AUG-CC-PVTZ
    Blend: AUG-CC-PVTZ
  Basis Set: (AUG-CC-PVTZ AUX)
    Blend: AUG-CC-PVTZ-JKFIT

    Orbital Energies [Eh]
    ---------------------

    Doubly Occupied:

       1A    -20.512437     2A    -15.582346     3A    -11.350275
       4A    -11.274762     5A    -11.254704     6A    -11.253902
       7A    -11.244833     8A    -11.242292     9A    -11.238321
      10A    -11.236584    11A    -11.235651    12A    -11.233053
      13A    -11.216075    14A     -1.367451    15A     -1.235733
      16A     -1.164105    17A     -1.084959    18A     -1.045113
      19A     -1.028821    20A     -0.943330    21A     -0.933084
      22A     -0.873599    23A     -0.830226    24A     -0.785245
      25A     -0.770056    26A     -0.695590    27A     -0.679743
      28A     -0.661333    29A     -0.658582    30A     -0.618296
      31A     -0.616421    32A     -0.591490    33A     -0.584908
      34A     -0.570636    35A     -0.566395    36A     -0.553390
      37A     -0.532428    38A     -0.531037    39A     -0.512352
      40A     -0.505998    41A     -0.490277    42A     -0.479190
      43A     -0.473937    44A     -0.417444    45A     -0.384145
      46A     -0.336752    47A     -0.327869

  @DF-RHF Final Energy:  -553.64146911924695

   => Energetics <=

    Nuclear Repulsion Energy =            796.3311032659815965
    One-Electron Energy =               -2332.4947990343639503
    Two-Electron Energy =                 982.5222266491352912
    Total Energy =                       -553.6414691192469490
  Basis Set: (AUG-CC-PVTZ AUX)
    Blend: AUG-CC-PVTZ-RI
    Molecular point group: c1

    Geometry (in Angstrom), charge = 0, multiplicity = 1:

       Center              X                  Y                   Z               Mass
    ------------   -----------------  -----------------  -----------------  -----------------
         O            0.326473661765     2.352375752093    -1.027340677409    15.994914619570
         N            1.801699661765     1.230649752093     0.301109322591    14.003074004430
         C            1.542118661765    -1.350102247907    -0.790539677409    12.000000000000
         C            2.521617661765    -1.145398247907     0.375710322591    12.000000000000
         C            0.107051661765    -1.102481247907    -0.394664677409    12.000000000000
         C           -0.345976338235     0.210789752093    -0.151828677409    12.000000000000
         C            2.163409661765     0.116731752093     1.164245322591    12.000000000000
         C           -1.683935338235     0.469623752093     0.202595322591    12.000000000000
         C            0.600856661765     1.361337752093    -0.342543677409    12.000000000000
         C           -0.792343338235    -2.164118247907    -0.253551677409    12.000000000000
         C           -2.550217338235    -0.620587247907     0.342825322591    12.000000000000
         C           -2.116054338235    -1.926460247907     0.112583322591    12.000000000000
         C           -2.187207338235     1.871918752093     0.434052322591    12.000000000000
         H            1.643940661765    -2.366833247907    -1.186397677409     1.007825032230
         H            1.815656661765    -0.669061247907    -1.604131677409     1.007825032230
         H            2.491882661765    -2.004749247907     1.057350322591     1.007825032230
         H            3.543036661765    -1.076491247907    -0.017504677409     1.007825032230
         H            1.260857861765    -0.120162647907     1.735790122591     1.007825032230
         H            2.997904661765     0.437466752093     1.794918322591     1.007825032230
         H            2.456467661765     1.988249752093     0.138153322591     1.007825032230
         H           -0.453683338235    -3.180900247907    -0.446486677409     1.007825032230
         H           -3.585498338235    -0.440268247907     0.626890322591     1.007825032230
         H           -2.809623338235    -2.757368247907     0.221337322591     1.007825032230
         H           -1.540096338235     2.422977752093     1.122706322591     1.007825032230
         H           -2.207536338235     2.436742752093    -0.500302677409     1.007825032230
         H           -3.195325338235     1.843700752093     0.857114322591     1.007825032230

  Basis Set: AUG-CC-PVTZ
    Blend: AUG-CC-PVTZ
  Basis Set: (AUG-CC-PVTZ AUX)
    Blend: AUG-CC-PVTZ-JKFIT
	 Reference Energy          =    -553.6414691192469490 [Eh]
	 Singles Energy            =      -0.0000000000000000 [Eh]
	 Same-Spin Energy          =      -0.6045056794346576 [Eh]
	 Opposite-Spin Energy      =      -1.9035323122472172 [Eh]
	 Correlation Energy        =      -2.5080379916818747 [Eh]
	 Total Energy              =    -556.1495071109288801 [Eh]

	 ================> DF-SCS-MP2 Energies <==================
	-----------------------------------------------------------
	 SCS Same-Spin Scale       =       0.3333333333333333 [-]
	 SCS Opposite-Spin Scale   =       1.2000000000000000 [-]
	 SCS Same-Spin Energy      =      -0.2015018931448859 [Eh]
	 SCS Opposite-Spin Energy  =      -2.2842387746966604 [Eh]
	 SCS Correlation Energy    =      -2.4857406678415463 [Eh]
	 SCS Total Energy          =    -556.1272097870885318 [Eh]
	-----------------------------------------------------------

  Dipole Moment: [D]
     X:     1.7023      Y:    -2.5540      Z:     2.1669     Total:     3.7572

*** Psi4 exiting successfully. Buy a developer a beer!
