                               Psi4 1.4a3.dev225

  ==> Input File <==

--------------------------------------------------------------------------
#psi4
#
memory 32 gb

molecule  {
0 1
  O        0.3130990     2.3704440    -1.0483590
  N        1.7883250     1.2487180     0.2800910
  C        1.5287440    -1.3320340    -0.8115580
  C        2.5082430    -1.1273300     0.3546920
  C        0.0936770    -1.0844130    -0.4156830
  C       -0.3593510     0.2288580    -0.1728470
  C        2.1500350     0.1348000     1.1432270
  C       -1.6973100     0.4876920     0.1815770
  C        0.5874820     1.3794060    -0.3635620
  C       -0.8057180    -2.1460500    -0.2745700
  C       -2.5635920    -0.6025190     0.3218070
  C       -2.1294290    -1.9083920     0.0915650
  C       -2.2005820     1.8899870     0.4130340
  H        1.6305660    -2.3487650    -1.2074160
  H        1.8022820    -0.6509930    -1.6251500
  H        2.4798630    -1.9475224     1.0052713
  H        3.5296620    -1.0584230    -0.0385230
  H        1.3070990    -0.0748920     1.8087120
  H        2.9845300     0.4555350     1.7739000
  H        2.4430930     2.0063180     0.1171350
  H       -0.4670580    -3.1628320    -0.4675050
  H       -3.5988730    -0.4222000     0.6058720
  H       -2.8229980    -2.7393000     0.2003190
  H       -1.5534710     2.4410460     1.1016880
  H       -2.2209110     2.4548110    -0.5213210
  H       -3.2087000     1.8617690     0.8360960
units angstrom
no_reorient  #important for SAPT in psi4, default
symmetry c1  #important for SAPT in psi4, default
}

set PROPERTIES_ORIGIN ["COM"]
properties('MP2/aug-cc-pvtz', properties = ['dipole'])
--------------------------------------------------------------------------

    Molecular point group: c1
  Charge       = 0
  Multiplicity = 1
  Basis Set: AUG-CC-PVTZ
    Blend: AUG-CC-PVTZ
  Basis Set: (AUG-CC-PVTZ AUX)
    Blend: AUG-CC-PVTZ-JKFIT

    Orbital Energies [Eh]
    ---------------------

    Doubly Occupied:

       1A    -20.512450     2A    -15.582703     3A    -11.350089
       4A    -11.274529     5A    -11.254191     6A    -11.253408
       7A    -11.244343     8A    -11.241851     9A    -11.237690
      10A    -11.235194    11A    -11.232604    12A    -11.231285
      13A    -11.215815    14A     -1.367349    15A     -1.235091
      16A     -1.163598    17A     -1.085517    18A     -1.044816
      19A     -1.029671    20A     -0.943018    21A     -0.933120
      22A     -0.874672    23A     -0.832355    24A     -0.785633
      25A     -0.769847    26A     -0.693953    27A     -0.683444
      28A     -0.660854    29A     -0.658761    30A     -0.620208
      31A     -0.615875    32A     -0.591110    33A     -0.584392
      34A     -0.570031    35A     -0.566027    36A     -0.552932
      37A     -0.533894    38A     -0.530304    39A     -0.514288
      40A     -0.506282    41A     -0.489577    42A     -0.479688
      43A     -0.473617    44A     -0.417288    45A     -0.385724
      46A     -0.336335    47A     -0.327422

  @DF-RHF Final Energy:  -553.64235572890823

   => Energetics <=

    Nuclear Repulsion Energy =            796.2380490865481306
    One-Electron Energy =               -2332.3151179175706602
    Two-Electron Energy =                 982.4347131021144151
    Total Energy =                       -553.6423557289082282
  Basis Set: (AUG-CC-PVTZ AUX)
    Blend: AUG-CC-PVTZ-RI
    Molecular point group: c1

    Geometry (in Angstrom), charge = 0, multiplicity = 1:

       Center              X                  Y                   Z               Mass
    ------------   -----------------  -----------------  -----------------  -----------------
         O            0.326122730875     2.351993796718    -1.027702594242    15.994914619570
         N            1.801348730875     1.230267796718     0.300747405758    14.003074004430
         C            1.541767730875    -1.350484203282    -0.790901594242    12.000000000000
         C            2.521266730875    -1.145780203282     0.375348405758    12.000000000000
         C            0.106700730875    -1.102863203282    -0.395026594242    12.000000000000
         C           -0.346327269125     0.210407796718    -0.152190594242    12.000000000000
         C            2.163058730875     0.116349796718     1.163883405758    12.000000000000
         C           -1.684286269125     0.469241796718     0.202233405758    12.000000000000
         C            0.600505730875     1.360955796718    -0.342905594242    12.000000000000
         C           -0.792694269125    -2.164500203282    -0.253913594242    12.000000000000
         C           -2.550568269125    -0.620969203282     0.342463405758    12.000000000000
         C           -2.116405269125    -1.926842203282     0.112221405758    12.000000000000
         C           -2.187558269125     1.871536796718     0.433690405758    12.000000000000
         H            1.643589730875    -2.367215203282    -1.186759594242     1.007825032230
         H            1.815305730875    -0.669443203282    -1.604493594242     1.007825032230
         H            2.492886730875    -1.965972603282     1.025927705758     1.007825032230
         H            3.542685730875    -1.076873203282    -0.017866594242     1.007825032230
         H            1.320122730875    -0.093342203282     1.829368405758     1.007825032230
         H            2.997553730875     0.437084796718     1.794556405758     1.007825032230
         H            2.456116730875     1.987867796718     0.137791405758     1.007825032230
         H           -0.454034269125    -3.181282203282    -0.446848594242     1.007825032230
         H           -3.585849269125    -0.440650203282     0.626528405758     1.007825032230
         H           -2.809974269125    -2.757750203282     0.220975405758     1.007825032230
         H           -1.540447269125     2.422595796718     1.122344405758     1.007825032230
         H           -2.207887269125     2.436360796718    -0.500664594242     1.007825032230
         H           -3.195676269125     1.843318796718     0.856752405758     1.007825032230

  Basis Set: AUG-CC-PVTZ
    Blend: AUG-CC-PVTZ
  Basis Set: (AUG-CC-PVTZ AUX)
    Blend: AUG-CC-PVTZ-JKFIT
	 Reference Energy          =    -553.6423557289082282 [Eh]
	 Singles Energy            =      -0.0000000000000000 [Eh]
	 Same-Spin Energy          =      -0.6041661797102534 [Eh]
	 Opposite-Spin Energy      =      -1.9027660545882654 [Eh]
	 Correlation Energy        =      -2.5069322342985187 [Eh]
	 Total Energy              =    -556.1492879632068025 [Eh]

	 ================> DF-SCS-MP2 Energies <==================
	-----------------------------------------------------------
	 SCS Same-Spin Scale       =       0.3333333333333333 [-]
	 SCS Opposite-Spin Scale   =       1.2000000000000000 [-]
	 SCS Same-Spin Energy      =      -0.2013887265700845 [Eh]
	 SCS Opposite-Spin Energy  =      -2.2833192655059182 [Eh]
	 SCS Correlation Energy    =      -2.4847079920760029 [Eh]
	 SCS Total Energy          =    -556.1270637209842107 [Eh]
	-----------------------------------------------------------

  Dipole Moment: [D]
     X:     1.7422      Y:    -2.5625      Z:     2.2253     Total:     3.8149

*** Psi4 exiting successfully. Buy a developer a beer!
