                               Psi4 1.4a3.dev225

  ==> Input File <==

--------------------------------------------------------------------------
#psi4
#
memory 32 gb

molecule  {
0 1
  O        0.3130990     2.3704440    -1.0483590
  N        1.7883250     1.2487180     0.2800910
  C        1.5287440    -1.3320340    -0.8115580
  C        2.5082430    -1.1273300     0.3546920
  C        0.0936770    -1.0844130    -0.4156830
  C       -0.3593510     0.2288580    -0.1728470
  C        2.1500350     0.1348000     1.1432270
  C       -1.6973100     0.4876920     0.1815770
  C        0.5874820     1.3794060    -0.3635620
  C       -0.7735631    -2.1080946    -0.2796150
  C       -2.5635920    -0.6025190     0.3218070
  C       -2.1294290    -1.9083920     0.0915650
  C       -2.2005820     1.8899870     0.4130340
  H        1.6305660    -2.3487650    -1.2074160
  H        1.8022820    -0.6509930    -1.6251500
  H        2.4785080    -1.9866810     1.0363320
  H        3.5296620    -1.0584230    -0.0385230
  H        1.3070990    -0.0748920     1.8087120
  H        2.9845300     0.4555350     1.7739000
  H        2.4430930     2.0063180     0.1171350
  H       -0.4670580    -3.1628320    -0.4675050
  H       -3.5988730    -0.4222000     0.6058720
  H       -2.8229980    -2.7393000     0.2003190
  H       -1.5534710     2.4410460     1.1016880
  H       -2.2209110     2.4548110    -0.5213210
  H       -3.2087000     1.8617690     0.8360960
units angstrom
no_reorient  #important for SAPT in psi4, default
symmetry c1  #important for SAPT in psi4, default
}

set PROPERTIES_ORIGIN ["COM"]
properties('MP2/aug-cc-pvtz', properties = ['dipole'])
--------------------------------------------------------------------------

    Molecular point group: c1
  Charge       = 0
  Multiplicity = 1
  Basis Set: AUG-CC-PVTZ
    Blend: AUG-CC-PVTZ
  Basis Set: (AUG-CC-PVTZ AUX)
    Blend: AUG-CC-PVTZ-JKFIT

    Orbital Energies [Eh]
    ---------------------

    Doubly Occupied:

       1A    -20.512457     2A    -15.582744     3A    -11.350009
       4A    -11.274764     5A    -11.253603     6A    -11.247735
       7A    -11.247299     8A    -11.241739     9A    -11.237432
      10A    -11.236786    11A    -11.234417    12A    -11.233590
      13A    -11.216042    14A     -1.367333    15A     -1.235220
      16A     -1.166763    17A     -1.085822    18A     -1.042697
      19A     -1.029804    20A     -0.943334    21A     -0.934914
      22A     -0.872961    23A     -0.830504    24A     -0.785876
      25A     -0.768606    26A     -0.693313    27A     -0.682009
      28A     -0.659844    29A     -0.659467    30A     -0.620307
      31A     -0.615576    32A     -0.590463    33A     -0.583300
      34A     -0.569214    35A     -0.564493    36A     -0.553533
      37A     -0.531975    38A     -0.529626    39A     -0.512972
      40A     -0.507595    41A     -0.490011    42A     -0.479817
      43A     -0.469428    44A     -0.417695    45A     -0.385793
      46A     -0.336597    47A     -0.329798

  @DF-RHF Final Energy:  -553.64015456877144

   => Energetics <=

    Nuclear Repulsion Energy =            796.8436790303285306
    One-Electron Energy =               -2333.5371080355212143
    Two-Electron Energy =                 983.0532744364212476
    Total Energy =                       -553.6401545687714361
  Basis Set: (AUG-CC-PVTZ AUX)
    Blend: AUG-CC-PVTZ-RI
    Molecular point group: c1

    Geometry (in Angstrom), charge = 0, multiplicity = 1:

       Center              X                  Y                   Z               Mass
    ------------   -----------------  -----------------  -----------------  -----------------
         O            0.323926878076     2.349618008813    -1.027535625100    15.994914619570
         N            1.799152878076     1.227892008813     0.300914374900    14.003074004430
         C            1.539571878076    -1.352859991187    -0.790734625100    12.000000000000
         C            2.519070878076    -1.148155991187     0.375515374900    12.000000000000
         C            0.104504878076    -1.105238991187    -0.394859625100    12.000000000000
         C           -0.348523121924     0.208032008813    -0.152023625100    12.000000000000
         C            2.160862878076     0.113974008813     1.164050374900    12.000000000000
         C           -1.686482121924     0.466866008813     0.202400374900    12.000000000000
         C            0.598309878076     1.358580008813    -0.342738625100    12.000000000000
         C           -0.762735221924    -2.128920591187    -0.258791625100    12.000000000000
         C           -2.552764121924    -0.623344991187     0.342630374900    12.000000000000
         C           -2.118601121924    -1.929217991187     0.112388374900    12.000000000000
         C           -2.189754121924     1.869161008813     0.433857374900    12.000000000000
         H            1.641393878076    -2.369590991187    -1.186592625100     1.007825032230
         H            1.813109878076    -0.671818991187    -1.604326625100     1.007825032230
         H            2.489335878076    -2.007506991187     1.057155374900     1.007825032230
         H            3.540489878076    -1.079248991187    -0.017699625100     1.007825032230
         H            1.317926878076    -0.095717991187     1.829535374900     1.007825032230
         H            2.995357878076     0.434709008813     1.794723374900     1.007825032230
         H            2.453920878076     1.985492008813     0.137958374900     1.007825032230
         H           -0.456230121924    -3.183657991187    -0.446681625100     1.007825032230
         H           -3.588045121924    -0.443025991187     0.626695374900     1.007825032230
         H           -2.812170121924    -2.760125991187     0.221142374900     1.007825032230
         H           -1.542643121924     2.420220008813     1.122511374900     1.007825032230
         H           -2.210083121924     2.433985008813    -0.500497625100     1.007825032230
         H           -3.197872121924     1.840943008813     0.856919374900     1.007825032230

  Basis Set: AUG-CC-PVTZ
    Blend: AUG-CC-PVTZ
  Basis Set: (AUG-CC-PVTZ AUX)
    Blend: AUG-CC-PVTZ-JKFIT
	 Reference Energy          =    -553.6401545687714361 [Eh]
	 Singles Energy            =      -0.0000000000000000 [Eh]
	 Same-Spin Energy          =      -0.6041779973466535 [Eh]
	 Opposite-Spin Energy      =      -1.9032344279289846 [Eh]
	 Correlation Energy        =      -2.5074124252756382 [Eh]
	 Total Energy              =    -556.1475669940471107 [Eh]

	 ================> DF-SCS-MP2 Energies <==================
	-----------------------------------------------------------
	 SCS Same-Spin Scale       =       0.3333333333333333 [-]
	 SCS Opposite-Spin Scale   =       1.2000000000000000 [-]
	 SCS Same-Spin Energy      =      -0.2013926657822178 [Eh]
	 SCS Opposite-Spin Energy  =      -2.2838813135147813 [Eh]
	 SCS Correlation Energy    =      -2.4852739792969989 [Eh]
	 SCS Total Energy          =    -556.1254285480683848 [Eh]
	-----------------------------------------------------------

  Dipole Moment: [D]
     X:     1.7008      Y:    -2.5279      Z:     2.2129     Total:     3.7657

*** Psi4 exiting successfully. Buy a developer a beer!
