                               Psi4 1.4a3.dev225

  ==> Input File <==

--------------------------------------------------------------------------
#psi4
#
memory 32 gb

molecule  {
0 1
  O        0.3130990     2.3704440    -1.0483590
  N        1.7883250     1.2487180     0.2800910
  C        1.5287440    -1.3320340    -0.8115580
  C        2.5082430    -1.1273300     0.3546920
  C        0.0936770    -1.0844130    -0.4156830
  C       -0.3593510     0.2288580    -0.1728470
  C        2.1500350     0.1348000     1.1432270
  C       -1.6973100     0.4876920     0.1815770
  C        0.5874820     1.3794060    -0.3635620
  C       -0.8057180    -2.1460500    -0.2745700
  C       -2.5635920    -0.6025190     0.3218070
  C       -2.1378919    -1.9562206     0.0887818
  C       -2.2005820     1.8899870     0.4130340
  H        1.6305660    -2.3487650    -1.2074160
  H        1.8022820    -0.6509930    -1.6251500
  H        2.4785080    -1.9866810     1.0363320
  H        3.5296620    -1.0584230    -0.0385230
  H        1.3070990    -0.0748920     1.8087120
  H        2.9845300     0.4555350     1.7739000
  H        2.4430930     2.0063180     0.1171350
  H       -0.4670580    -3.1628320    -0.4675050
  H       -3.5988730    -0.4222000     0.6058720
  H       -2.8229980    -2.7393000     0.2003190
  H       -1.5534710     2.4410460     1.1016880
  H       -2.2209110     2.4548110    -0.5213210
  H       -3.2087000     1.8617690     0.8360960
units angstrom
no_reorient  #important for SAPT in psi4, default
symmetry c1  #important for SAPT in psi4, default
}

set PROPERTIES_ORIGIN ["COM"]
properties('MP2/aug-cc-pvtz', properties = ['dipole'])
--------------------------------------------------------------------------

    Molecular point group: c1
  Charge       = 0
  Multiplicity = 1
  Basis Set: AUG-CC-PVTZ
    Blend: AUG-CC-PVTZ
  Basis Set: (AUG-CC-PVTZ AUX)
    Blend: AUG-CC-PVTZ-JKFIT

    Orbital Energies [Eh]
    ---------------------

    Doubly Occupied:

       1A    -20.513027     2A    -15.583306     3A    -11.350622
       4A    -11.274999     5A    -11.254739     6A    -11.252826
       7A    -11.245858     8A    -11.243150     9A    -11.238564
      10A    -11.237521    11A    -11.237013    12A    -11.236438
      13A    -11.215663    14A     -1.367889    15A     -1.235558
      16A     -1.160852    17A     -1.083659    18A     -1.044581
      19A     -1.026939    20A     -0.943073    21A     -0.930397
      22A     -0.876495    23A     -0.829977    24A     -0.786315
      25A     -0.770081    26A     -0.692934    27A     -0.682913
      28A     -0.663618    29A     -0.657873    30A     -0.620018
      31A     -0.617219    32A     -0.592943    33A     -0.583073
      34A     -0.570191    35A     -0.564875    36A     -0.552827
      37A     -0.531477    38A     -0.530115    39A     -0.512786
      40A     -0.507362    41A     -0.489452    42A     -0.476753
      43A     -0.472595    44A     -0.417875    45A     -0.386167
      46A     -0.334916    47A     -0.326434

  @DF-RHF Final Energy:  -553.63942782351205

   => Energetics <=

    Nuclear Repulsion Energy =            795.0726096572196866
    One-Electron Energy =               -2329.9761500934391734
    Two-Electron Energy =                 981.2641126127073221
    Total Energy =                       -553.6394278235120510
  Basis Set: (AUG-CC-PVTZ AUX)
    Blend: AUG-CC-PVTZ-RI
    Molecular point group: c1

    Geometry (in Angstrom), charge = 0, multiplicity = 1:

       Center              X                  Y                   Z               Mass
    ------------   -----------------  -----------------  -----------------  -----------------
         O            0.326710512548     2.355496990430    -1.027690631636    15.994914619570
         N            1.801936512548     1.233770990430     0.300759368364    14.003074004430
         C            1.542355512548    -1.346981009570    -0.790889631636    12.000000000000
         C            2.521854512548    -1.142277009570     0.375360368364    12.000000000000
         C            0.107288512548    -1.099360009570    -0.395014631636    12.000000000000
         C           -0.345739487452     0.213910990430    -0.152178631636    12.000000000000
         C            2.163646512548     0.119852990430     1.163895368364    12.000000000000
         C           -1.683698487452     0.472744990430     0.202245368364    12.000000000000
         C            0.601093512548     1.364458990430    -0.342893631636    12.000000000000
         C           -0.792106487452    -2.160997009570    -0.253901631636    12.000000000000
         C           -2.549980487452    -0.617466009570     0.342475368364    12.000000000000
         C           -2.124280387452    -1.971167609570     0.109450168364    12.000000000000
         C           -2.186970487452     1.875039990430     0.433702368364    12.000000000000
         H            1.644177512548    -2.363712009570    -1.186747631636     1.007825032230
         H            1.815893512548    -0.665940009570    -1.604481631636     1.007825032230
         H            2.492119512548    -2.001628009570     1.057000368364     1.007825032230
         H            3.543273512548    -1.073370009570    -0.017854631636     1.007825032230
         H            1.320710512548    -0.089839009570     1.829380368364     1.007825032230
         H            2.998141512548     0.440587990430     1.794568368364     1.007825032230
         H            2.456704512548     1.991370990430     0.137803368364     1.007825032230
         H           -0.453446487452    -3.177779009570    -0.446836631636     1.007825032230
         H           -3.585261487452    -0.437147009570     0.626540368364     1.007825032230
         H           -2.809386487452    -2.754247009570     0.220987368364     1.007825032230
         H           -1.539859487452     2.426098990430     1.122356368364     1.007825032230
         H           -2.207299487452     2.439863990430    -0.500652631636     1.007825032230
         H           -3.195088487452     1.846821990430     0.856764368364     1.007825032230

  Basis Set: AUG-CC-PVTZ
    Blend: AUG-CC-PVTZ
  Basis Set: (AUG-CC-PVTZ AUX)
    Blend: AUG-CC-PVTZ-JKFIT
	 Reference Energy          =    -553.6394278235120510 [Eh]
	 Singles Energy            =      -0.0000000000000000 [Eh]
	 Same-Spin Energy          =      -0.6042788422776614 [Eh]
	 Opposite-Spin Energy      =      -1.9036906122845250 [Eh]
	 Correlation Energy        =      -2.5079694545621862 [Eh]
	 Total Energy              =    -556.1473972780742088 [Eh]

	 ================> DF-SCS-MP2 Energies <==================
	-----------------------------------------------------------
	 SCS Same-Spin Scale       =       0.3333333333333333 [-]
	 SCS Opposite-Spin Scale   =       1.2000000000000000 [-]
	 SCS Same-Spin Energy      =      -0.2014262807592204 [Eh]
	 SCS Opposite-Spin Energy  =      -2.2844287347414300 [Eh]
	 SCS Correlation Energy    =      -2.4858550155006505 [Eh]
	 SCS Total Energy          =    -556.1252828390126979 [Eh]
	-----------------------------------------------------------

  Dipole Moment: [D]
     X:     1.7252      Y:    -2.5435      Z:     2.2075     Total:     3.7840

*** Psi4 exiting successfully. Buy a developer a beer!
