                               Psi4 1.4a3.dev225

  ==> Input File <==

--------------------------------------------------------------------------
#psi4
#
memory 32 gb

molecule  {
0 1
  O        0.3130990     2.3704440    -1.0483590
  N        1.7950303     1.2699553     0.2714499
  C        1.5287440    -1.3320340    -0.8115580
  C        2.5082430    -1.1273300     0.3546920
  C        0.0936770    -1.0844130    -0.4156830
  C       -0.3593510     0.2288580    -0.1728470
  C        2.1500350     0.1348000     1.1432270
  C       -1.6973100     0.4876920     0.1815770
  C        0.5874820     1.3794060    -0.3635620
  C       -0.8057180    -2.1460500    -0.2745700
  C       -2.5635920    -0.6025190     0.3218070
  C       -2.1294290    -1.9083920     0.0915650
  C       -2.2005820     1.8899870     0.4130340
  H        1.6305660    -2.3487650    -1.2074160
  H        1.8022820    -0.6509930    -1.6251500
  H        2.4785080    -1.9866810     1.0363320
  H        3.5296620    -1.0584230    -0.0385230
  H        1.3070990    -0.0748920     1.8087120
  H        2.9845300     0.4555350     1.7739000
  H        2.4430930     2.0063180     0.1171350
  H       -0.4670580    -3.1628320    -0.4675050
  H       -3.5988730    -0.4222000     0.6058720
  H       -2.8229980    -2.7393000     0.2003190
  H       -1.5534710     2.4410460     1.1016880
  H       -2.2209110     2.4548110    -0.5213210
  H       -3.2087000     1.8617690     0.8360960
units angstrom
no_reorient  #important for SAPT in psi4, default
symmetry c1  #important for SAPT in psi4, default
}

set PROPERTIES_ORIGIN ["COM"]
properties('MP2/aug-cc-pvtz', properties = ['dipole'])
--------------------------------------------------------------------------

    Molecular point group: c1
  Charge       = 0
  Multiplicity = 1
  Basis Set: AUG-CC-PVTZ
    Blend: AUG-CC-PVTZ
  Basis Set: (AUG-CC-PVTZ AUX)
    Blend: AUG-CC-PVTZ-JKFIT

    Orbital Energies [Eh]
    ---------------------

    Doubly Occupied:

       1A    -20.511313     2A    -15.581106     3A    -11.349639
       4A    -11.276114     5A    -11.254608     6A    -11.253882
       7A    -11.244692     8A    -11.242731     9A    -11.238593
      10A    -11.237979    11A    -11.235498    12A    -11.232941
      13A    -11.215942    14A     -1.367128    15A     -1.231716
      16A     -1.164070    17A     -1.085179    18A     -1.045256
      19A     -1.028184    20A     -0.943912    21A     -0.932609
      22A     -0.873297    23A     -0.830815    24A     -0.785141
      25A     -0.772100    26A     -0.695373    27A     -0.680937
      28A     -0.660132    29A     -0.657443    30A     -0.618676
      31A     -0.616882    32A     -0.590855    33A     -0.583082
      34A     -0.569890    35A     -0.566314    36A     -0.552920
      37A     -0.531187    38A     -0.530970    39A     -0.513974
      40A     -0.505560    41A     -0.489190    42A     -0.479434
      43A     -0.473941    44A     -0.416921    45A     -0.386334
      46A     -0.336709    47A     -0.327767

  @DF-RHF Final Energy:  -553.64327351278735

   => Energetics <=

    Nuclear Repulsion Energy =            795.5696088824005301
    One-Electron Energy =               -2330.9878949495810048
    Two-Electron Energy =                 981.7750125543930153
    Total Energy =                       -553.6432735127873457
  Basis Set: (AUG-CC-PVTZ AUX)
    Blend: AUG-CC-PVTZ-RI
    Molecular point group: c1

    Geometry (in Angstrom), charge = 0, multiplicity = 1:

       Center              X                  Y                   Z               Mass
    ------------   -----------------  -----------------  -----------------  -----------------
         O            0.325594293637     2.350520793363    -1.027190324920    15.994914619570
         N            1.807525593637     1.250032093363     0.292618575080    14.003074004430
         C            1.541239293637    -1.351957206637    -0.790389324920    12.000000000000
         C            2.520738293637    -1.147253206637     0.375860675080    12.000000000000
         C            0.106172293637    -1.104336206637    -0.394514324920    12.000000000000
         C           -0.346855706363     0.208934793363    -0.151678324920    12.000000000000
         C            2.162530293637     0.114876793363     1.164395675080    12.000000000000
         C           -1.684814706363     0.467768793363     0.202745675080    12.000000000000
         C            0.599977293637     1.359482793363    -0.342393324920    12.000000000000
         C           -0.793222706363    -2.165973206637    -0.253401324920    12.000000000000
         C           -2.551096706363    -0.622442206637     0.342975675080    12.000000000000
         C           -2.116933706363    -1.928315206637     0.112733675080    12.000000000000
         C           -2.188086706363     1.870063793363     0.434202675080    12.000000000000
         H            1.643061293637    -2.368688206637    -1.186247324920     1.007825032230
         H            1.814777293637    -0.670916206637    -1.603981324920     1.007825032230
         H            2.491003293637    -2.006604206637     1.057500675080     1.007825032230
         H            3.542157293637    -1.078346206637    -0.017354324920     1.007825032230
         H            1.319594293637    -0.094815206637     1.829880675080     1.007825032230
         H            2.997025293637     0.435611793363     1.795068675080     1.007825032230
         H            2.455588293637     1.986394793363     0.138303675080     1.007825032230
         H           -0.454562706363    -3.182755206637    -0.446336324920     1.007825032230
         H           -3.586377706363    -0.442123206637     0.627040675080     1.007825032230
         H           -2.810502706363    -2.759223206637     0.221487675080     1.007825032230
         H           -1.540975706363     2.421122793363     1.122856675080     1.007825032230
         H           -2.208415706363     2.434887793363    -0.500152324920     1.007825032230
         H           -3.196204706363     1.841845793363     0.857264675080     1.007825032230

  Basis Set: AUG-CC-PVTZ
    Blend: AUG-CC-PVTZ
  Basis Set: (AUG-CC-PVTZ AUX)
    Blend: AUG-CC-PVTZ-JKFIT
	 Reference Energy          =    -553.6432735127873457 [Eh]
	 Singles Energy            =      -0.0000000000000000 [Eh]
	 Same-Spin Energy          =      -0.6038158408981473 [Eh]
	 Opposite-Spin Energy      =      -1.9026744048050073 [Eh]
	 Correlation Energy        =      -2.5064902457031546 [Eh]
	 Total Energy              =    -556.1497637584905078 [Eh]

	 ================> DF-SCS-MP2 Energies <==================
	-----------------------------------------------------------
	 SCS Same-Spin Scale       =       0.3333333333333333 [-]
	 SCS Opposite-Spin Scale   =       1.2000000000000000 [-]
	 SCS Same-Spin Energy      =      -0.2012719469660491 [Eh]
	 SCS Opposite-Spin Energy  =      -2.2832092857660085 [Eh]
	 SCS Correlation Energy    =      -2.4844812327320573 [Eh]
	 SCS Total Energy          =    -556.1277547455193826 [Eh]
	-----------------------------------------------------------

  Dipole Moment: [D]
     X:     1.7107      Y:    -2.5837      Z:     2.2135     Total:     3.8081

*** Psi4 exiting successfully. Buy a developer a beer!
