                               Psi4 1.4a3.dev225

  ==> Input File <==

--------------------------------------------------------------------------
#psi4
#
memory 32 gb

molecule  {
0 1
  O        0.3130990     2.3704440    -1.0483590
  N        1.7883250     1.2487180     0.2800910
  C        1.5287440    -1.3320340    -0.8115580
  C        2.5082430    -1.1273300     0.3546920
  C        0.0936770    -1.0844130    -0.4156830
  C       -0.3593510     0.2288580    -0.1728470
  C        2.1500350     0.1348000     1.1432270
  C       -1.6973100     0.4876920     0.1815770
  C        0.5874820     1.3794060    -0.3635620
  C       -0.8057180    -2.1460500    -0.2745700
  C       -2.5635920    -0.6025190     0.3218070
  C       -2.1294290    -1.9083920     0.0915650
  C       -2.2005820     1.8899870     0.4130340
  H        1.6305660    -2.3487650    -1.2074160
  H        1.8022820    -0.6509930    -1.6251500
  H        2.4757981    -2.0649982     1.0984534
  H        3.5296620    -1.0584230    -0.0385230
  H        1.3070990    -0.0748920     1.8087120
  H        2.9845300     0.4555350     1.7739000
  H        2.4430930     2.0063180     0.1171350
  H       -0.4670580    -3.1628320    -0.4675050
  H       -3.5988730    -0.4222000     0.6058720
  H       -2.8229980    -2.7393000     0.2003190
  H       -1.5534710     2.4410460     1.1016880
  H       -2.2209110     2.4548110    -0.5213210
  H       -3.2087000     1.8617690     0.8360960
units angstrom
no_reorient  #important for SAPT in psi4, default
symmetry c1  #important for SAPT in psi4, default
}

set PROPERTIES_ORIGIN ["COM"]
properties('MP2/aug-cc-pvtz', properties = ['dipole'])
--------------------------------------------------------------------------

    Molecular point group: c1
  Charge       = 0
  Multiplicity = 1
  Basis Set: AUG-CC-PVTZ
    Blend: AUG-CC-PVTZ
  Basis Set: (AUG-CC-PVTZ AUX)
    Blend: AUG-CC-PVTZ-JKFIT

    Orbital Energies [Eh]
    ---------------------

    Doubly Occupied:

       1A    -20.513319     2A    -15.583926     3A    -11.350895
       4A    -11.275860     5A    -11.254614     6A    -11.253690
       7A    -11.249481     8A    -11.244552     9A    -11.242359
      10A    -11.239275    11A    -11.235483    12A    -11.232919
      13A    -11.216107    14A     -1.368196    15A     -1.236089
      16A     -1.163952    17A     -1.083577    18A     -1.044753
      19A     -1.027363    20A     -0.943559    21A     -0.933576
      22A     -0.872386    23A     -0.826679    24A     -0.783711
      25A     -0.769946    26A     -0.694192    27A     -0.682099
      28A     -0.659422    29A     -0.658422    30A     -0.619424
      31A     -0.613698    32A     -0.591247    33A     -0.582689
      34A     -0.570261    35A     -0.566347    36A     -0.553538
      37A     -0.530938    38A     -0.527953    39A     -0.513435
      40A     -0.502997    41A     -0.486921    42A     -0.477372
      43A     -0.473799    44A     -0.417886    45A     -0.386824
      46A     -0.336724    47A     -0.327753

  @DF-RHF Final Energy:  -553.63668815706728

   => Energetics <=

    Nuclear Repulsion Energy =            795.4891800347915023
    One-Electron Energy =               -2330.8113229824166410
    Two-Electron Energy =                 981.6854547905579693
    Total Energy =                       -553.6366881570672831
  Basis Set: (AUG-CC-PVTZ AUX)
    Blend: AUG-CC-PVTZ-RI
    Molecular point group: c1

    Geometry (in Angstrom), charge = 0, multiplicity = 1:

       Center              X                  Y                   Z               Mass
    ------------   -----------------  -----------------  -----------------  -----------------
         O            0.326146127304     2.352669954601    -1.028238924375    15.994914619570
         N            1.801372127304     1.230943954601     0.300211075625    14.003074004430
         C            1.541791127304    -1.349808045399    -0.791437924375    12.000000000000
         C            2.521290127304    -1.145104045399     0.374812075625    12.000000000000
         C            0.106724127304    -1.102187045399    -0.395562924375    12.000000000000
         C           -0.346303872696     0.211083954601    -0.152726924375    12.000000000000
         C            2.163082127304     0.117025954601     1.163347075625    12.000000000000
         C           -1.684262872696     0.469917954601     0.201697075625    12.000000000000
         C            0.600529127304     1.361631954601    -0.343441924375    12.000000000000
         C           -0.792670872696    -2.163824045399    -0.254449924375    12.000000000000
         C           -2.550544872696    -0.620293045399     0.341927075625    12.000000000000
         C           -2.116381872696    -1.926166045399     0.111685075625    12.000000000000
         C           -2.187534872696     1.872212954601     0.433154075625    12.000000000000
         H            1.643613127304    -2.366539045399    -1.187295924375     1.007825032230
         H            1.815329127304    -0.668767045399    -1.605029924375     1.007825032230
         H            2.488845227304    -2.082772245399     1.118573475625     1.007825032230
         H            3.542709127304    -1.076197045399    -0.018402924375     1.007825032230
         H            1.320146127304    -0.092666045399     1.828832075625     1.007825032230
         H            2.997577127304     0.437760954601     1.794020075625     1.007825032230
         H            2.456140127304     1.988543954601     0.137255075625     1.007825032230
         H           -0.454010872696    -3.180606045399    -0.447384924375     1.007825032230
         H           -3.585825872696    -0.439974045399     0.625992075625     1.007825032230
         H           -2.809950872696    -2.757074045399     0.220439075625     1.007825032230
         H           -1.540423872696     2.423271954601     1.121808075625     1.007825032230
         H           -2.207863872696     2.437036954601    -0.501200924375     1.007825032230
         H           -3.195652872696     1.843994954601     0.856216075625     1.007825032230

  Basis Set: AUG-CC-PVTZ
    Blend: AUG-CC-PVTZ
  Basis Set: (AUG-CC-PVTZ AUX)
    Blend: AUG-CC-PVTZ-JKFIT
	 Reference Energy          =    -553.6366881570672831 [Eh]
	 Singles Energy            =      -0.0000000000000000 [Eh]
	 Same-Spin Energy          =      -0.6042299410962330 [Eh]
	 Opposite-Spin Energy      =      -1.9038579779747369 [Eh]
	 Correlation Energy        =      -2.5080879190709697 [Eh]
	 Total Energy              =    -556.1447760761382142 [Eh]

	 ================> DF-SCS-MP2 Energies <==================
	-----------------------------------------------------------
	 SCS Same-Spin Scale       =       0.3333333333333333 [-]
	 SCS Opposite-Spin Scale   =       1.2000000000000000 [-]
	 SCS Same-Spin Energy      =      -0.2014099803654110 [Eh]
	 SCS Opposite-Spin Energy  =      -2.2846295735696840 [Eh]
	 SCS Correlation Energy    =      -2.4860395539350950 [Eh]
	 SCS Total Energy          =    -556.1227277110024261 [Eh]
	-----------------------------------------------------------

  Dipole Moment: [D]
     X:     1.6950      Y:    -2.4822      Z:     2.1556     Total:     3.6988

*** Psi4 exiting successfully. Buy a developer a beer!
