                               Psi4 1.4a3.dev225

  ==> Input File <==

--------------------------------------------------------------------------
#psi4
#
memory 32 gb

molecule  {
0 1
  O        0.3130990     2.3704440    -1.0483590
  N        1.7883250     1.2487180     0.2800910
  C        1.5287440    -1.3320340    -0.8115580
  C        2.5082430    -1.1273300     0.3546920
  C        0.0936770    -1.0844130    -0.4156830
  C       -0.3593510     0.2288580    -0.1728470
  C        2.1500350     0.1348000     1.1432270
  C       -1.6973100     0.4876920     0.1815770
  C        0.5874820     1.3794060    -0.3635620
  C       -0.8057180    -2.1460500    -0.2745700
  C       -2.5635920    -0.6025190     0.3218070
  C       -2.1294290    -1.9083920     0.0915650
  C       -2.1338236     1.7039744     0.3823315
  H        1.6305660    -2.3487650    -1.2074160
  H        1.8022820    -0.6509930    -1.6251500
  H        2.4785080    -1.9866810     1.0363320
  H        3.5296620    -1.0584230    -0.0385230
  H        1.3070990    -0.0748920     1.8087120
  H        2.9845300     0.4555350     1.7739000
  H        2.4430930     2.0063180     0.1171350
  H       -0.4670580    -3.1628320    -0.4675050
  H       -3.5988730    -0.4222000     0.6058720
  H       -2.8229980    -2.7393000     0.2003190
  H       -1.5534710     2.4410460     1.1016880
  H       -2.2209110     2.4548110    -0.5213210
  H       -3.2087000     1.8617690     0.8360960
units angstrom
no_reorient  #important for SAPT in psi4, default
symmetry c1  #important for SAPT in psi4, default
}

set PROPERTIES_ORIGIN ["COM"]
properties('MP2/aug-cc-pvtz', properties = ['dipole'])
--------------------------------------------------------------------------

    Molecular point group: c1
  Charge       = 0
  Multiplicity = 1
  Basis Set: AUG-CC-PVTZ
    Blend: AUG-CC-PVTZ
  Basis Set: (AUG-CC-PVTZ AUX)
    Blend: AUG-CC-PVTZ-JKFIT

    Orbital Energies [Eh]
    ---------------------

    Doubly Occupied:

       1A    -20.512622     2A    -15.583126     3A    -11.350567
       4A    -11.274989     5A    -11.254966     6A    -11.244641
       7A    -11.242839     8A    -11.241669     9A    -11.238508
      10A    -11.237595    11A    -11.235484    12A    -11.232772
      13A    -11.225241    14A     -1.367736    15A     -1.235461
      16A     -1.173660    17A     -1.097358    18A     -1.059422
      19A     -1.030877    20A     -0.945104    21A     -0.933269
      22A     -0.873173    23A     -0.827215    24A     -0.786786
      25A     -0.767767    26A     -0.694305    27A     -0.684403
      28A     -0.669420    29A     -0.661027    30A     -0.628994
      31A     -0.616413    32A     -0.605984    33A     -0.585075
      34A     -0.577901    35A     -0.564706    36A     -0.548873
      37A     -0.530049    38A     -0.521529    39A     -0.518505
      40A     -0.493028    41A     -0.482596    42A     -0.472306
      43A     -0.466429    44A     -0.415170    45A     -0.385349
      46A     -0.336447    47A     -0.319322

  @DF-RHF Final Energy:  -553.59078622399102

   => Energetics <=

    Nuclear Repulsion Energy =            800.1125739563735806
    One-Electron Energy =               -2339.9053658579182411
    Two-Electron Energy =                 986.2020056775536432
    Total Energy =                       -553.5907862239910173
  Basis Set: (AUG-CC-PVTZ AUX)
    Blend: AUG-CC-PVTZ-RI
    Molecular point group: c1

    Geometry (in Angstrom), charge = 0, multiplicity = 1:

       Center              X                  Y                   Z               Mass
    ------------   -----------------  -----------------  -----------------  -----------------
         O            0.321555417893     2.364967068717    -1.025777255581    15.994914619570
         N            1.796781417893     1.243241068717     0.302672744419    14.003074004430
         C            1.537200417893    -1.337510931283    -0.788976255581    12.000000000000
         C            2.516699417893    -1.132806931283     0.377273744419    12.000000000000
         C            0.102133417893    -1.089889931283    -0.393101255581    12.000000000000
         C           -0.350894582107     0.223381068717    -0.150265255581    12.000000000000
         C            2.158491417893     0.129323068717     1.165808744419    12.000000000000
         C           -1.688853582107     0.482215068717     0.204158744419    12.000000000000
         C            0.595938417893     1.373929068717    -0.340980255581    12.000000000000
         C           -0.797261582107    -2.151526931283    -0.251988255581    12.000000000000
         C           -2.555135582107    -0.607995931283     0.344388744419    12.000000000000
         C           -2.120972582107    -1.913868931283     0.114146744419    12.000000000000
         C           -2.125367182107     1.698497468717     0.404913244419    12.000000000000
         H            1.639022417893    -2.354241931283    -1.184834255581     1.007825032230
         H            1.810738417893    -0.656469931283    -1.602568255581     1.007825032230
         H            2.486964417893    -1.992157931283     1.058913744419     1.007825032230
         H            3.538118417893    -1.063899931283    -0.015941255581     1.007825032230
         H            1.315555417893    -0.080368931283     1.831293744419     1.007825032230
         H            2.992986417893     0.450058068717     1.796481744419     1.007825032230
         H            2.451549417893     2.000841068717     0.139716744419     1.007825032230
         H           -0.458601582107    -3.168308931283    -0.444923255581     1.007825032230
         H           -3.590416582107    -0.427676931283     0.628453744419     1.007825032230
         H           -2.814541582107    -2.744776931283     0.222900744419     1.007825032230
         H           -1.545014582107     2.435569068717     1.124269744419     1.007825032230
         H           -2.212454582107     2.449334068717    -0.498739255581     1.007825032230
         H           -3.200243582107     1.856292068717     0.858677744419     1.007825032230

  Basis Set: AUG-CC-PVTZ
    Blend: AUG-CC-PVTZ
  Basis Set: (AUG-CC-PVTZ AUX)
    Blend: AUG-CC-PVTZ-JKFIT
	 Reference Energy          =    -553.5907862239910173 [Eh]
	 Singles Energy            =      -0.0000000000000000 [Eh]
	 Same-Spin Energy          =      -0.6080612236150302 [Eh]
	 Opposite-Spin Energy      =      -1.9080349830931587 [Eh]
	 Correlation Energy        =      -2.5160962067081889 [Eh]
	 Total Energy              =    -556.1068824306992155 [Eh]

	 ================> DF-SCS-MP2 Energies <==================
	-----------------------------------------------------------
	 SCS Same-Spin Scale       =       0.3333333333333333 [-]
	 SCS Opposite-Spin Scale   =       1.2000000000000000 [-]
	 SCS Same-Spin Energy      =      -0.2026870745383434 [Eh]
	 SCS Opposite-Spin Energy  =      -2.2896419797117904 [Eh]
	 SCS Correlation Energy    =      -2.4923290542501340 [Eh]
	 SCS Total Energy          =    -556.0831152782411664 [Eh]
	-----------------------------------------------------------

  Dipole Moment: [D]
     X:     1.7357      Y:    -2.4692      Z:     2.1780     Total:     3.7221

*** Psi4 exiting successfully. Buy a developer a beer!
