                               Psi4 1.4a3.dev225

  ==> Input File <==

--------------------------------------------------------------------------
#psi4
#
memory 32 gb

molecule  {
0 1
  O        0.3130990     2.3704440    -1.0483590
  N        1.7883250     1.2487180     0.2800910
  C        1.5287440    -1.3320340    -0.8115580
  C        2.5082430    -1.1273300     0.3546920
  C        0.0936770    -1.0844130    -0.4156830
  C       -0.3593510     0.2288580    -0.1728470
  C        2.1043503     0.1143955     1.1345450
  C       -1.6973100     0.4876920     0.1815770
  C        0.5874820     1.3794060    -0.3635620
  C       -0.8057180    -2.1460500    -0.2745700
  C       -2.5635920    -0.6025190     0.3218070
  C       -2.1294290    -1.9083920     0.0915650
  C       -2.2005820     1.8899870     0.4130340
  H        1.6305660    -2.3487650    -1.2074160
  H        1.8022820    -0.6509930    -1.6251500
  H        2.4785080    -1.9866810     1.0363320
  H        3.5296620    -1.0584230    -0.0385230
  H        1.3070990    -0.0748920     1.8087120
  H        2.9845300     0.4555350     1.7739000
  H        2.4430930     2.0063180     0.1171350
  H       -0.4670580    -3.1628320    -0.4675050
  H       -3.5988730    -0.4222000     0.6058720
  H       -2.8229980    -2.7393000     0.2003190
  H       -1.5534710     2.4410460     1.1016880
  H       -2.2209110     2.4548110    -0.5213210
  H       -3.2087000     1.8617690     0.8360960
units angstrom
no_reorient  #important for SAPT in psi4, default
symmetry c1  #important for SAPT in psi4, default
}

set PROPERTIES_ORIGIN ["COM"]
properties('MP2/aug-cc-pvtz', properties = ['dipole'])
--------------------------------------------------------------------------

    Molecular point group: c1
  Charge       = 0
  Multiplicity = 1
  Basis Set: AUG-CC-PVTZ
    Blend: AUG-CC-PVTZ
  Basis Set: (AUG-CC-PVTZ AUX)
    Blend: AUG-CC-PVTZ-JKFIT

    Orbital Energies [Eh]
    ---------------------

    Doubly Occupied:

       1A    -20.512416     2A    -15.583290     3A    -11.349346
       4A    -11.275534     5A    -11.254437     6A    -11.253689
       7A    -11.244589     8A    -11.242190     9A    -11.237863
      10A    -11.237264    11A    -11.235528    12A    -11.232944
      13A    -11.216055    14A     -1.367504    15A     -1.236195
      16A     -1.163882    17A     -1.085795    18A     -1.045105
      19A     -1.028850    20A     -0.943446    21A     -0.932563
      22A     -0.872760    23A     -0.831805    24A     -0.784488
      25A     -0.771151    26A     -0.694163    27A     -0.684979
      28A     -0.660608    29A     -0.655933    30A     -0.621443
      31A     -0.613602    32A     -0.592865    33A     -0.583296
      34A     -0.569585    35A     -0.566952    36A     -0.553335
      37A     -0.532095    38A     -0.530724    39A     -0.513783
      40A     -0.505641    41A     -0.484949    42A     -0.479505
      43A     -0.474405    44A     -0.416820    45A     -0.387617
      46A     -0.336683    47A     -0.327734

  @DF-RHF Final Energy:  -553.63982117047385

   => Energetics <=

    Nuclear Repulsion Energy =            796.6885357252998574
    One-Electron Energy =               -2333.2059029166985056
    Two-Electron Energy =                 982.8775460209246830
    Total Energy =                       -553.6398211704738515
  Basis Set: (AUG-CC-PVTZ AUX)
    Blend: AUG-CC-PVTZ-RI
    Molecular point group: c1

    Geometry (in Angstrom), charge = 0, multiplicity = 1:

       Center              X                  Y                   Z               Mass
    ------------   -----------------  -----------------  -----------------  -----------------
         O            0.329261411060     2.353617551610    -1.027286372837    15.994914619570
         N            1.804487411060     1.231891551610     0.301163627163    14.003074004430
         C            1.544906411060    -1.348860448390    -0.790485372837    12.000000000000
         C            2.524405411060    -1.144156448390     0.375764627163    12.000000000000
         C            0.109839411060    -1.101239448390    -0.394610372837    12.000000000000
         C           -0.343188588940     0.212031551610    -0.151774372837    12.000000000000
         C            2.120512711060     0.097569051610     1.155617627163    12.000000000000
         C           -1.681147588940     0.470865551610     0.202649627163    12.000000000000
         C            0.603644411060     1.362579551610    -0.342489372837    12.000000000000
         C           -0.789555588940    -2.162876448390    -0.253497372837    12.000000000000
         C           -2.547429588940    -0.619345448390     0.342879627163    12.000000000000
         C           -2.113266588940    -1.925218448390     0.112637627163    12.000000000000
         C           -2.184419588940     1.873160551610     0.434106627163    12.000000000000
         H            1.646728411060    -2.365591448390    -1.186343372837     1.007825032230
         H            1.818444411060    -0.667819448390    -1.604077372837     1.007825032230
         H            2.494670411060    -2.003507448390     1.057404627163     1.007825032230
         H            3.545824411060    -1.075249448390    -0.017450372837     1.007825032230
         H            1.323261411060    -0.091718448390     1.829784627163     1.007825032230
         H            3.000692411060     0.438708551610     1.794972627163     1.007825032230
         H            2.459255411060     1.989491551610     0.138207627163     1.007825032230
         H           -0.450895588940    -3.179658448390    -0.446432372837     1.007825032230
         H           -3.582710588940    -0.439026448390     0.626944627163     1.007825032230
         H           -2.806835588940    -2.756126448390     0.221391627163     1.007825032230
         H           -1.537308588940     2.424219551610     1.122760627163     1.007825032230
         H           -2.204748588940     2.437984551610    -0.500248372837     1.007825032230
         H           -3.192537588940     1.844942551610     0.857168627163     1.007825032230

  Basis Set: AUG-CC-PVTZ
    Blend: AUG-CC-PVTZ
  Basis Set: (AUG-CC-PVTZ AUX)
    Blend: AUG-CC-PVTZ-JKFIT
	 Reference Energy          =    -553.6398211704738515 [Eh]
	 Singles Energy            =      -0.0000000000000000 [Eh]
	 Same-Spin Energy          =      -0.6044175122345719 [Eh]
	 Opposite-Spin Energy      =      -1.9034693707927361 [Eh]
	 Correlation Energy        =      -2.5078868830273082 [Eh]
	 Total Energy              =    -556.1477080535011055 [Eh]

	 ================> DF-SCS-MP2 Energies <==================
	-----------------------------------------------------------
	 SCS Same-Spin Scale       =       0.3333333333333333 [-]
	 SCS Opposite-Spin Scale   =       1.2000000000000000 [-]
	 SCS Same-Spin Energy      =      -0.2014725040781906 [Eh]
	 SCS Opposite-Spin Energy  =      -2.2841632449512832 [Eh]
	 SCS Correlation Energy    =      -2.4856357490294738 [Eh]
	 SCS Total Energy          =    -556.1254569195033355 [Eh]
	-----------------------------------------------------------

  Dipole Moment: [D]
     X:     1.6944      Y:    -2.5605      Z:     2.1954     Total:     3.7745

*** Psi4 exiting successfully. Buy a developer a beer!
