                               Psi4 1.4a3.dev225

  ==> Input File <==

--------------------------------------------------------------------------
#psi4
#
memory 32 gb

molecule  {
0 1
  O        0.3130990     2.3704440    -1.0483590
  N        1.7883250     1.2487180     0.2800910
  C        1.5493469    -1.1756450    -0.8031780
  C        2.5082430    -1.1273300     0.3546920
  C        0.0936770    -1.0844130    -0.4156830
  C       -0.3593510     0.2288580    -0.1728470
  C        2.1500350     0.1348000     1.1432270
  C       -1.6973100     0.4876920     0.1815770
  C        0.5874820     1.3794060    -0.3635620
  C       -0.8057180    -2.1460500    -0.2745700
  C       -2.5635920    -0.6025190     0.3218070
  C       -2.1294290    -1.9083920     0.0915650
  C       -2.2005820     1.8899870     0.4130340
  H        1.6305660    -2.3487650    -1.2074160
  H        1.8022820    -0.6509930    -1.6251500
  H        2.4785080    -1.9866810     1.0363320
  H        3.5296620    -1.0584230    -0.0385230
  H        1.3070990    -0.0748920     1.8087120
  H        2.9845300     0.4555350     1.7739000
  H        2.4430930     2.0063180     0.1171350
  H       -0.4670580    -3.1628320    -0.4675050
  H       -3.5988730    -0.4222000     0.6058720
  H       -2.8229980    -2.7393000     0.2003190
  H       -1.5534710     2.4410460     1.1016880
  H       -2.2209110     2.4548110    -0.5213210
  H       -3.2087000     1.8617690     0.8360960
units angstrom
no_reorient  #important for SAPT in psi4, default
symmetry c1  #important for SAPT in psi4, default
}

set PROPERTIES_ORIGIN ["COM"]
properties('MP2/aug-cc-pvtz', properties = ['dipole'])
--------------------------------------------------------------------------

    Molecular point group: c1
  Charge       = 0
  Multiplicity = 1
  Basis Set: AUG-CC-PVTZ
    Blend: AUG-CC-PVTZ
  Basis Set: (AUG-CC-PVTZ AUX)
    Blend: AUG-CC-PVTZ-JKFIT

    Orbital Energies [Eh]
    ---------------------

    Doubly Occupied:

       1A    -20.513854     2A    -15.583919     3A    -11.351256
       4A    -11.273360     5A    -11.255408     6A    -11.252874
       7A    -11.245588     8A    -11.242544     9A    -11.240781
      10A    -11.238249    11A    -11.238055    12A    -11.233744
      13A    -11.215818    14A     -1.368822    15A     -1.237878
      16A     -1.164426    17A     -1.088425    18A     -1.046203
      19A     -1.031401    20A     -0.940129    21A     -0.935537
      22A     -0.873784    23A     -0.834881    24A     -0.787153
      25A     -0.768249    26A     -0.695574    27A     -0.681788
      28A     -0.669836    29A     -0.659147    30A     -0.622734
      31A     -0.614206    32A     -0.593039    33A     -0.586655
      34A     -0.569772    35A     -0.566787    36A     -0.551323
      37A     -0.542265    38A     -0.526625    39A     -0.516561
      40A     -0.505406    41A     -0.487480    42A     -0.475861
      43A     -0.452227    44A     -0.418754    45A     -0.387029
      46A     -0.337752    47A     -0.328891

  @DF-RHF Final Energy:  -553.61564664436912

   => Energetics <=

    Nuclear Repulsion Energy =            797.6642385072052548
    One-Electron Energy =               -2335.0556725163360170
    Two-Electron Energy =                 983.7757873647616407
    Total Energy =                       -553.6156466443691215
  Basis Set: (AUG-CC-PVTZ AUX)
    Blend: AUG-CC-PVTZ-RI
    Molecular point group: c1

    Geometry (in Angstrom), charge = 0, multiplicity = 1:

       Center              X                  Y                   Z               Mass
    ------------   -----------------  -----------------  -----------------  -----------------
         O            0.324718564121     2.341501472429    -1.028455672291    15.994914619570
         N            1.799944564121     1.219775472429     0.299994327709    14.003074004430
         C            1.560966464121    -1.204587527571    -0.783274672291    12.000000000000
         C            2.519862564121    -1.156272527571     0.374595327709    12.000000000000
         C            0.105296564121    -1.113355527571    -0.395779672291    12.000000000000
         C           -0.347731435879     0.199915472429    -0.152943672291    12.000000000000
         C            2.161654564121     0.105857472429     1.163130327709    12.000000000000
         C           -1.685690435879     0.458749472429     0.201480327709    12.000000000000
         C            0.599101564121     1.350463472429    -0.343658672291    12.000000000000
         C           -0.794098435879    -2.174992527571    -0.254666672291    12.000000000000
         C           -2.551972435879    -0.631461527571     0.341710327709    12.000000000000
         C           -2.117809435879    -1.937334527571     0.111468327709    12.000000000000
         C           -2.188962435879     1.861044472429     0.432937327709    12.000000000000
         H            1.642185564121    -2.377707527571    -1.187512672291     1.007825032230
         H            1.813901564121    -0.679935527571    -1.605246672291     1.007825032230
         H            2.490127564121    -2.015623527571     1.056235327709     1.007825032230
         H            3.541281564121    -1.087365527571    -0.018619672291     1.007825032230
         H            1.318718564121    -0.103834527571     1.828615327709     1.007825032230
         H            2.996149564121     0.426592472429     1.793803327709     1.007825032230
         H            2.454712564121     1.977375472429     0.137038327709     1.007825032230
         H           -0.455438435879    -3.191774527571    -0.447601672291     1.007825032230
         H           -3.587253435879    -0.451142527571     0.625775327709     1.007825032230
         H           -2.811378435879    -2.768242527571     0.220222327709     1.007825032230
         H           -1.541851435879     2.412103472429     1.121591327709     1.007825032230
         H           -2.209291435879     2.425868472429    -0.501417672291     1.007825032230
         H           -3.197080435879     1.832826472429     0.855999327709     1.007825032230

  Basis Set: AUG-CC-PVTZ
    Blend: AUG-CC-PVTZ
  Basis Set: (AUG-CC-PVTZ AUX)
    Blend: AUG-CC-PVTZ-JKFIT
	 Reference Energy          =    -553.6156466443691215 [Eh]
	 Singles Energy            =      -0.0000000000000000 [Eh]
	 Same-Spin Energy          =      -0.6054583092439407 [Eh]
	 Opposite-Spin Energy      =      -1.9055017385159299 [Eh]
	 Correlation Energy        =      -2.5109600477598706 [Eh]
	 Total Energy              =    -556.1266066921290303 [Eh]

	 ================> DF-SCS-MP2 Energies <==================
	-----------------------------------------------------------
	 SCS Same-Spin Scale       =       0.3333333333333333 [-]
	 SCS Opposite-Spin Scale   =       1.2000000000000000 [-]
	 SCS Same-Spin Energy      =      -0.2018194364146469 [Eh]
	 SCS Opposite-Spin Energy  =      -2.2866020862191156 [Eh]
	 SCS Correlation Energy    =      -2.4884215226337627 [Eh]
	 SCS Total Energy          =    -556.1040681670028789 [Eh]
	-----------------------------------------------------------

  Dipole Moment: [D]
     X:     1.6862      Y:    -2.4311      Z:     2.2488     Total:     3.7162

*** Psi4 exiting successfully. Buy a developer a beer!
