                               Psi4 1.4a3.dev225

  ==> Input File <==

--------------------------------------------------------------------------
#psi4
#
memory 32 gb

molecule  {
0 1
  O        0.3130990     2.3704440    -1.0483590
  N        1.7883250     1.2487180     0.2800910
  C        1.5287440    -1.3320340    -0.8115580
  C        2.5082430    -1.1273300     0.3546920
  C        0.0936770    -1.0844130    -0.4156830
  C       -0.3593510     0.2288580    -0.1728470
  C        2.1272443     0.1244265     1.1390168
  C       -1.6973100     0.4876920     0.1815770
  C        0.5874820     1.3794060    -0.3635620
  C       -0.8057180    -2.1460500    -0.2745700
  C       -2.5635920    -0.6025190     0.3218070
  C       -2.1294290    -1.9083920     0.0915650
  C       -2.2005820     1.8899870     0.4130340
  H        1.6305660    -2.3487650    -1.2074160
  H        1.8022820    -0.6509930    -1.6251500
  H        2.4785080    -1.9866810     1.0363320
  H        3.5296620    -1.0584230    -0.0385230
  H        1.3070990    -0.0748920     1.8087120
  H        2.9845300     0.4555350     1.7739000
  H        2.4430930     2.0063180     0.1171350
  H       -0.4670580    -3.1628320    -0.4675050
  H       -3.5988730    -0.4222000     0.6058720
  H       -2.8229980    -2.7393000     0.2003190
  H       -1.5534710     2.4410460     1.1016880
  H       -2.2209110     2.4548110    -0.5213210
  H       -3.2087000     1.8617690     0.8360960
units angstrom
no_reorient  #important for SAPT in psi4, default
symmetry c1  #important for SAPT in psi4, default
}

set PROPERTIES_ORIGIN ["COM"]
properties('MP2/aug-cc-pvtz', properties = ['dipole'])
--------------------------------------------------------------------------

    Molecular point group: c1
  Charge       = 0
  Multiplicity = 1
  Basis Set: AUG-CC-PVTZ
    Blend: AUG-CC-PVTZ
  Basis Set: (AUG-CC-PVTZ AUX)
    Blend: AUG-CC-PVTZ-JKFIT

    Orbital Energies [Eh]
    ---------------------

    Doubly Occupied:

       1A    -20.512546     2A    -15.583133     3A    -11.349815
       4A    -11.275136     5A    -11.254361     6A    -11.253577
       7A    -11.244484     8A    -11.242080     9A    -11.238025
      10A    -11.237310    11A    -11.235391    12A    -11.232808
      13A    -11.215969    14A     -1.367533    15A     -1.235750
      16A     -1.163774    17A     -1.085192    18A     -1.044909
      19A     -1.028779    20A     -0.943260    21A     -0.932863
      22A     -0.873177    23A     -0.830889    24A     -0.784696
      25A     -0.770485    26A     -0.693973    27A     -0.683723
      28A     -0.660003    29A     -0.657591    30A     -0.620336
      31A     -0.614519    32A     -0.592004    33A     -0.583582
      34A     -0.569824    35A     -0.566575    36A     -0.553211
      37A     -0.531395    38A     -0.530810    39A     -0.514026
      40A     -0.505574    41A     -0.486997    42A     -0.479418
      43A     -0.474250    44A     -0.417136    45A     -0.386893
      46A     -0.336556    47A     -0.327616

  @DF-RHF Final Energy:  -553.64227392157352

   => Energetics <=

    Nuclear Repulsion Energy =            796.3307662205753559
    One-Electron Energy =               -2332.5021733071516792
    Two-Electron Energy =                 982.5291331650029178
    Total Energy =                       -553.6422739215735191
  Basis Set: (AUG-CC-PVTZ AUX)
    Blend: AUG-CC-PVTZ-RI
    Molecular point group: c1

    Geometry (in Angstrom), charge = 0, multiplicity = 1:

       Center              X                  Y                   Z               Mass
    ------------   -----------------  -----------------  -----------------  -----------------
         O            0.327692430771     2.352930103314    -1.027592835931    15.994914619570
         N            1.802918430771     1.231204103314     0.300857164069    14.003074004430
         C            1.543337430771    -1.349547896686    -0.790791835931    12.000000000000
         C            2.522836430771    -1.144843896686     0.375458164069    12.000000000000
         C            0.108270430771    -1.101926896686    -0.394916835931    12.000000000000
         C           -0.344757569229     0.211344103314    -0.152080835931    12.000000000000
         C            2.141837730771     0.106912603314     1.159782964069    12.000000000000
         C           -1.682716569229     0.470178103314     0.202343164069    12.000000000000
         C            0.602075430771     1.361892103314    -0.342795835931    12.000000000000
         C           -0.791124569229    -2.163563896686    -0.253803835931    12.000000000000
         C           -2.548998569229    -0.620032896686     0.342573164069    12.000000000000
         C           -2.114835569229    -1.925905896686     0.112331164069    12.000000000000
         C           -2.185988569229     1.872473103314     0.433800164069    12.000000000000
         H            1.645159430771    -2.366278896686    -1.186649835931     1.007825032230
         H            1.816875430771    -0.668506896686    -1.604383835931     1.007825032230
         H            2.493101430771    -2.004194896686     1.057098164069     1.007825032230
         H            3.544255430771    -1.075936896686    -0.017756835931     1.007825032230
         H            1.321692430771    -0.092405896686     1.829478164069     1.007825032230
         H            2.999123430771     0.438021103314     1.794666164069     1.007825032230
         H            2.457686430771     1.988804103314     0.137901164069     1.007825032230
         H           -0.452464569229    -3.180345896686    -0.446738835931     1.007825032230
         H           -3.584279569229    -0.439713896686     0.626638164069     1.007825032230
         H           -2.808404569229    -2.756813896686     0.221085164069     1.007825032230
         H           -1.538877569229     2.423532103314     1.122454164069     1.007825032230
         H           -2.206317569229     2.437297103314    -0.500554835931     1.007825032230
         H           -3.194106569229     1.844255103314     0.856862164069     1.007825032230

  Basis Set: AUG-CC-PVTZ
    Blend: AUG-CC-PVTZ
  Basis Set: (AUG-CC-PVTZ AUX)
    Blend: AUG-CC-PVTZ-JKFIT
	 Reference Energy          =    -553.6422739215735191 [Eh]
	 Singles Energy            =      -0.0000000000000000 [Eh]
	 Same-Spin Energy          =      -0.6042826736685876 [Eh]
	 Opposite-Spin Energy      =      -1.9032292442670293 [Eh]
	 Correlation Energy        =      -2.5075119179356169 [Eh]
	 Total Energy              =    -556.1497858395091498 [Eh]

	 ================> DF-SCS-MP2 Energies <==================
	-----------------------------------------------------------
	 SCS Same-Spin Scale       =       0.3333333333333333 [-]
	 SCS Opposite-Spin Scale   =       1.2000000000000000 [-]
	 SCS Same-Spin Energy      =      -0.2014275578895292 [Eh]
	 SCS Opposite-Spin Energy  =      -2.2838750931204350 [Eh]
	 SCS Correlation Energy    =      -2.4853026510099641 [Eh]
	 SCS Total Energy          =    -556.1275765725835072 [Eh]
	-----------------------------------------------------------

  Dipole Moment: [D]
     X:     1.7123      Y:    -2.5500      Z:     2.2017     Total:     3.7791

*** Psi4 exiting successfully. Buy a developer a beer!
