                               Psi4 1.4a3.dev225

  ==> Input File <==

--------------------------------------------------------------------------
#psi4
#
memory 32 gb

molecule  {
0 1
  O        0.3130990     2.3704440    -1.0483590
  N        1.7883250     1.2487180     0.2800910
  C        1.5287440    -1.3320340    -0.8115580
  C        2.5082430    -1.1273300     0.3546920
  C        0.0936770    -1.0844130    -0.4156830
  C       -0.3593510     0.2288580    -0.1728470
  C        2.1952790     0.1565616     1.1508574
  C       -1.6973100     0.4876920     0.1815770
  C        0.5874820     1.3794060    -0.3635620
  C       -0.8057180    -2.1460500    -0.2745700
  C       -2.5635920    -0.6025190     0.3218070
  C       -2.1294290    -1.9083920     0.0915650
  C       -2.2005820     1.8899870     0.4130340
  H        1.6305660    -2.3487650    -1.2074160
  H        1.8022820    -0.6509930    -1.6251500
  H        2.4785080    -1.9866810     1.0363320
  H        3.5296620    -1.0584230    -0.0385230
  H        1.3070990    -0.0748920     1.8087120
  H        2.9845300     0.4555350     1.7739000
  H        2.4430930     2.0063180     0.1171350
  H       -0.4670580    -3.1628320    -0.4675050
  H       -3.5988730    -0.4222000     0.6058720
  H       -2.8229980    -2.7393000     0.2003190
  H       -1.5534710     2.4410460     1.1016880
  H       -2.2209110     2.4548110    -0.5213210
  H       -3.2087000     1.8617690     0.8360960
units angstrom
no_reorient  #important for SAPT in psi4, default
symmetry c1  #important for SAPT in psi4, default
}

set PROPERTIES_ORIGIN ["COM"]
properties('MP2/aug-cc-pvtz', properties = ['dipole'])
--------------------------------------------------------------------------

    Molecular point group: c1
  Charge       = 0
  Multiplicity = 1
  Basis Set: AUG-CC-PVTZ
    Blend: AUG-CC-PVTZ
  Basis Set: (AUG-CC-PVTZ AUX)
    Blend: AUG-CC-PVTZ-JKFIT

    Orbital Energies [Eh]
    ---------------------

    Doubly Occupied:

       1A    -20.513104     2A    -15.583171     3A    -11.351459
       4A    -11.274984     5A    -11.254270     6A    -11.253367
       7A    -11.244290     8A    -11.241913     9A    -11.238860
      10A    -11.237865    11A    -11.235103    12A    -11.232520
      13A    -11.215796    14A     -1.367824    15A     -1.234787
      16A     -1.163607    17A     -1.083567    18A     -1.044467
      19A     -1.028604    20A     -0.943240    21A     -0.934176
      22A     -0.874603    23A     -0.828933    24A     -0.785279
      25A     -0.768746    26A     -0.694584    27A     -0.682878
      28A     -0.663460    29A     -0.658001    30A     -0.619353
      31A     -0.615759    32A     -0.589090    33A     -0.584065
      34A     -0.570597    35A     -0.565044    36A     -0.552852
      37A     -0.533204    38A     -0.529705    39A     -0.512502
      40A     -0.504517    41A     -0.491708    42A     -0.479021
      43A     -0.472340    44A     -0.418170    45A     -0.384002
      46A     -0.336273    47A     -0.327374

  @DF-RHF Final Energy:  -553.64031663750745

   => Energetics <=

    Nuclear Repulsion Energy =            795.2732526173588212
    One-Electron Energy =               -2330.3890735127779408
    Two-Electron Energy =                 981.4755042579116662
    Total Energy =                       -553.6403166375074534
  Basis Set: (AUG-CC-PVTZ AUX)
    Blend: AUG-CC-PVTZ-RI
    Molecular point group: c1

    Geometry (in Angstrom), charge = 0, multiplicity = 1:

       Center              X                  Y                   Z               Mass
    ------------   -----------------  -----------------  -----------------  -----------------
         O            0.323029850912     2.350727808456    -1.028404300420    15.994914619570
         N            1.798255850912     1.229001808456     0.300045699580    14.003074004430
         C            1.538674850912    -1.351750191544    -0.791603300420    12.000000000000
         C            2.518173850912    -1.147046191544     0.374646699580    12.000000000000
         C            0.103607850912    -1.104129191544    -0.395728300420    12.000000000000
         C           -0.349420149088     0.209141808456    -0.152892300420    12.000000000000
         C            2.205209850912     0.136845408456     1.170812099580    12.000000000000
         C           -1.687379149088     0.467975808456     0.201531699580    12.000000000000
         C            0.597412850912     1.359689808456    -0.343607300420    12.000000000000
         C           -0.795787149088    -2.165766191544    -0.254615300420    12.000000000000
         C           -2.553661149088    -0.622235191544     0.341761699580    12.000000000000
         C           -2.119498149088    -1.928108191544     0.111519699580    12.000000000000
         C           -2.190651149088     1.870270808456     0.432988699580    12.000000000000
         H            1.640496850912    -2.368481191544    -1.187461300420     1.007825032230
         H            1.812212850912    -0.670709191544    -1.605195300420     1.007825032230
         H            2.488438850912    -2.006397191544     1.056286699580     1.007825032230
         H            3.539592850912    -1.078139191544    -0.018568300420     1.007825032230
         H            1.317029850912    -0.094608191544     1.828666699580     1.007825032230
         H            2.994460850912     0.435818808456     1.793854699580     1.007825032230
         H            2.453023850912     1.986601808456     0.137089699580     1.007825032230
         H           -0.457127149088    -3.182548191544    -0.447550300420     1.007825032230
         H           -3.588942149088    -0.441916191544     0.625826699580     1.007825032230
         H           -2.813067149088    -2.759016191544     0.220273699580     1.007825032230
         H           -1.543540149088     2.421329808456     1.121642699580     1.007825032230
         H           -2.210980149088     2.435094808456    -0.501366300420     1.007825032230
         H           -3.198769149088     1.842052808456     0.856050699580     1.007825032230

  Basis Set: AUG-CC-PVTZ
    Blend: AUG-CC-PVTZ
  Basis Set: (AUG-CC-PVTZ AUX)
    Blend: AUG-CC-PVTZ-JKFIT
	 Reference Energy          =    -553.6403166375074534 [Eh]
	 Singles Energy            =      -0.0000000000000000 [Eh]
	 Same-Spin Energy          =      -0.6040925305948976 [Eh]
	 Opposite-Spin Energy      =      -1.9030677446143249 [Eh]
	 Correlation Energy        =      -2.5071602752092224 [Eh]
	 Total Energy              =    -556.1474769127166837 [Eh]

	 ================> DF-SCS-MP2 Energies <==================
	-----------------------------------------------------------
	 SCS Same-Spin Scale       =       0.3333333333333333 [-]
	 SCS Opposite-Spin Scale   =       1.2000000000000000 [-]
	 SCS Same-Spin Energy      =      -0.2013641768649659 [Eh]
	 SCS Opposite-Spin Energy  =      -2.2836812935371897 [Eh]
	 SCS Correlation Energy    =      -2.4850454704021554 [Eh]
	 SCS Total Energy          =    -556.1253621079096092 [Eh]
	-----------------------------------------------------------

  Dipole Moment: [D]
     X:     1.7530      Y:    -2.5177      Z:     2.2017     Total:     3.7761

*** Psi4 exiting successfully. Buy a developer a beer!
