                               Psi4 1.4a3.dev225

  ==> Input File <==

--------------------------------------------------------------------------
#psi4
#
memory 32 gb

molecule  {
0 1
  O        0.3130990     2.3704440    -1.0483590
  N        1.7883250     1.2487180     0.2800910
  C        1.4924182    -1.4857100    -0.8156007
  C        2.5082430    -1.1273300     0.3546920
  C        0.0936770    -1.0844130    -0.4156830
  C       -0.3593510     0.2288580    -0.1728470
  C        2.1500350     0.1348000     1.1432270
  C       -1.6973100     0.4876920     0.1815770
  C        0.5874820     1.3794060    -0.3635620
  C       -0.8057180    -2.1460500    -0.2745700
  C       -2.5635920    -0.6025190     0.3218070
  C       -2.1294290    -1.9083920     0.0915650
  C       -2.2005820     1.8899870     0.4130340
  H        1.6305660    -2.3487650    -1.2074160
  H        1.8022820    -0.6509930    -1.6251500
  H        2.4785080    -1.9866810     1.0363320
  H        3.5296620    -1.0584230    -0.0385230
  H        1.3070990    -0.0748920     1.8087120
  H        2.9845300     0.4555350     1.7739000
  H        2.4430930     2.0063180     0.1171350
  H       -0.4670580    -3.1628320    -0.4675050
  H       -3.5988730    -0.4222000     0.6058720
  H       -2.8229980    -2.7393000     0.2003190
  H       -1.5534710     2.4410460     1.1016880
  H       -2.2209110     2.4548110    -0.5213210
  H       -3.2087000     1.8617690     0.8360960
units angstrom
no_reorient  #important for SAPT in psi4, default
symmetry c1  #important for SAPT in psi4, default
}

set PROPERTIES_ORIGIN ["COM"]
properties('MP2/aug-cc-pvtz', properties = ['dipole'])
--------------------------------------------------------------------------

    Molecular point group: c1
  Charge       = 0
  Multiplicity = 1
  Basis Set: AUG-CC-PVTZ
    Blend: AUG-CC-PVTZ
  Basis Set: (AUG-CC-PVTZ AUX)
    Blend: AUG-CC-PVTZ-JKFIT

    Orbital Energies [Eh]
    ---------------------

    Doubly Occupied:

       1A    -20.512331     2A    -15.583095     3A    -11.350180
       4A    -11.277421     5A    -11.256571     6A    -11.254802
       7A    -11.244190     8A    -11.243733     9A    -11.240841
      10A    -11.240193    11A    -11.232921    12A    -11.232096
      13A    -11.216488    14A     -1.367200    15A     -1.234385
      16A     -1.164122    17A     -1.082583    18A     -1.043545
      19A     -1.027092    20A     -0.949411    21A     -0.932348
      22A     -0.874127    23A     -0.827162    24A     -0.792608
      25A     -0.772076    26A     -0.693109    27A     -0.685236
      28A     -0.661695    29A     -0.653375    30A     -0.630600
      31A     -0.613486    32A     -0.589075    33A     -0.580526
      34A     -0.577928    35A     -0.565303    36A     -0.559049
      37A     -0.531650    38A     -0.525042    39A     -0.513988
      40A     -0.505345    41A     -0.497334    42A     -0.470376
      43A     -0.462296    44A     -0.416525    45A     -0.385928
      46A     -0.335904    47A     -0.325249

  @DF-RHF Final Energy:  -553.61319608720237

   => Energetics <=

    Nuclear Repulsion Energy =            794.4433242809491276
    One-Electron Energy =               -2328.6519593248399360
    Two-Electron Energy =                 980.5954389566884402
    Total Energy =                       -553.6131960872023683
  Basis Set: (AUG-CC-PVTZ AUX)
    Blend: AUG-CC-PVTZ-RI
    Molecular point group: c1

    Geometry (in Angstrom), charge = 0, multiplicity = 1:

       Center              X                  Y                   Z               Mass
    ------------   -----------------  -----------------  -----------------  -----------------
         O            0.328620023377     2.362750964584    -1.027604315104    15.994914619570
         N            1.803846023377     1.241024964584     0.300845684896    14.003074004430
         C            1.507939223377    -1.493403035416    -0.794846015104    12.000000000000
         C            2.523764023377    -1.135023035416     0.375446684896    12.000000000000
         C            0.109198023377    -1.092106035416    -0.394928315104    12.000000000000
         C           -0.343829976623     0.221164964584    -0.152092315104    12.000000000000
         C            2.165556023377     0.127106964584     1.163981684896    12.000000000000
         C           -1.681788976623     0.479998964584     0.202331684896    12.000000000000
         C            0.603003023377     1.371712964584    -0.342807315104    12.000000000000
         C           -0.790196976623    -2.153743035416    -0.253815315104    12.000000000000
         C           -2.548070976623    -0.610212035416     0.342561684896    12.000000000000
         C           -2.113907976623    -1.916085035416     0.112319684896    12.000000000000
         C           -2.185060976623     1.882293964584     0.433788684896    12.000000000000
         H            1.646087023377    -2.356458035416    -1.186661315104     1.007825032230
         H            1.817803023377    -0.658686035416    -1.604395315104     1.007825032230
         H            2.494029023377    -1.994374035416     1.057086684896     1.007825032230
         H            3.545183023377    -1.066116035416    -0.017768315104     1.007825032230
         H            1.322620023377    -0.082585035416     1.829466684896     1.007825032230
         H            3.000051023377     0.447841964584     1.794654684896     1.007825032230
         H            2.458614023377     1.998624964584     0.137889684896     1.007825032230
         H           -0.451536976623    -3.170525035416    -0.446750315104     1.007825032230
         H           -3.583351976623    -0.429893035416     0.626626684896     1.007825032230
         H           -2.807476976623    -2.746993035416     0.221073684896     1.007825032230
         H           -1.537949976623     2.433352964584     1.122442684896     1.007825032230
         H           -2.205389976623     2.447117964584    -0.500566315104     1.007825032230
         H           -3.193178976623     1.854075964584     0.856850684896     1.007825032230

  Basis Set: AUG-CC-PVTZ
    Blend: AUG-CC-PVTZ
  Basis Set: (AUG-CC-PVTZ AUX)
    Blend: AUG-CC-PVTZ-JKFIT
	 Reference Energy          =    -553.6131960872023683 [Eh]
	 Singles Energy            =      -0.0000000000000000 [Eh]
	 Same-Spin Energy          =      -0.6042511313498011 [Eh]
	 Opposite-Spin Energy      =      -1.9040541077715074 [Eh]
	 Correlation Energy        =      -2.5083052391213085 [Eh]
	 Total Energy              =    -556.1215013263237097 [Eh]

	 ================> DF-SCS-MP2 Energies <==================
	-----------------------------------------------------------
	 SCS Same-Spin Scale       =       0.3333333333333333 [-]
	 SCS Opposite-Spin Scale   =       1.2000000000000000 [-]
	 SCS Same-Spin Energy      =      -0.2014170437832670 [Eh]
	 SCS Opposite-Spin Energy  =      -2.2848649293258090 [Eh]
	 SCS Correlation Energy    =      -2.4862819731090759 [Eh]
	 SCS Total Energy          =    -556.0994780603114123 [Eh]
	-----------------------------------------------------------

  Dipole Moment: [D]
     X:     1.7280      Y:    -2.5825      Z:     2.2403     Total:     3.8306

*** Psi4 exiting successfully. Buy a developer a beer!
