                               Psi4 1.4a3.dev225

  ==> Input File <==

--------------------------------------------------------------------------
#psi4
#
memory 32 gb

molecule  {
0 1
  O        0.3130990     2.3704440    -1.0483590
  N        1.7883250     1.2487180     0.2800910
  C        1.5287440    -1.3320340    -0.8115580
  C        2.5082430    -1.1273300     0.3546920
  C        0.0936770    -1.0844130    -0.4156830
  C       -0.3593510     0.2288580    -0.1728470
  C        2.1500350     0.1348000     1.1432270
  C       -1.6973100     0.4876920     0.1815770
  C        0.5874820     1.3794060    -0.3635620
  C       -0.8057180    -2.1460500    -0.2745700
  C       -2.5635920    -0.6025190     0.3218070
  C       -2.1769138    -1.8998666     0.1046992
  C       -2.2005820     1.8899870     0.4130340
  H        1.6305660    -2.3487650    -1.2074160
  H        1.8022820    -0.6509930    -1.6251500
  H        2.4785080    -1.9866810     1.0363320
  H        3.5296620    -1.0584230    -0.0385230
  H        1.3070990    -0.0748920     1.8087120
  H        2.9845300     0.4555350     1.7739000
  H        2.4430930     2.0063180     0.1171350
  H       -0.4670580    -3.1628320    -0.4675050
  H       -3.5988730    -0.4222000     0.6058720
  H       -2.8229980    -2.7393000     0.2003190
  H       -1.5534710     2.4410460     1.1016880
  H       -2.2209110     2.4548110    -0.5213210
  H       -3.2087000     1.8617690     0.8360960
units angstrom
no_reorient  #important for SAPT in psi4, default
symmetry c1  #important for SAPT in psi4, default
}

set PROPERTIES_ORIGIN ["COM"]
properties('MP2/aug-cc-pvtz', properties = ['dipole'])
--------------------------------------------------------------------------

    Molecular point group: c1
  Charge       = 0
  Multiplicity = 1
  Basis Set: AUG-CC-PVTZ
    Blend: AUG-CC-PVTZ
  Basis Set: (AUG-CC-PVTZ AUX)
    Blend: AUG-CC-PVTZ-JKFIT

    Orbital Energies [Eh]
    ---------------------

    Doubly Occupied:

       1A    -20.512775     2A    -15.582988     3A    -11.350343
       4A    -11.274813     5A    -11.254514     6A    -11.253441
       7A    -11.245147     8A    -11.242276     9A    -11.239579
      10A    -11.237893    11A    -11.237032    12A    -11.231318
      13A    -11.216392    14A     -1.367627    15A     -1.235322
      16A     -1.161919    17A     -1.085144    18A     -1.040896
      19A     -1.030252    20A     -0.943102    21A     -0.933197
      22A     -0.872276    23A     -0.831831    24A     -0.784254
      25A     -0.770677    26A     -0.692977    27A     -0.682440
      28A     -0.663589    29A     -0.658486    30A     -0.618951
      31A     -0.614265    32A     -0.595096    33A     -0.583789
      34A     -0.569713    35A     -0.563945    36A     -0.552879
      37A     -0.531349    38A     -0.527476    39A     -0.515081
      40A     -0.508843    41A     -0.489782    42A     -0.477684
      43A     -0.470464    44A     -0.417715    45A     -0.386040
      46A     -0.338654    47A     -0.324207

  @DF-RHF Final Energy:  -553.63995608118796

   => Energetics <=

    Nuclear Repulsion Energy =            795.3904917187895762
    One-Electron Energy =               -2330.6240371121934913
    Two-Electron Energy =                 981.5935893122158404
    Total Energy =                       -553.6399560811879610
  Basis Set: (AUG-CC-PVTZ AUX)
    Blend: AUG-CC-PVTZ-RI
    Molecular point group: c1

    Geometry (in Angstrom), charge = 0, multiplicity = 1:

       Center              X                  Y                   Z               Mass
    ------------   -----------------  -----------------  -----------------  -----------------
         O            0.329384776196     2.351634916733    -1.028781488928    15.994914619570
         N            1.804610776196     1.229908916733     0.299668511072    14.003074004430
         C            1.545029776196    -1.350843083267    -0.791980488928    12.000000000000
         C            2.524528776196    -1.146139083267     0.374269511072    12.000000000000
         C            0.109962776196    -1.103222083267    -0.396105488928    12.000000000000
         C           -0.343065223804     0.210048916733    -0.153269488928    12.000000000000
         C            2.166320776196     0.115990916733     1.162804511072    12.000000000000
         C           -1.681024223804     0.468882916733     0.201154511072    12.000000000000
         C            0.603767776196     1.360596916733    -0.343984488928    12.000000000000
         C           -0.789432223804    -2.164859083267    -0.254992488928    12.000000000000
         C           -2.547306223804    -0.621328083267     0.341384511072    12.000000000000
         C           -2.160628023804    -1.918675683267     0.124276711072    12.000000000000
         C           -2.184296223804     1.871177916733     0.432611511072    12.000000000000
         H            1.646851776196    -2.367574083267    -1.187838488928     1.007825032230
         H            1.818567776196    -0.669802083267    -1.605572488928     1.007825032230
         H            2.494793776196    -2.005490083267     1.055909511072     1.007825032230
         H            3.545947776196    -1.077232083267    -0.018945488928     1.007825032230
         H            1.323384776196    -0.093701083267     1.828289511072     1.007825032230
         H            3.000815776196     0.436725916733     1.793477511072     1.007825032230
         H            2.459378776196     1.987508916733     0.136712511072     1.007825032230
         H           -0.450772223804    -3.181641083267    -0.447927488928     1.007825032230
         H           -3.582587223804    -0.441009083267     0.625449511072     1.007825032230
         H           -2.806712223804    -2.758109083267     0.219896511072     1.007825032230
         H           -1.537185223804     2.422236916733     1.121265511072     1.007825032230
         H           -2.204625223804     2.436001916733    -0.501743488928     1.007825032230
         H           -3.192414223804     1.842959916733     0.855673511072     1.007825032230

  Basis Set: AUG-CC-PVTZ
    Blend: AUG-CC-PVTZ
  Basis Set: (AUG-CC-PVTZ AUX)
    Blend: AUG-CC-PVTZ-JKFIT
	 Reference Energy          =    -553.6399560811879610 [Eh]
	 Singles Energy            =      -0.0000000000000000 [Eh]
	 Same-Spin Energy          =      -0.6041432362741395 [Eh]
	 Opposite-Spin Energy      =      -1.9034291151986880 [Eh]
	 Correlation Energy        =      -2.5075723514728274 [Eh]
	 Total Energy              =    -556.1475284326608062 [Eh]

	 ================> DF-SCS-MP2 Energies <==================
	-----------------------------------------------------------
	 SCS Same-Spin Scale       =       0.3333333333333333 [-]
	 SCS Opposite-Spin Scale   =       1.2000000000000000 [-]
	 SCS Same-Spin Energy      =      -0.2013810787580465 [Eh]
	 SCS Opposite-Spin Energy  =      -2.2841149382384254 [Eh]
	 SCS Correlation Energy    =      -2.4854960169964717 [Eh]
	 SCS Total Energy          =    -556.1254520981843825 [Eh]
	-----------------------------------------------------------

  Dipole Moment: [D]
     X:     1.7264      Y:    -2.5461      Z:     2.2051     Total:     3.7849

*** Psi4 exiting successfully. Buy a developer a beer!
