                               Psi4 1.4a3.dev225

  ==> Input File <==

--------------------------------------------------------------------------
#psi4
#
memory 32 gb

molecule  {
0 1
  O        0.3130990     2.3704440    -1.0483590
  N        1.7812539     1.2275205     0.2885360
  C        1.5287440    -1.3320340    -0.8115580
  C        2.5082430    -1.1273300     0.3546920
  C        0.0936770    -1.0844130    -0.4156830
  C       -0.3593510     0.2288580    -0.1728470
  C        2.1500350     0.1348000     1.1432270
  C       -1.6973100     0.4876920     0.1815770
  C        0.5874820     1.3794060    -0.3635620
  C       -0.8057180    -2.1460500    -0.2745700
  C       -2.5635920    -0.6025190     0.3218070
  C       -2.1294290    -1.9083920     0.0915650
  C       -2.2005820     1.8899870     0.4130340
  H        1.6305660    -2.3487650    -1.2074160
  H        1.8022820    -0.6509930    -1.6251500
  H        2.4785080    -1.9866810     1.0363320
  H        3.5296620    -1.0584230    -0.0385230
  H        1.3070990    -0.0748920     1.8087120
  H        2.9845300     0.4555350     1.7739000
  H        2.4430930     2.0063180     0.1171350
  H       -0.4670580    -3.1628320    -0.4675050
  H       -3.5988730    -0.4222000     0.6058720
  H       -2.8229980    -2.7393000     0.2003190
  H       -1.5534710     2.4410460     1.1016880
  H       -2.2209110     2.4548110    -0.5213210
  H       -3.2087000     1.8617690     0.8360960
units angstrom
no_reorient  #important for SAPT in psi4, default
symmetry c1  #important for SAPT in psi4, default
}

set PROPERTIES_ORIGIN ["COM"]
properties('MP2/aug-cc-pvtz', properties = ['dipole'])
--------------------------------------------------------------------------

    Molecular point group: c1
  Charge       = 0
  Multiplicity = 1
  Basis Set: AUG-CC-PVTZ
    Blend: AUG-CC-PVTZ
  Basis Set: (AUG-CC-PVTZ AUX)
    Blend: AUG-CC-PVTZ-JKFIT

    Orbital Energies [Eh]
    ---------------------

    Doubly Occupied:

       1A    -20.514121     2A    -15.584981     3A    -11.351124
       4A    -11.273719     5A    -11.254024     6A    -11.253103
       7A    -11.244121     8A    -11.241290     9A    -11.238007
      10A    -11.236778    11A    -11.235065    12A    -11.232457
      13A    -11.215864    14A     -1.368132    15A     -1.239288
      16A     -1.163352    17A     -1.084087    18A     -1.044243
      19A     -1.029321    20A     -0.942466    21A     -0.933928
      22A     -0.874116    23A     -0.829401    24A     -0.784856
      25A     -0.767589    26A     -0.692693    27A     -0.684949
      28A     -0.660875    29A     -0.659121    30A     -0.620540
      31A     -0.613873    32A     -0.591201    33A     -0.584315
      34A     -0.570217    35A     -0.565865    36A     -0.553252
      37A     -0.531955    38A     -0.529848    39A     -0.513822
      40A     -0.505146    41A     -0.488430    42A     -0.479153
      43A     -0.473649    44A     -0.417926    45A     -0.385681
      46A     -0.336192    47A     -0.327278

  @DF-RHF Final Energy:  -553.64147328830200

   => Energetics <=

    Nuclear Repulsion Energy =            796.3916473961716065
    One-Electron Energy =               -2332.6234063634383347
    Two-Electron Energy =                 982.5902856789646194
    Total Energy =                       -553.6414732883019951
  Basis Set: (AUG-CC-PVTZ AUX)
    Blend: AUG-CC-PVTZ-RI
    Molecular point group: c1

    Geometry (in Angstrom), charge = 0, multiplicity = 1:

       Center              X                  Y                   Z               Mass
    ------------   -----------------  -----------------  -----------------  -----------------
         O            0.326696019872     2.353914389109    -1.028556734478    15.994914619570
         N            1.794850919872     1.210990889109     0.308338265522    14.003074004430
         C            1.542341019872    -1.348563610891    -0.791755734478    12.000000000000
         C            2.521840019872    -1.143859610891     0.374494265522    12.000000000000
         C            0.107274019872    -1.100942610891    -0.395880734478    12.000000000000
         C           -0.345753980128     0.212328389109    -0.153044734478    12.000000000000
         C            2.163632019872     0.118270389109     1.163029265522    12.000000000000
         C           -1.683712980128     0.471162389109     0.201379265522    12.000000000000
         C            0.601079019872     1.362876389109    -0.343759734478    12.000000000000
         C           -0.792120980128    -2.162579610891    -0.254767734478    12.000000000000
         C           -2.549994980128    -0.619048610891     0.341609265522    12.000000000000
         C           -2.115831980128    -1.924921610891     0.111367265522    12.000000000000
         C           -2.186984980128     1.873457389109     0.432836265522    12.000000000000
         H            1.644163019872    -2.365294610891    -1.187613734478     1.007825032230
         H            1.815879019872    -0.667522610891    -1.605347734478     1.007825032230
         H            2.492105019872    -2.003210610891     1.056134265522     1.007825032230
         H            3.543259019872    -1.074952610891    -0.018720734478     1.007825032230
         H            1.320696019872    -0.091421610891     1.828514265522     1.007825032230
         H            2.998127019872     0.439005389109     1.793702265522     1.007825032230
         H            2.456690019872     1.989788389109     0.136937265522     1.007825032230
         H           -0.453460980128    -3.179361610891    -0.447702734478     1.007825032230
         H           -3.585275980128    -0.438729610891     0.625674265522     1.007825032230
         H           -2.809400980128    -2.755829610891     0.220121265522     1.007825032230
         H           -1.539873980128     2.424516389109     1.121490265522     1.007825032230
         H           -2.207313980128     2.438281389109    -0.501518734478     1.007825032230
         H           -3.195102980128     1.845239389109     0.855898265522     1.007825032230

  Basis Set: AUG-CC-PVTZ
    Blend: AUG-CC-PVTZ
  Basis Set: (AUG-CC-PVTZ AUX)
    Blend: AUG-CC-PVTZ-JKFIT
	 Reference Energy          =    -553.6414732883019951 [Eh]
	 Singles Energy            =      -0.0000000000000000 [Eh]
	 Same-Spin Energy          =      -0.6045977456376144 [Eh]
	 Opposite-Spin Energy      =      -1.9035996168676044 [Eh]
	 Correlation Energy        =      -2.5081973625052187 [Eh]
	 Total Energy              =    -556.1496706508072521 [Eh]

	 ================> DF-SCS-MP2 Energies <==================
	-----------------------------------------------------------
	 SCS Same-Spin Scale       =       0.3333333333333333 [-]
	 SCS Opposite-Spin Scale   =       1.2000000000000000 [-]
	 SCS Same-Spin Energy      =      -0.2015325818792048 [Eh]
	 SCS Opposite-Spin Energy  =      -2.2843195402411252 [Eh]
	 SCS Correlation Energy    =      -2.4858521221203298 [Eh]
	 SCS Total Energy          =    -556.1273254104223724 [Eh]
	-----------------------------------------------------------

  Dipole Moment: [D]
     X:     1.7435      Y:    -2.4961      Z:     2.1961     Total:     3.7540

*** Psi4 exiting successfully. Buy a developer a beer!
