                               Psi4 1.4a3.dev225

  ==> Input File <==

--------------------------------------------------------------------------
#psi4
#
memory 32 gb

molecule  {
0 1
  O        0.3130990     2.3704440    -1.0483590
  N        1.7883250     1.2487180     0.2800910
  C        1.5287440    -1.3320340    -0.8115580
  C        2.5082430    -1.1273300     0.3546920
  C        0.0936770    -1.0844130    -0.4156830
  C       -0.3593510     0.2288580    -0.1728470
  C        2.1500350     0.1348000     1.1432270
  C       -1.6973100     0.4876920     0.1815770
  C        0.4120124     1.3985024    -0.4576139
  C       -0.8057180    -2.1460500    -0.2745700
  C       -2.5635920    -0.6025190     0.3218070
  C       -2.1294290    -1.9083920     0.0915650
  C       -2.2005820     1.8899870     0.4130340
  H        1.6305660    -2.3487650    -1.2074160
  H        1.8022820    -0.6509930    -1.6251500
  H        2.4785080    -1.9866810     1.0363320
  H        3.5296620    -1.0584230    -0.0385230
  H        1.3070990    -0.0748920     1.8087120
  H        2.9845300     0.4555350     1.7739000
  H        2.4430930     2.0063180     0.1171350
  H       -0.4670580    -3.1628320    -0.4675050
  H       -3.5988730    -0.4222000     0.6058720
  H       -2.8229980    -2.7393000     0.2003190
  H       -1.5534710     2.4410460     1.1016880
  H       -2.2209110     2.4548110    -0.5213210
  H       -3.2087000     1.8617690     0.8360960
units angstrom
no_reorient  #important for SAPT in psi4, default
symmetry c1  #important for SAPT in psi4, default
}

set PROPERTIES_ORIGIN ["COM"]
properties('MP2/aug-cc-pvtz', properties = ['dipole'])
--------------------------------------------------------------------------

    Molecular point group: c1
  Charge       = 0
  Multiplicity = 1
  Basis Set: AUG-CC-PVTZ
    Blend: AUG-CC-PVTZ
  Basis Set: (AUG-CC-PVTZ AUX)
    Blend: AUG-CC-PVTZ-JKFIT

    Orbital Energies [Eh]
    ---------------------

    Doubly Occupied:

       1A    -20.546055     2A    -15.539765     3A    -11.357204
       4A    -11.263188     5A    -11.260971     6A    -11.251940
       7A    -11.251855     8A    -11.244082     9A    -11.239981
      10A    -11.237311    11A    -11.233647    12A    -11.225592
      13A    -11.224551    14A     -1.443013    15A     -1.192648
      16A     -1.158958    17A     -1.079525    18A     -1.055163
      19A     -1.022399    20A     -0.947520    21A     -0.918564
      22A     -0.878697    23A     -0.819679    24A     -0.780229
      25A     -0.761242    26A     -0.688729    27A     -0.683984
      28A     -0.665876    29A     -0.658066    30A     -0.625840
      31A     -0.610914    32A     -0.594872    33A     -0.585652
      34A     -0.581258    35A     -0.572567    36A     -0.561426
      37A     -0.540693    38A     -0.526878    39A     -0.517034
      40A     -0.510285    41A     -0.485732    42A     -0.482516
      43A     -0.471841    44A     -0.414667    45A     -0.358885
      46A     -0.344450    47A     -0.332115

  @DF-RHF Final Energy:  -553.60535543538606

   => Energetics <=

    Nuclear Repulsion Energy =            796.2331318116022203
    One-Electron Energy =               -2332.1808581390514519
    Two-Electron Energy =                 982.3423708920632862
    Total Energy =                       -553.6053554353860591
  Basis Set: (AUG-CC-PVTZ AUX)
    Blend: AUG-CC-PVTZ-RI
    Molecular point group: c1

    Geometry (in Angstrom), charge = 0, multiplicity = 1:

       Center              X                  Y                   Z               Mass
    ------------   -----------------  -----------------  -----------------  -----------------
         O            0.338155879041     2.350910460953    -1.021435770478    15.994914619570
         N            1.813381879041     1.229184460953     0.307014229522    14.003074004430
         C            1.553800879041    -1.351567539047    -0.784634770478    12.000000000000
         C            2.533299879041    -1.146863539047     0.381615229522    12.000000000000
         C            0.118733879041    -1.103946539047    -0.388759770478    12.000000000000
         C           -0.334294120959     0.209324460953    -0.145923770478    12.000000000000
         C            2.175091879041     0.115266460953     1.170150229522    12.000000000000
         C           -1.672253120959     0.468158460953     0.208500229522    12.000000000000
         C            0.437069279041     1.378968860953    -0.430690670478    12.000000000000
         C           -0.780661120959    -2.165583539047    -0.247646770478    12.000000000000
         C           -2.538535120959    -0.622052539047     0.348730229522    12.000000000000
         C           -2.104372120959    -1.927925539047     0.118488229522    12.000000000000
         C           -2.175525120959     1.870453460953     0.439957229522    12.000000000000
         H            1.655622879041    -2.368298539047    -1.180492770478     1.007825032230
         H            1.827338879041    -0.670526539047    -1.598226770478     1.007825032230
         H            2.503564879041    -2.006214539047     1.063255229522     1.007825032230
         H            3.554718879041    -1.077956539047    -0.011599770478     1.007825032230
         H            1.332155879041    -0.094425539047     1.835635229522     1.007825032230
         H            3.009586879041     0.436001460953     1.800823229522     1.007825032230
         H            2.468149879041     1.986784460953     0.144058229522     1.007825032230
         H           -0.442001120959    -3.182365539047    -0.440581770478     1.007825032230
         H           -3.573816120959    -0.441733539047     0.632795229522     1.007825032230
         H           -2.797941120959    -2.758833539047     0.227242229522     1.007825032230
         H           -1.528414120959     2.421512460953     1.128611229522     1.007825032230
         H           -2.195854120959     2.435277460953    -0.494397770478     1.007825032230
         H           -3.183643120959     1.842235460953     0.863019229522     1.007825032230

  Basis Set: AUG-CC-PVTZ
    Blend: AUG-CC-PVTZ
  Basis Set: (AUG-CC-PVTZ AUX)
    Blend: AUG-CC-PVTZ-JKFIT
	 Reference Energy          =    -553.6053554353860591 [Eh]
	 Singles Energy            =      -0.0000000000000000 [Eh]
	 Same-Spin Energy          =      -0.6042868296984126 [Eh]
	 Opposite-Spin Energy      =      -1.9033855959128632 [Eh]
	 Correlation Energy        =      -2.5076724256112759 [Eh]
	 Total Energy              =    -556.1130278609973630 [Eh]

	 ================> DF-SCS-MP2 Energies <==================
	-----------------------------------------------------------
	 SCS Same-Spin Scale       =       0.3333333333333333 [-]
	 SCS Opposite-Spin Scale   =       1.2000000000000000 [-]
	 SCS Same-Spin Energy      =      -0.2014289432328042 [Eh]
	 SCS Opposite-Spin Energy  =      -2.2840627150954358 [Eh]
	 SCS Correlation Energy    =      -2.4854916583282400 [Eh]
	 SCS Total Energy          =    -556.0908470937142738 [Eh]
	-----------------------------------------------------------

  Dipole Moment: [D]
     X:     0.0760      Y:    -2.2030      Z:     1.2915     Total:     2.5548

*** Psi4 exiting successfully. Buy a developer a beer!
