                               Psi4 1.4a3.dev225

  ==> Input File <==

--------------------------------------------------------------------------
#psi4
#
memory 32 gb

molecule  {
0 1
  O        0.3130990     2.3704440    -1.0483590
  N        1.7883250     1.2487180     0.2800910
  C        1.5287440    -1.3320340    -0.8115580
  C        2.4501798    -0.9777609     0.3661125
  C        0.0936770    -1.0844130    -0.4156830
  C       -0.3593510     0.2288580    -0.1728470
  C        2.1500350     0.1348000     1.1432270
  C       -1.6973100     0.4876920     0.1815770
  C        0.5874820     1.3794060    -0.3635620
  C       -0.8057180    -2.1460500    -0.2745700
  C       -2.5635920    -0.6025190     0.3218070
  C       -2.1294290    -1.9083920     0.0915650
  C       -2.2005820     1.8899870     0.4130340
  H        1.6305660    -2.3487650    -1.2074160
  H        1.8022820    -0.6509930    -1.6251500
  H        2.4785080    -1.9866810     1.0363320
  H        3.5296620    -1.0584230    -0.0385230
  H        1.3070990    -0.0748920     1.8087120
  H        2.9845300     0.4555350     1.7739000
  H        2.4430930     2.0063180     0.1171350
  H       -0.4670580    -3.1628320    -0.4675050
  H       -3.5988730    -0.4222000     0.6058720
  H       -2.8229980    -2.7393000     0.2003190
  H       -1.5534710     2.4410460     1.1016880
  H       -2.2209110     2.4548110    -0.5213210
  H       -3.2087000     1.8617690     0.8360960
units angstrom
no_reorient  #important for SAPT in psi4, default
symmetry c1  #important for SAPT in psi4, default
}

set PROPERTIES_ORIGIN ["COM"]
properties('MP2/aug-cc-pvtz', properties = ['dipole'])
--------------------------------------------------------------------------

    Molecular point group: c1
  Charge       = 0
  Multiplicity = 1
  Basis Set: AUG-CC-PVTZ
    Blend: AUG-CC-PVTZ
  Basis Set: (AUG-CC-PVTZ AUX)
    Blend: AUG-CC-PVTZ-JKFIT

    Orbital Energies [Eh]
    ---------------------

    Doubly Occupied:

       1A    -20.513021     2A    -15.582001     3A    -11.350956
       4A    -11.270482     5A    -11.254284     6A    -11.253877
       7A    -11.246645     8A    -11.244608     9A    -11.242128
      10A    -11.241007    11A    -11.235172    12A    -11.232582
      13A    -11.216152    14A     -1.368274    15A     -1.243386
      16A     -1.164139    17A     -1.091622    18A     -1.046616
      19A     -1.039346    20A     -0.950840    21A     -0.934739
      22A     -0.871470    23A     -0.821358    24A     -0.785800
      25A     -0.769760    26A     -0.697053    27A     -0.689954
      28A     -0.661194    29A     -0.659528    30A     -0.632431
      31A     -0.616636    32A     -0.594535    33A     -0.583281
      34A     -0.570465    35A     -0.567306    36A     -0.557210
      37A     -0.534933    38A     -0.527819    39A     -0.520075
      40A     -0.499432    41A     -0.489738    42A     -0.468969
      43A     -0.453601    44A     -0.417042    45A     -0.390978
      46A     -0.336392    47A     -0.327401

  @DF-RHF Final Energy:  -553.61361703854709

   => Energetics <=

    Nuclear Repulsion Energy =            798.7500239392611547
    One-Electron Energy =               -2337.1948006028205782
    Two-Electron Energy =                 984.8311596250123330
    Total Energy =                       -553.6136170385470905
  Basis Set: (AUG-CC-PVTZ AUX)
    Blend: AUG-CC-PVTZ-RI
    Molecular point group: c1

    Geometry (in Angstrom), charge = 0, multiplicity = 1:

       Center              X                  Y                   Z               Mass
    ------------   -----------------  -----------------  -----------------  -----------------
         O            0.330109739116     2.341968856401    -1.028664044990    15.994914619570
         N            1.805335739116     1.220242856401     0.299785955010    14.003074004430
         C            1.545754739116    -1.360509143599    -0.791863044990    12.000000000000
         C            2.467190539116    -1.006236043599     0.385807455010    12.000000000000
         C            0.110687739116    -1.112888143599    -0.395988044990    12.000000000000
         C           -0.342340260884     0.200382856401    -0.153152044990    12.000000000000
         C            2.167045739116     0.106324856401     1.162921955010    12.000000000000
         C           -1.680299260884     0.459216856401     0.201271955010    12.000000000000
         C            0.604492739116     1.350930856401    -0.343867044990    12.000000000000
         C           -0.788707260884    -2.174525143599    -0.254875044990    12.000000000000
         C           -2.546581260884    -0.630994143599     0.341501955010    12.000000000000
         C           -2.112418260884    -1.936867143599     0.111259955010    12.000000000000
         C           -2.183571260884     1.861511856401     0.432728955010    12.000000000000
         H            1.647576739116    -2.377240143599    -1.187721044990     1.007825032230
         H            1.819292739116    -0.679468143599    -1.605455044990     1.007825032230
         H            2.495518739116    -2.015156143599     1.056026955010     1.007825032230
         H            3.546672739116    -1.086898143599    -0.018828044990     1.007825032230
         H            1.324109739116    -0.103367143599     1.828406955010     1.007825032230
         H            3.001540739116     0.427059856401     1.793594955010     1.007825032230
         H            2.460103739116     1.977842856401     0.136829955010     1.007825032230
         H           -0.450047260884    -3.191307143599    -0.447810044990     1.007825032230
         H           -3.581862260884    -0.450675143599     0.625566955010     1.007825032230
         H           -2.805987260884    -2.767775143599     0.220013955010     1.007825032230
         H           -1.536460260884     2.412570856401     1.121382955010     1.007825032230
         H           -2.203900260884     2.426335856401    -0.501626044990     1.007825032230
         H           -3.191689260884     1.833293856401     0.855790955010     1.007825032230

  Basis Set: AUG-CC-PVTZ
    Blend: AUG-CC-PVTZ
  Basis Set: (AUG-CC-PVTZ AUX)
    Blend: AUG-CC-PVTZ-JKFIT
	 Reference Energy          =    -553.6136170385470905 [Eh]
	 Singles Energy            =      -0.0000000000000000 [Eh]
	 Same-Spin Energy          =      -0.6059630329868667 [Eh]
	 Opposite-Spin Energy      =      -1.9055547427588035 [Eh]
	 Correlation Energy        =      -2.5115177757456704 [Eh]
	 Total Energy              =    -556.1251348142927782 [Eh]

	 ================> DF-SCS-MP2 Energies <==================
	-----------------------------------------------------------
	 SCS Same-Spin Scale       =       0.3333333333333333 [-]
	 SCS Opposite-Spin Scale   =       1.2000000000000000 [-]
	 SCS Same-Spin Energy      =      -0.2019876776622889 [Eh]
	 SCS Opposite-Spin Energy  =      -2.2866656913105641 [Eh]
	 SCS Correlation Energy    =      -2.4886533689728529 [Eh]
	 SCS Total Energy          =    -556.1022704075199954 [Eh]
	-----------------------------------------------------------

  Dipole Moment: [D]
     X:     1.7071      Y:    -2.4937      Z:     2.1762     Total:     3.7240

*** Psi4 exiting successfully. Buy a developer a beer!
