                               Psi4 1.4a3.dev225

  ==> Input File <==

--------------------------------------------------------------------------
#psi4
#
memory 32 gb

molecule  {
0 1
  O        0.3130990     2.3704440    -1.0483590
  N        1.7883250     1.2487180     0.2800910
  C        1.5287440    -1.3320340    -0.8115580
  C        2.5082430    -1.1273300     0.3546920
  C        0.0936770    -1.0844130    -0.4156830
  C       -0.3593510     0.2288580    -0.1728470
  C        2.1500350     0.1348000     1.1432270
  C       -1.6973100     0.4876920     0.1815770
  C        0.5874820     1.3794060    -0.3635620
  C       -0.8057180    -2.1460500    -0.2745700
  C       -2.5635920    -0.6025190     0.3218070
  C       -2.1294290    -1.9083920     0.0915650
  C       -2.2005820     1.8899870     0.4130340
  H        1.6305660    -2.3487650    -1.2074160
  H        1.8022820    -0.6509930    -1.6251500
  H        2.4785080    -1.9866810     1.0363320
  H        3.5296620    -1.0584230    -0.0385230
  H        1.3070990    -0.0748920     1.8087120
  H        2.9845300     0.4555350     1.7739000
  H        2.4430930     2.0063180     0.1171350
  H       -0.4670580    -3.1628320    -0.4675050
  H       -3.4086660    -0.4553291     0.5536822
  H       -2.8229980    -2.7393000     0.2003190
  H       -1.5534710     2.4410460     1.1016880
  H       -2.2209110     2.4548110    -0.5213210
  H       -3.2087000     1.8617690     0.8360960
units angstrom
no_reorient  #important for SAPT in psi4, default
symmetry c1  #important for SAPT in psi4, default
}

set PROPERTIES_ORIGIN ["COM"]
properties('MP2/aug-cc-pvtz', properties = ['dipole'])
--------------------------------------------------------------------------

    Molecular point group: c1
  Charge       = 0
  Multiplicity = 1
  Basis Set: AUG-CC-PVTZ
    Blend: AUG-CC-PVTZ
  Basis Set: (AUG-CC-PVTZ AUX)
    Blend: AUG-CC-PVTZ-JKFIT

    Orbital Energies [Eh]
    ---------------------

    Doubly Occupied:

       1A    -20.512273     2A    -15.582633     3A    -11.349699
       4A    -11.274606     5A    -11.253871     6A    -11.252103
       7A    -11.243090     8A    -11.240732     9A    -11.237900
      10A    -11.237104    11A    -11.234154    12A    -11.216228
      13A    -11.208578    14A     -1.367161    15A     -1.234955
      16A     -1.164406    17A     -1.086541    18A     -1.044059
      19A     -1.033019    20A     -0.943248    21A     -0.940104
      22A     -0.875534    23A     -0.833023    24A     -0.795224
      25A     -0.769925    26A     -0.710343    27A     -0.683373
      28A     -0.660668    29A     -0.658158    30A     -0.622823
      31A     -0.615553    32A     -0.595389    33A     -0.587981
      34A     -0.570774    35A     -0.569802    36A     -0.553770
      37A     -0.535651    38A     -0.531291    39A     -0.514071
      40A     -0.504749    41A     -0.488493    42A     -0.478692
      43A     -0.475327    44A     -0.417025    45A     -0.385694
      46A     -0.335664    47A     -0.326889

  @DF-RHF Final Energy:  -553.60905211139425

   => Energetics <=

    Nuclear Repulsion Energy =            797.2181433905711856
    One-Electron Energy =               -2334.1496936800340336
    Two-Electron Energy =                 983.3224981780685994
    Total Energy =                       -553.6090521113942486
  Basis Set: (AUG-CC-PVTZ AUX)
    Blend: AUG-CC-PVTZ-RI
    Molecular point group: c1

    Geometry (in Angstrom), charge = 0, multiplicity = 1:

       Center              X                  Y                   Z               Mass
    ------------   -----------------  -----------------  -----------------  -----------------
         O            0.325035751527     2.352409864522    -1.027580981046    15.994914619570
         N            1.800261751527     1.230683864522     0.300869018954    14.003074004430
         C            1.540680751527    -1.350068135478    -0.790779981046    12.000000000000
         C            2.520179751527    -1.145364135478     0.375470018954    12.000000000000
         C            0.105613751527    -1.102447135478    -0.394904981046    12.000000000000
         C           -0.347414248473     0.210823864522    -0.152068981046    12.000000000000
         C            2.161971751527     0.116765864522     1.164005018954    12.000000000000
         C           -1.685373248473     0.469657864522     0.202355018954    12.000000000000
         C            0.599418751527     1.361371864522    -0.342783981046    12.000000000000
         C           -0.793781248473    -2.164084135478    -0.253791981046    12.000000000000
         C           -2.551655248473    -0.620553135478     0.342585018954    12.000000000000
         C           -2.117492248473    -1.926426135478     0.112343018954    12.000000000000
         C           -2.188645248473     1.871952864522     0.433812018954    12.000000000000
         H            1.642502751527    -2.366799135478    -1.186637981046     1.007825032230
         H            1.814218751527    -0.669027135478    -1.604371981046     1.007825032230
         H            2.490444751527    -2.004715135478     1.057110018954     1.007825032230
         H            3.541598751527    -1.076457135478    -0.017744981046     1.007825032230
         H            1.319035751527    -0.092926135478     1.829490018954     1.007825032230
         H            2.996466751527     0.437500864522     1.794678018954     1.007825032230
         H            2.455029751527     1.988283864522     0.137913018954     1.007825032230
         H           -0.455121248473    -3.180866135478    -0.446726981046     1.007825032230
         H           -3.396729248473    -0.473363235478     0.574460218954     1.007825032230
         H           -2.811061248473    -2.757334135478     0.221097018954     1.007825032230
         H           -1.541534248473     2.423011864522     1.122466018954     1.007825032230
         H           -2.208974248473     2.436776864522    -0.500542981046     1.007825032230
         H           -3.196763248473     1.843734864522     0.856874018954     1.007825032230

  Basis Set: AUG-CC-PVTZ
    Blend: AUG-CC-PVTZ
  Basis Set: (AUG-CC-PVTZ AUX)
    Blend: AUG-CC-PVTZ-JKFIT
	 Reference Energy          =    -553.6090521113942486 [Eh]
	 Singles Energy            =      -0.0000000000000000 [Eh]
	 Same-Spin Energy          =      -0.6038925211172778 [Eh]
	 Opposite-Spin Energy      =      -1.9023245953376677 [Eh]
	 Correlation Energy        =      -2.5062171164549456 [Eh]
	 Total Energy              =    -556.1152692278492395 [Eh]

	 ================> DF-SCS-MP2 Energies <==================
	-----------------------------------------------------------
	 SCS Same-Spin Scale       =       0.3333333333333333 [-]
	 SCS Opposite-Spin Scale   =       1.2000000000000000 [-]
	 SCS Same-Spin Energy      =      -0.2012975070390926 [Eh]
	 SCS Opposite-Spin Energy  =      -2.2827895144052013 [Eh]
	 SCS Correlation Energy    =      -2.4840870214442941 [Eh]
	 SCS Total Energy          =    -556.0931391328385871 [Eh]
	-----------------------------------------------------------

  Dipole Moment: [D]
     X:     1.6737      Y:    -2.5313      Z:     2.2186     Total:     3.7591

*** Psi4 exiting successfully. Buy a developer a beer!
