                               Psi4 1.4a3.dev225

  ==> Input File <==

--------------------------------------------------------------------------
#psi4
#
memory 32 gb

molecule  {
0 1
  O        0.3130990     2.3704440    -1.0483590
  N        1.7883250     1.2487180     0.2800910
  C        1.5287440    -1.3320340    -0.8115580
  C        2.5082430    -1.1273300     0.3546920
  C        0.0936770    -1.0844130    -0.4156830
  C       -0.3593510     0.2288580    -0.1728470
  C        2.1500350     0.1348000     1.1432270
  C       -1.6973100     0.4876920     0.1815770
  C        0.6313494     1.3746319    -0.3400490
  C       -0.8057180    -2.1460500    -0.2745700
  C       -2.5635920    -0.6025190     0.3218070
  C       -2.1294290    -1.9083920     0.0915650
  C       -2.2005820     1.8899870     0.4130340
  H        1.6305660    -2.3487650    -1.2074160
  H        1.8022820    -0.6509930    -1.6251500
  H        2.4785080    -1.9866810     1.0363320
  H        3.5296620    -1.0584230    -0.0385230
  H        1.3070990    -0.0748920     1.8087120
  H        2.9845300     0.4555350     1.7739000
  H        2.4430930     2.0063180     0.1171350
  H       -0.4670580    -3.1628320    -0.4675050
  H       -3.5988730    -0.4222000     0.6058720
  H       -2.8229980    -2.7393000     0.2003190
  H       -1.5534710     2.4410460     1.1016880
  H       -2.2209110     2.4548110    -0.5213210
  H       -3.2087000     1.8617690     0.8360960
units angstrom
no_reorient  #important for SAPT in psi4, default
symmetry c1  #important for SAPT in psi4, default
}

set PROPERTIES_ORIGIN ["COM"]
properties('MP2/aug-cc-pvtz', properties = ['dipole'])
--------------------------------------------------------------------------

    Molecular point group: c1
  Charge       = 0
  Multiplicity = 1
  Basis Set: AUG-CC-PVTZ
    Blend: AUG-CC-PVTZ
  Basis Set: (AUG-CC-PVTZ AUX)
    Blend: AUG-CC-PVTZ-JKFIT

    Orbital Energies [Eh]
    ---------------------

    Doubly Occupied:

       1A    -20.503950     2A    -15.592697     3A    -11.348504
       4A    -11.280523     5A    -11.252363     6A    -11.251900
       7A    -11.242729     8A    -11.242700     9A    -11.241006
      10A    -11.239302    11A    -11.234320    12A    -11.231765
      13A    -11.213633    14A     -1.354715    15A     -1.246758
      16A     -1.162863    17A     -1.087165    18A     -1.043098
      19A     -1.029845    20A     -0.946225    21A     -0.933614
      22A     -0.874116    23A     -0.833032    24A     -0.788112
      25A     -0.772545    26A     -0.694019    27A     -0.688176
      28A     -0.660693    29A     -0.658718    30A     -0.619825
      31A     -0.617099    32A     -0.590806    33A     -0.579944
      34A     -0.566559    35A     -0.564941    36A     -0.553402
      37A     -0.532208    38A     -0.528917    39A     -0.512845
      40A     -0.503480    41A     -0.489695    42A     -0.478646
      43A     -0.473227    44A     -0.412118    45A     -0.388605
      46A     -0.333995    47A     -0.326426

  @DF-RHF Final Energy:  -553.63916641849744

   => Energetics <=

    Nuclear Repulsion Energy =            795.9739142315154368
    One-Electron Energy =               -2331.7825103404898073
    Two-Electron Energy =                 982.1694296904769317
    Total Energy =                       -553.6391664184974388
  Basis Set: (AUG-CC-PVTZ AUX)
    Blend: AUG-CC-PVTZ-RI
    Molecular point group: c1

    Geometry (in Angstrom), charge = 0, multiplicity = 1:

       Center              X                  Y                   Z               Mass
    ------------   -----------------  -----------------  -----------------  -----------------
         O            0.323124192585     2.352546363110    -1.029492772785    15.994914619570
         N            1.798350192585     1.230820363110     0.298957227215    14.003074004430
         C            1.538769192585    -1.349931636890    -0.792691772785    12.000000000000
         C            2.518268192585    -1.145227636890     0.373558227215    12.000000000000
         C            0.103702192585    -1.102310636890    -0.396816772785    12.000000000000
         C           -0.349325807415     0.210960363110    -0.153980772785    12.000000000000
         C            2.160060192585     0.116902363110     1.162093227215    12.000000000000
         C           -1.687284807415     0.469794363110     0.200443227215    12.000000000000
         C            0.641374592585     1.356734263110    -0.321182772785    12.000000000000
         C           -0.795692807415    -2.163947636890    -0.255703772785    12.000000000000
         C           -2.553566807415    -0.620416636890     0.340673227215    12.000000000000
         C           -2.119403807415    -1.926289636890     0.110431227215    12.000000000000
         C           -2.190556807415     1.872089363110     0.431900227215    12.000000000000
         H            1.640591192585    -2.366662636890    -1.188549772785     1.007825032230
         H            1.812307192585    -0.668890636890    -1.606283772785     1.007825032230
         H            2.488533192585    -2.004578636890     1.055198227215     1.007825032230
         H            3.539687192585    -1.076320636890    -0.019656772785     1.007825032230
         H            1.317124192585    -0.092789636890     1.827578227215     1.007825032230
         H            2.994555192585     0.437637363110     1.792766227215     1.007825032230
         H            2.453118192585     1.988420363110     0.136001227215     1.007825032230
         H           -0.457032807415    -3.180729636890    -0.448638772785     1.007825032230
         H           -3.588847807415    -0.440097636890     0.624738227215     1.007825032230
         H           -2.812972807415    -2.757197636890     0.219185227215     1.007825032230
         H           -1.543445807415     2.423148363110     1.120554227215     1.007825032230
         H           -2.210885807415     2.436913363110    -0.502454772785     1.007825032230
         H           -3.198674807415     1.843871363110     0.854962227215     1.007825032230

  Basis Set: AUG-CC-PVTZ
    Blend: AUG-CC-PVTZ
  Basis Set: (AUG-CC-PVTZ AUX)
    Blend: AUG-CC-PVTZ-JKFIT
	 Reference Energy          =    -553.6391664184974388 [Eh]
	 Singles Energy            =      -0.0000000000000000 [Eh]
	 Same-Spin Energy          =      -0.6044770910139549 [Eh]
	 Opposite-Spin Energy      =      -1.9035934013941955 [Eh]
	 Correlation Energy        =      -2.5080704924081503 [Eh]
	 Total Energy              =    -556.1472369109055762 [Eh]

	 ================> DF-SCS-MP2 Energies <==================
	-----------------------------------------------------------
	 SCS Same-Spin Scale       =       0.3333333333333333 [-]
	 SCS Opposite-Spin Scale   =       1.2000000000000000 [-]
	 SCS Same-Spin Energy      =      -0.2014923636713183 [Eh]
	 SCS Opposite-Spin Energy  =      -2.2843120816730345 [Eh]
	 SCS Correlation Energy    =      -2.4858044453443529 [Eh]
	 SCS Total Energy          =    -556.1249708638417815 [Eh]
	-----------------------------------------------------------

  Dipole Moment: [D]
     X:     2.0975      Y:    -2.6439      Z:     2.4263     Total:     4.1565

*** Psi4 exiting successfully. Buy a developer a beer!
