                               Psi4 1.4a3.dev225

  ==> Input File <==

--------------------------------------------------------------------------
#psi4
#
memory 32 gb

molecule  {
0 1
  O        0.3130990     2.3704440    -1.0483590
  N        1.7883250     1.2487180     0.2800910
  C        1.5287440    -1.3320340    -0.8115580
  C        2.5082430    -1.1273300     0.3546920
  C        0.0936770    -1.0844130    -0.4156830
  C       -0.3593510     0.2288580    -0.1728470
  C        2.1500350     0.1348000     1.1432270
  C       -1.6973100     0.4876920     0.1815770
  C        0.5874820     1.3794060    -0.3635620
  C       -0.8057180    -2.1460500    -0.2745700
  C       -2.5635920    -0.6025190     0.3218070
  C       -2.1294290    -1.9083920     0.0915650
  C       -2.1672028     1.7969807     0.3976828
  H        1.6305660    -2.3487650    -1.2074160
  H        1.8022820    -0.6509930    -1.6251500
  H        2.4785080    -1.9866810     1.0363320
  H        3.5296620    -1.0584230    -0.0385230
  H        1.3070990    -0.0748920     1.8087120
  H        2.9845300     0.4555350     1.7739000
  H        2.4430930     2.0063180     0.1171350
  H       -0.4670580    -3.1628320    -0.4675050
  H       -3.5988730    -0.4222000     0.6058720
  H       -2.8229980    -2.7393000     0.2003190
  H       -1.5534710     2.4410460     1.1016880
  H       -2.2209110     2.4548110    -0.5213210
  H       -3.2087000     1.8617690     0.8360960
units angstrom
no_reorient  #important for SAPT in psi4, default
symmetry c1  #important for SAPT in psi4, default
}

set PROPERTIES_ORIGIN ["COM"]
properties('MP2/aug-cc-pvtz', properties = ['dipole'])
--------------------------------------------------------------------------

    Molecular point group: c1
  Charge       = 0
  Multiplicity = 1
  Basis Set: AUG-CC-PVTZ
    Blend: AUG-CC-PVTZ
  Basis Set: (AUG-CC-PVTZ AUX)
    Blend: AUG-CC-PVTZ-JKFIT

    Orbital Energies [Eh]
    ---------------------

    Doubly Occupied:

       1A    -20.512656     2A    -15.583095     3A    -11.350456
       4A    -11.274963     5A    -11.254650     6A    -11.248910
       7A    -11.244554     8A    -11.242015     9A    -11.238403
      10A    -11.237515    11A    -11.235413    12A    -11.232673
      13A    -11.219523    14A     -1.367662    15A     -1.235416
      16A     -1.167345    17A     -1.089151    18A     -1.052112
      19A     -1.029930    20A     -0.943724    21A     -0.932921
      22A     -0.873337    23A     -0.828947    24A     -0.785801
      25A     -0.769354    26A     -0.694125    27A     -0.683496
      28A     -0.663232    29A     -0.660138    30A     -0.622696
      31A     -0.615986    32A     -0.597747    33A     -0.584454
      34A     -0.574777    35A     -0.564580    36A     -0.550365
      37A     -0.530152    38A     -0.521774    39A     -0.518036
      40A     -0.497152    41A     -0.491303    42A     -0.476744
      43A     -0.473292    44A     -0.416708    45A     -0.385783
      46A     -0.336378    47A     -0.324677

  @DF-RHF Final Energy:  -553.63073306575939

   => Energetics <=

    Nuclear Repulsion Energy =            797.9687211384499506
    One-Electron Energy =               -2335.7306742533201032
    Two-Electron Energy =                 984.1312200491108797
    Total Energy =                       -553.6307330657593866
  Basis Set: (AUG-CC-PVTZ AUX)
    Blend: AUG-CC-PVTZ-RI
    Molecular point group: c1

    Geometry (in Angstrom), charge = 0, multiplicity = 1:

       Center              X                  Y                   Z               Mass
    ------------   -----------------  -----------------  -----------------  -----------------
         O            0.323842973885     2.358593125698    -1.026829316694    15.994914619570
         N            1.799068973885     1.236867125698     0.301620683306    14.003074004430
         C            1.539487973885    -1.343884874302    -0.790028316694    12.000000000000
         C            2.518986973885    -1.139180874302     0.376221683306    12.000000000000
         C            0.104420973885    -1.096263874302    -0.394153316694    12.000000000000
         C           -0.348607026115     0.217007125698    -0.151317316694    12.000000000000
         C            2.160778973885     0.122949125698     1.164756683306    12.000000000000
         C           -1.686566026115     0.475841125698     0.203106683306    12.000000000000
         C            0.598225973885     1.367555125698    -0.342032316694    12.000000000000
         C           -0.794974026115    -2.157900874302    -0.253040316694    12.000000000000
         C           -2.552848026115    -0.614369874302     0.343336683306    12.000000000000
         C           -2.118685026115    -1.920242874302     0.113094683306    12.000000000000
         C           -2.156458826115     1.785129825698     0.419212483306    12.000000000000
         H            1.641309973885    -2.360615874302    -1.185886316694     1.007825032230
         H            1.813025973885    -0.662843874302    -1.603620316694     1.007825032230
         H            2.489251973885    -1.998531874302     1.057861683306     1.007825032230
         H            3.540405973885    -1.070273874302    -0.016993316694     1.007825032230
         H            1.317842973885    -0.086742874302     1.830241683306     1.007825032230
         H            2.995273973885     0.443684125698     1.795429683306     1.007825032230
         H            2.453836973885     1.994467125698     0.138664683306     1.007825032230
         H           -0.456314026115    -3.174682874302    -0.445975316694     1.007825032230
         H           -3.588129026115    -0.434050874302     0.627401683306     1.007825032230
         H           -2.812254026115    -2.751150874302     0.221848683306     1.007825032230
         H           -1.542727026115     2.429195125698     1.123217683306     1.007825032230
         H           -2.210167026115     2.442960125698    -0.499791316694     1.007825032230
         H           -3.197956026115     1.849918125698     0.857625683306     1.007825032230

  Basis Set: AUG-CC-PVTZ
    Blend: AUG-CC-PVTZ
  Basis Set: (AUG-CC-PVTZ AUX)
    Blend: AUG-CC-PVTZ-JKFIT
	 Reference Energy          =    -553.6307330657593866 [Eh]
	 Singles Energy            =      -0.0000000000000000 [Eh]
	 Same-Spin Energy          =      -0.6056076303646689 [Eh]
	 Opposite-Spin Energy      =      -1.9047107257183091 [Eh]
	 Correlation Energy        =      -2.5103183560829780 [Eh]
	 Total Energy              =    -556.1410514218423486 [Eh]

	 ================> DF-SCS-MP2 Energies <==================
	-----------------------------------------------------------
	 SCS Same-Spin Scale       =       0.3333333333333333 [-]
	 SCS Opposite-Spin Scale   =       1.2000000000000000 [-]
	 SCS Same-Spin Energy      =      -0.2018692101215563 [Eh]
	 SCS Opposite-Spin Energy  =      -2.2856528708619708 [Eh]
	 SCS Correlation Energy    =      -2.4875220809835272 [Eh]
	 SCS Total Energy          =    -556.1182551467429676 [Eh]
	-----------------------------------------------------------

  Dipole Moment: [D]
     X:     1.7289      Y:    -2.5034      Z:     2.1942     Total:     3.7511

*** Psi4 exiting successfully. Buy a developer a beer!
