                               Psi4 1.4a3.dev225

  ==> Input File <==

--------------------------------------------------------------------------
#psi4
#
memory 32 gb

molecule  {
0 1
  O        0.3130990     2.3704440    -1.0483590
  N        1.8129315     1.3338415     0.2443770
  C        1.5287440    -1.3320340    -0.8115580
  C        2.5082430    -1.1273300     0.3546920
  C        0.0936770    -1.0844130    -0.4156830
  C       -0.3593510     0.2288580    -0.1728470
  C        2.1500350     0.1348000     1.1432270
  C       -1.6973100     0.4876920     0.1815770
  C        0.5874820     1.3794060    -0.3635620
  C       -0.8057180    -2.1460500    -0.2745700
  C       -2.5635920    -0.6025190     0.3218070
  C       -2.1294290    -1.9083920     0.0915650
  C       -2.2005820     1.8899870     0.4130340
  H        1.6305660    -2.3487650    -1.2074160
  H        1.8022820    -0.6509930    -1.6251500
  H        2.4785080    -1.9866810     1.0363320
  H        3.5296620    -1.0584230    -0.0385230
  H        1.3070990    -0.0748920     1.8087120
  H        2.9845300     0.4555350     1.7739000
  H        2.4430930     2.0063180     0.1171350
  H       -0.4670580    -3.1628320    -0.4675050
  H       -3.5988730    -0.4222000     0.6058720
  H       -2.8229980    -2.7393000     0.2003190
  H       -1.5534710     2.4410460     1.1016880
  H       -2.2209110     2.4548110    -0.5213210
  H       -3.2087000     1.8617690     0.8360960
units angstrom
no_reorient  #important for SAPT in psi4, default
symmetry c1  #important for SAPT in psi4, default
}

set PROPERTIES_ORIGIN ["COM"]
properties('MP2/aug-cc-pvtz', properties = ['dipole'])
--------------------------------------------------------------------------

    Molecular point group: c1
  Charge       = 0
  Multiplicity = 1
  Basis Set: AUG-CC-PVTZ
    Blend: AUG-CC-PVTZ
  Basis Set: (AUG-CC-PVTZ AUX)
    Blend: AUG-CC-PVTZ-JKFIT

    Orbital Energies [Eh]
    ---------------------

    Doubly Occupied:

       1A    -20.507313     2A    -15.575091     3A    -11.348306
       4A    -11.279624     5A    -11.255581     6A    -11.255137
       7A    -11.245624     8A    -11.245063     9A    -11.240269
      10A    -11.239016    11A    -11.236231    12A    -11.233745
      13A    -11.216132    14A     -1.366147    15A     -1.222471
      16A     -1.165419    17A     -1.087016    18A     -1.046920
      19A     -1.027040    20A     -0.946487    21A     -0.931148
      22A     -0.873506    23A     -0.833017    24A     -0.788381
      25A     -0.777210    26A     -0.700230    27A     -0.676372
      28A     -0.660917    29A     -0.651739    30A     -0.622640
      31A     -0.615870    32A     -0.590186    33A     -0.580134
      34A     -0.568747    35A     -0.566474    36A     -0.552321
      37A     -0.532522    38A     -0.529399    39A     -0.514417
      40A     -0.505582    41A     -0.489852    42A     -0.479773
      43A     -0.474499    44A     -0.414771    45A     -0.386690
      46A     -0.337556    47A     -0.328572

  @DF-RHF Final Energy:  -553.63283271743239

   => Energetics <=

    Nuclear Repulsion Energy =            794.4174528119185652
    One-Electron Energy =               -2328.6582561279747097
    Two-Electron Energy =                 980.6079705986237514
    Total Energy =                       -553.6328327174323931
  Basis Set: (AUG-CC-PVTZ AUX)
    Blend: AUG-CC-PVTZ-RI
    Molecular point group: c1

    Geometry (in Angstrom), charge = 0, multiplicity = 1:

       Center              X                  Y                   Z               Mass
    ------------   -----------------  -----------------  -----------------  -----------------
         O            0.324162698904     2.345411686296    -1.025025251012    15.994914619570
         N            1.823995198904     1.308809186296     0.267710748988    14.003074004430
         C            1.539807698904    -1.357066313704    -0.788224251012    12.000000000000
         C            2.519306698904    -1.152362313704     0.378025748988    12.000000000000
         C            0.104740698904    -1.109445313704    -0.392349251012    12.000000000000
         C           -0.348287301096     0.203825686296    -0.149513251012    12.000000000000
         C            2.161098698904     0.109767686296     1.166560748988    12.000000000000
         C           -1.686246301096     0.462659686296     0.204910748988    12.000000000000
         C            0.598545698904     1.354373686296    -0.340228251012    12.000000000000
         C           -0.794654301096    -2.171082313704    -0.251236251012    12.000000000000
         C           -2.552528301096    -0.627551313704     0.345140748988    12.000000000000
         C           -2.118365301096    -1.933424313704     0.114898748988    12.000000000000
         C           -2.189518301096     1.864954686296     0.436367748988    12.000000000000
         H            1.641629698904    -2.373797313704    -1.184082251012     1.007825032230
         H            1.813345698904    -0.676025313704    -1.601816251012     1.007825032230
         H            2.489571698904    -2.011713313704     1.059665748988     1.007825032230
         H            3.540725698904    -1.083455313704    -0.015189251012     1.007825032230
         H            1.318162698904    -0.099924313704     1.832045748988     1.007825032230
         H            2.995593698904     0.430502686296     1.797233748988     1.007825032230
         H            2.454156698904     1.981285686296     0.140468748988     1.007825032230
         H           -0.455994301096    -3.187864313704    -0.444171251012     1.007825032230
         H           -3.587809301096    -0.447232313704     0.629205748988     1.007825032230
         H           -2.811934301096    -2.764332313704     0.223652748988     1.007825032230
         H           -1.542407301096     2.416013686296     1.125021748988     1.007825032230
         H           -2.209847301096     2.429778686296    -0.497987251012     1.007825032230
         H           -3.197636301096     1.836736686296     0.859429748988     1.007825032230

  Basis Set: AUG-CC-PVTZ
    Blend: AUG-CC-PVTZ
  Basis Set: (AUG-CC-PVTZ AUX)
    Blend: AUG-CC-PVTZ-JKFIT
	 Reference Energy          =    -553.6328327174323931 [Eh]
	 Singles Energy            =      -0.0000000000000000 [Eh]
	 Same-Spin Energy          =      -0.6029974030352420 [Eh]
	 Opposite-Spin Energy      =      -1.9021274315967291 [Eh]
	 Correlation Energy        =      -2.5051248346319710 [Eh]
	 Total Energy              =    -556.1379575520643357 [Eh]

	 ================> DF-SCS-MP2 Energies <==================
	-----------------------------------------------------------
	 SCS Same-Spin Scale       =       0.3333333333333333 [-]
	 SCS Opposite-Spin Scale   =       1.2000000000000000 [-]
	 SCS Same-Spin Energy      =      -0.2009991343450807 [Eh]
	 SCS Opposite-Spin Energy  =      -2.2825529179160751 [Eh]
	 SCS Correlation Energy    =      -2.4835520522611558 [Eh]
	 SCS Total Energy          =    -556.1163847696935818 [Eh]
	-----------------------------------------------------------

  Dipole Moment: [D]
     X:     1.6490      Y:    -2.7212      Z:     2.2370     Total:     3.8895

*** Psi4 exiting successfully. Buy a developer a beer!
