                               Psi4 1.4a3.dev225

  ==> Input File <==

--------------------------------------------------------------------------
#psi4
#
memory 32 gb

molecule  {
0 1
  O        0.3130990     2.3704440    -1.0483590
  N        1.7883250     1.2487180     0.2800910
  C        1.5287440    -1.3320340    -0.8115580
  C        2.5082430    -1.1273300     0.3546920
  C        0.0936770    -1.0844130    -0.4156830
  C       -0.3593510     0.2288580    -0.1728470
  C        2.1727156     0.1455128     1.1471743
  C       -1.6973100     0.4876920     0.1815770
  C        0.5874820     1.3794060    -0.3635620
  C       -0.8057180    -2.1460500    -0.2745700
  C       -2.5635920    -0.6025190     0.3218070
  C       -2.1294290    -1.9083920     0.0915650
  C       -2.2005820     1.8899870     0.4130340
  H        1.6305660    -2.3487650    -1.2074160
  H        1.8022820    -0.6509930    -1.6251500
  H        2.4785080    -1.9866810     1.0363320
  H        3.5296620    -1.0584230    -0.0385230
  H        1.3070990    -0.0748920     1.8087120
  H        2.9845300     0.4555350     1.7739000
  H        2.4430930     2.0063180     0.1171350
  H       -0.4670580    -3.1628320    -0.4675050
  H       -3.5988730    -0.4222000     0.6058720
  H       -2.8229980    -2.7393000     0.2003190
  H       -1.5534710     2.4410460     1.1016880
  H       -2.2209110     2.4548110    -0.5213210
  H       -3.2087000     1.8617690     0.8360960
units angstrom
no_reorient  #important for SAPT in psi4, default
symmetry c1  #important for SAPT in psi4, default
}

set PROPERTIES_ORIGIN ["COM"]
properties('MP2/aug-cc-pvtz', properties = ['dipole'])
--------------------------------------------------------------------------

    Molecular point group: c1
  Charge       = 0
  Multiplicity = 1
  Basis Set: AUG-CC-PVTZ
    Blend: AUG-CC-PVTZ
  Basis Set: (AUG-CC-PVTZ AUX)
    Blend: AUG-CC-PVTZ-JKFIT

    Orbital Energies [Eh]
    ---------------------

    Doubly Occupied:

       1A    -20.512891     2A    -15.583072     3A    -11.350872
       4A    -11.274863     5A    -11.254279     6A    -11.253417
       7A    -11.244336     8A    -11.241943     9A    -11.238547
      10A    -11.237590    11A    -11.235180    12A    -11.232598
      13A    -11.215841    14A     -1.367694    15A     -1.235047
      16A     -1.163638    17A     -1.084076    18A     -1.044589
      19A     -1.028652    20A     -0.943141    21A     -0.933680
      22A     -0.874105    23A     -0.829447    24A     -0.785094
      25A     -0.769267    26A     -0.694132    27A     -0.682544
      28A     -0.661690    29A     -0.658538    30A     -0.619167
      31A     -0.615771    32A     -0.590100    33A     -0.583976
      34A     -0.570352    35A     -0.565595    36A     -0.552981
      37A     -0.532243    38A     -0.530052    39A     -0.513333
      40A     -0.505053    41A     -0.490424    42A     -0.479162
      43A     -0.473135    44A     -0.417810    45A     -0.385088
      46A     -0.336351    47A     -0.327437

  @DF-RHF Final Energy:  -553.64258289409906

   => Energetics <=

    Nuclear Repulsion Energy =            795.6228563662525630
    One-Electron Energy =               -2331.0932962077454249
    Two-Electron Energy =                 981.8278569473937978
    Total Energy =                       -553.6425828940990641
  Basis Set: (AUG-CC-PVTZ AUX)
    Blend: AUG-CC-PVTZ-RI
    Molecular point group: c1

    Geometry (in Angstrom), charge = 0, multiplicity = 1:

       Center              X                  Y                   Z               Mass
    ------------   -----------------  -----------------  -----------------  -----------------
         O            0.324576174397     2.351485009007    -1.028151888814    15.994914619570
         N            1.799802174397     1.229759009007     0.300298111186    14.003074004430
         C            1.540221174397    -1.350992990993    -0.791350888814    12.000000000000
         C            2.519720174397    -1.146288990993     0.374899111186    12.000000000000
         C            0.105154174397    -1.103371990993    -0.395475888814    12.000000000000
         C           -0.347873825603     0.209899009007    -0.152639888814    12.000000000000
         C            2.184192774397     0.126553809007     1.167381411186    12.000000000000
         C           -1.685832825603     0.468733009007     0.201784111186    12.000000000000
         C            0.598959174397     1.360447009007    -0.343354888814    12.000000000000
         C           -0.794240825603    -2.165008990993    -0.254362888814    12.000000000000
         C           -2.552114825603    -0.621477990993     0.342014111186    12.000000000000
         C           -2.117951825603    -1.927350990993     0.111772111186    12.000000000000
         C           -2.189104825603     1.871028009007     0.433241111186    12.000000000000
         H            1.642043174397    -2.367723990993    -1.187208888814     1.007825032230
         H            1.813759174397    -0.669951990993    -1.604942888814     1.007825032230
         H            2.489985174397    -2.005639990993     1.056539111186     1.007825032230
         H            3.541139174397    -1.077381990993    -0.018315888814     1.007825032230
         H            1.318576174397    -0.093850990993     1.828919111186     1.007825032230
         H            2.996007174397     0.436576009007     1.794107111186     1.007825032230
         H            2.454570174397     1.987359009007     0.137342111186     1.007825032230
         H           -0.455580825603    -3.181790990993    -0.447297888814     1.007825032230
         H           -3.587395825603    -0.441158990993     0.626079111186     1.007825032230
         H           -2.811520825603    -2.758258990993     0.220526111186     1.007825032230
         H           -1.541993825603     2.422087009007     1.121895111186     1.007825032230
         H           -2.209433825603     2.435852009007    -0.501113888814     1.007825032230
         H           -3.197222825603     1.842810009007     0.856303111186     1.007825032230

  Basis Set: AUG-CC-PVTZ
    Blend: AUG-CC-PVTZ
  Basis Set: (AUG-CC-PVTZ AUX)
    Blend: AUG-CC-PVTZ-JKFIT
	 Reference Energy          =    -553.6425828940990641 [Eh]
	 Singles Energy            =      -0.0000000000000000 [Eh]
	 Same-Spin Energy          =      -0.6041201634328819 [Eh]
	 Opposite-Spin Energy      =      -1.9030271882005900 [Eh]
	 Correlation Energy        =      -2.5071473516334719 [Eh]
	 Total Energy              =    -556.1497302457324849 [Eh]

	 ================> DF-SCS-MP2 Energies <==================
	-----------------------------------------------------------
	 SCS Same-Spin Scale       =       0.3333333333333333 [-]
	 SCS Opposite-Spin Scale   =       1.2000000000000000 [-]
	 SCS Same-Spin Energy      =      -0.2013733878109606 [Eh]
	 SCS Opposite-Spin Energy  =      -2.2836326258407080 [Eh]
	 SCS Correlation Energy    =      -2.4850060136516685 [Eh]
	 SCS Total Energy          =    -556.1275889077506918 [Eh]
	-----------------------------------------------------------

  Dipole Moment: [D]
     X:     1.7415      Y:    -2.5285      Z:     2.2049     Total:     3.7799

*** Psi4 exiting successfully. Buy a developer a beer!
