                               Psi4 1.4a3.dev225

  ==> Input File <==

--------------------------------------------------------------------------
#psi4
#
memory 32 gb

molecule  {
0 1
  O        0.3130990     2.3704440    -1.0483590
  N        1.7883250     1.2487180     0.2800910
  C        1.5287440    -1.3320340    -0.8115580
  C        2.5082430    -1.1273300     0.3546920
  C        0.1944906    -1.1845791    -0.4507912
  C       -0.3593510     0.2288580    -0.1728470
  C        2.1500350     0.1348000     1.1432270
  C       -1.6973100     0.4876920     0.1815770
  C        0.5874820     1.3794060    -0.3635620
  C       -0.8057180    -2.1460500    -0.2745700
  C       -2.5635920    -0.6025190     0.3218070
  C       -2.1294290    -1.9083920     0.0915650
  C       -2.2005820     1.8899870     0.4130340
  H        1.6305660    -2.3487650    -1.2074160
  H        1.8022820    -0.6509930    -1.6251500
  H        2.4785080    -1.9866810     1.0363320
  H        3.5296620    -1.0584230    -0.0385230
  H        1.3070990    -0.0748920     1.8087120
  H        2.9845300     0.4555350     1.7739000
  H        2.4430930     2.0063180     0.1171350
  H       -0.4670580    -3.1628320    -0.4675050
  H       -3.5988730    -0.4222000     0.6058720
  H       -2.8229980    -2.7393000     0.2003190
  H       -1.5534710     2.4410460     1.1016880
  H       -2.2209110     2.4548110    -0.5213210
  H       -3.2087000     1.8617690     0.8360960
units angstrom
no_reorient  #important for SAPT in psi4, default
symmetry c1  #important for SAPT in psi4, default
}

set PROPERTIES_ORIGIN ["COM"]
properties('MP2/aug-cc-pvtz', properties = ['dipole'])
--------------------------------------------------------------------------

    Molecular point group: c1
  Charge       = 0
  Multiplicity = 1
  Basis Set: AUG-CC-PVTZ
    Blend: AUG-CC-PVTZ
  Basis Set: (AUG-CC-PVTZ AUX)
    Blend: AUG-CC-PVTZ-JKFIT

    Orbital Energies [Eh]
    ---------------------

    Doubly Occupied:

       1A    -20.510811     2A    -15.582271     3A    -11.347825
       4A    -11.275495     5A    -11.262594     6A    -11.253289
       7A    -11.250412     8A    -11.245393     9A    -11.241024
      10A    -11.237483    11A    -11.235040    12A    -11.234382
      13A    -11.215821    14A     -1.365703    15A     -1.234762
      16A     -1.157911    17A     -1.100599    18A     -1.043836
      19A     -1.023702    20A     -0.944528    21A     -0.935526
      22A     -0.877582    23A     -0.834064    24A     -0.786186
      25A     -0.755045    26A     -0.695214    27A     -0.685867
      28A     -0.664298    29A     -0.660248    30A     -0.619273
      31A     -0.614547    32A     -0.593165    33A     -0.586020
      34A     -0.571328    35A     -0.563709    36A     -0.555621
      37A     -0.535636    38A     -0.528930    39A     -0.516139
      40A     -0.508407    41A     -0.494087    42A     -0.473285
      43A     -0.468506    44A     -0.411507    45A     -0.385679
      46A     -0.332744    47A     -0.319680

  @DF-RHF Final Energy:  -553.61442530589625

   => Energetics <=

    Nuclear Repulsion Energy =            794.7006155189426408
    One-Electron Energy =               -2329.1597272660765157
    Two-Electron Energy =                 980.8446864412376272
    Total Energy =                       -553.6144253058962477
  Basis Set: (AUG-CC-PVTZ AUX)
    Blend: AUG-CC-PVTZ-RI
    Molecular point group: c1

    Geometry (in Angstrom), charge = 0, multiplicity = 1:

       Center              X                  Y                   Z               Mass
    ------------   -----------------  -----------------  -----------------  -----------------
         O            0.319221534013     2.359083803827    -1.025475322478    15.994914619570
         N            1.794447534013     1.237357803827     0.302974677522    14.003074004430
         C            1.534866534013    -1.343394196173    -0.788674322478    12.000000000000
         C            2.514365534013    -1.138690196173     0.377575677522    12.000000000000
         C            0.200613134013    -1.195939296173    -0.427907522478    12.000000000000
         C           -0.353228465987     0.217497803827    -0.149963322478    12.000000000000
         C            2.156157534013     0.123439803827     1.166110677522    12.000000000000
         C           -1.691187465987     0.476331803827     0.204460677522    12.000000000000
         C            0.593604534013     1.368045803827    -0.340678322478    12.000000000000
         C           -0.799595465987    -2.157410196173    -0.251686322478    12.000000000000
         C           -2.557469465987    -0.613879196173     0.344690677522    12.000000000000
         C           -2.123306465987    -1.919752196173     0.114448677522    12.000000000000
         C           -2.194459465987     1.878626803827     0.435917677522    12.000000000000
         H            1.636688534013    -2.360125196173    -1.184532322478     1.007825032230
         H            1.808404534013    -0.662353196173    -1.602266322478     1.007825032230
         H            2.484630534013    -1.998041196173     1.059215677522     1.007825032230
         H            3.535784534013    -1.069783196173    -0.015639322478     1.007825032230
         H            1.313221534013    -0.086252196173     1.831595677522     1.007825032230
         H            2.990652534013     0.444174803827     1.796783677522     1.007825032230
         H            2.449215534013     1.994957803827     0.140018677522     1.007825032230
         H           -0.460935465987    -3.174192196173    -0.444621322478     1.007825032230
         H           -3.592750465987    -0.433560196173     0.628755677522     1.007825032230
         H           -2.816875465987    -2.750660196173     0.223202677522     1.007825032230
         H           -1.547348465987     2.429685803827     1.124571677522     1.007825032230
         H           -2.214788465987     2.443450803827    -0.498437322478     1.007825032230
         H           -3.202577465987     1.850408803827     0.858979677522     1.007825032230

  Basis Set: AUG-CC-PVTZ
    Blend: AUG-CC-PVTZ
  Basis Set: (AUG-CC-PVTZ AUX)
    Blend: AUG-CC-PVTZ-JKFIT
	 Reference Energy          =    -553.6144253058962477 [Eh]
	 Singles Energy            =      -0.0000000000000000 [Eh]
	 Same-Spin Energy          =      -0.6064300002071595 [Eh]
	 Opposite-Spin Energy      =      -1.9068724903979000 [Eh]
	 Correlation Energy        =      -2.5133024906050596 [Eh]
	 Total Energy              =    -556.1277277965012900 [Eh]

	 ================> DF-SCS-MP2 Energies <==================
	-----------------------------------------------------------
	 SCS Same-Spin Scale       =       0.3333333333333333 [-]
	 SCS Opposite-Spin Scale   =       1.2000000000000000 [-]
	 SCS Same-Spin Energy      =      -0.2021433334023865 [Eh]
	 SCS Opposite-Spin Energy  =      -2.2882469884774799 [Eh]
	 SCS Correlation Energy    =      -2.4903903218798664 [Eh]
	 SCS Total Energy          =    -556.1048156277761336 [Eh]
	-----------------------------------------------------------

  Dipole Moment: [D]
     X:     1.8240      Y:    -2.5444      Z:     2.1967     Total:     3.8245

*** Psi4 exiting successfully. Buy a developer a beer!
