                               Psi4 1.4a3.dev225

  ==> Input File <==

--------------------------------------------------------------------------
#psi4
#
memory 32 gb

molecule  {
0 1
  O        0.3130990     2.3704440    -1.0483590
  N        1.7883250     1.2487180     0.2800910
  C        1.5287440    -1.3320340    -0.8115580
  C        2.5082430    -1.1273300     0.3546920
  C        0.0936770    -1.0844130    -0.4156830
  C       -0.3593510     0.2288580    -0.1728470
  C        2.1500350     0.1348000     1.1432270
  C       -1.6973100     0.4876920     0.1815770
  C        0.5874820     1.3794060    -0.3635620
  C       -0.8057180    -2.1460500    -0.2745700
  C       -2.5635920    -0.6025190     0.3218070
  C       -2.2243987    -1.8913412     0.1178334
  C       -2.2005820     1.8899870     0.4130340
  H        1.6305660    -2.3487650    -1.2074160
  H        1.8022820    -0.6509930    -1.6251500
  H        2.4785080    -1.9866810     1.0363320
  H        3.5296620    -1.0584230    -0.0385230
  H        1.3070990    -0.0748920     1.8087120
  H        2.9845300     0.4555350     1.7739000
  H        2.4430930     2.0063180     0.1171350
  H       -0.4670580    -3.1628320    -0.4675050
  H       -3.5988730    -0.4222000     0.6058720
  H       -2.8229980    -2.7393000     0.2003190
  H       -1.5534710     2.4410460     1.1016880
  H       -2.2209110     2.4548110    -0.5213210
  H       -3.2087000     1.8617690     0.8360960
units angstrom
no_reorient  #important for SAPT in psi4, default
symmetry c1  #important for SAPT in psi4, default
}

set PROPERTIES_ORIGIN ["COM"]
properties('MP2/aug-cc-pvtz', properties = ['dipole'])
--------------------------------------------------------------------------

    Molecular point group: c1
  Charge       = 0
  Multiplicity = 1
  Basis Set: AUG-CC-PVTZ
    Blend: AUG-CC-PVTZ
  Basis Set: (AUG-CC-PVTZ AUX)
    Blend: AUG-CC-PVTZ-JKFIT

    Orbital Energies [Eh]
    ---------------------

    Doubly Occupied:

       1A    -20.512880     2A    -15.582949     3A    -11.350404
       4A    -11.274736     5A    -11.255499     6A    -11.252613
       7A    -11.245688     8A    -11.243127     9A    -11.242658
      10A    -11.237539    11A    -11.236679    12A    -11.230058
      13A    -11.216849    14A     -1.367692    15A     -1.235309
      16A     -1.160608    17A     -1.085729    18A     -1.038964
      19A     -1.030958    20A     -0.943055    21A     -0.932931
      22A     -0.871371    23A     -0.833146    24A     -0.783985
      25A     -0.771225    26A     -0.692235    27A     -0.682057
      28A     -0.669004    29A     -0.657535    30A     -0.618760
      31A     -0.613125    32A     -0.598515    33A     -0.583646
      34A     -0.569775    35A     -0.561653    36A     -0.552542
      37A     -0.531211    38A     -0.524676    39A     -0.518761
      40A     -0.508368    41A     -0.490119    42A     -0.476502
      43A     -0.465727    44A     -0.417921    45A     -0.386072
      46A     -0.342723    47A     -0.319846

  @DF-RHF Final Energy:  -553.63130213121076

   => Energetics <=

    Nuclear Repulsion Energy =            794.8324380370562494
    One-Electron Energy =               -2329.4926258623149806
    Two-Electron Energy =                 981.0288856940478581
    Total Energy =                       -553.6313021312107594
  Basis Set: (AUG-CC-PVTZ AUX)
    Blend: AUG-CC-PVTZ-RI
    Molecular point group: c1

    Geometry (in Angstrom), charge = 0, multiplicity = 1:

       Center              X                  Y                   Z               Mass
    ------------   -----------------  -----------------  -----------------  -----------------
         O            0.332639029369     2.351050650788    -1.029681606903    15.994914619570
         N            1.807865029369     1.229324650788     0.298768393097    14.003074004430
         C            1.548284029369    -1.351427349212    -0.792880606903    12.000000000000
         C            2.527783029369    -1.146723349212     0.373369393097    12.000000000000
         C            0.113217029369    -1.103806349212    -0.397005606903    12.000000000000
         C           -0.339810970631     0.209464650788    -0.154169606903    12.000000000000
         C            2.169575029369     0.115406650788     1.161904393097    12.000000000000
         C           -1.677769970631     0.468298650788     0.200254393097    12.000000000000
         C            0.607022029369     1.360012650788    -0.344884606903    12.000000000000
         C           -0.786177970631    -2.165443349212    -0.255892606903    12.000000000000
         C           -2.544051970631    -0.621912349212     0.340484393097    12.000000000000
         C           -2.204858670631    -1.910734549212     0.136510793097    12.000000000000
         C           -2.181041970631     1.870593650788     0.431711393097    12.000000000000
         H            1.650106029369    -2.368158349212    -1.188738606903     1.007825032230
         H            1.821822029369    -0.670386349212    -1.606472606903     1.007825032230
         H            2.498048029369    -2.006074349212     1.055009393097     1.007825032230
         H            3.549202029369    -1.077816349212    -0.019845606903     1.007825032230
         H            1.326639029369    -0.094285349212     1.827389393097     1.007825032230
         H            3.004070029369     0.436141650788     1.792577393097     1.007825032230
         H            2.462633029369     1.986924650788     0.135812393097     1.007825032230
         H           -0.447517970631    -3.182225349212    -0.448827606903     1.007825032230
         H           -3.579332970631    -0.441593349212     0.624549393097     1.007825032230
         H           -2.803457970631    -2.758693349212     0.218996393097     1.007825032230
         H           -1.533930970631     2.421652650788     1.120365393097     1.007825032230
         H           -2.201370970631     2.435417650788    -0.502643606903     1.007825032230
         H           -3.189159970631     1.842375650788     0.854773393097     1.007825032230

  Basis Set: AUG-CC-PVTZ
    Blend: AUG-CC-PVTZ
  Basis Set: (AUG-CC-PVTZ AUX)
    Blend: AUG-CC-PVTZ-JKFIT
	 Reference Energy          =    -553.6313021312107594 [Eh]
	 Singles Energy            =      -0.0000000000000000 [Eh]
	 Same-Spin Energy          =      -0.6040594287150601 [Eh]
	 Opposite-Spin Energy      =      -1.9040737037373074 [Eh]
	 Correlation Energy        =      -2.5081331324523677 [Eh]
	 Total Energy              =    -556.1394352636631311 [Eh]

	 ================> DF-SCS-MP2 Energies <==================
	-----------------------------------------------------------
	 SCS Same-Spin Scale       =       0.3333333333333333 [-]
	 SCS Opposite-Spin Scale   =       1.2000000000000000 [-]
	 SCS Same-Spin Energy      =      -0.2013531429050200 [Eh]
	 SCS Opposite-Spin Energy  =      -2.2848884444847690 [Eh]
	 SCS Correlation Energy    =      -2.4862415873897890 [Eh]
	 SCS Total Energy          =    -556.1175437186005865 [Eh]
	-----------------------------------------------------------

  Dipole Moment: [D]
     X:     1.7252      Y:    -2.5500      Z:     2.2056     Total:     3.7873

*** Psi4 exiting successfully. Buy a developer a beer!
