                               Psi4 1.4a3.dev225

  ==> Input File <==

--------------------------------------------------------------------------
#psi4
#
memory 32 gb

molecule  {
0 1
  O        0.3130990     2.3704440    -1.0483590
  N        1.7883250     1.2487180     0.2800910
  C        1.5287440    -1.3320340    -0.8115580
  C        2.5082430    -1.1273300     0.3546920
  C        0.0936770    -1.0844130    -0.4156830
  C       -0.3593510     0.2288580    -0.1728470
  C        2.1500350     0.1348000     1.1432270
  C       -1.6973100     0.4876920     0.1815770
  C        0.5874820     1.3794060    -0.3635620
  C       -0.8057180    -2.1460500    -0.2745700
  C       -2.5635920    -0.6025190     0.3218070
  C       -2.1294290    -1.9083920     0.0915650
  C       -2.2005820     1.8899870     0.4130340
  H        1.6305660    -2.3487650    -1.2074160
  H        1.8022820    -0.6509930    -1.6251500
  H        2.4785080    -1.9866810     1.0363320
  H        3.5296620    -1.0584230    -0.0385230
  H        1.3225056    -0.0710594     1.7965487
  H        2.9845300     0.4555350     1.7739000
  H        2.4430930     2.0063180     0.1171350
  H       -0.4670580    -3.1628320    -0.4675050
  H       -3.5988730    -0.4222000     0.6058720
  H       -2.8229980    -2.7393000     0.2003190
  H       -1.5534710     2.4410460     1.1016880
  H       -2.2209110     2.4548110    -0.5213210
  H       -3.2087000     1.8617690     0.8360960
units angstrom
no_reorient  #important for SAPT in psi4, default
symmetry c1  #important for SAPT in psi4, default
}

set PROPERTIES_ORIGIN ["COM"]
properties('MP2/aug-cc-pvtz', properties = ['dipole'])
--------------------------------------------------------------------------

    Molecular point group: c1
  Charge       = 0
  Multiplicity = 1
  Basis Set: AUG-CC-PVTZ
    Blend: AUG-CC-PVTZ
  Basis Set: (AUG-CC-PVTZ AUX)
    Blend: AUG-CC-PVTZ-JKFIT

    Orbital Energies [Eh]
    ---------------------

    Doubly Occupied:

       1A    -20.512614     2A    -15.582847     3A    -11.350264
       4A    -11.272567     5A    -11.254332     6A    -11.253516
       7A    -11.244427     8A    -11.242020     9A    -11.238207
      10A    -11.237238    11A    -11.235302    12A    -11.232717
      13A    -11.215910    14A     -1.367521    15A     -1.235443
      16A     -1.163710    17A     -1.084658    18A     -1.044761
      19A     -1.029021    20A     -0.943727    21A     -0.933611
      22A     -0.873633    23A     -0.830710    24A     -0.784873
      25A     -0.770320    26A     -0.694221    27A     -0.683720
      28A     -0.660019    29A     -0.658892    30A     -0.619637
      31A     -0.615402    32A     -0.591220    33A     -0.583969
      34A     -0.570182    35A     -0.566545    36A     -0.553132
      37A     -0.531865    38A     -0.531022    39A     -0.514056
      40A     -0.505536    41A     -0.488886    42A     -0.479392
      43A     -0.473945    44A     -0.417396    45A     -0.386123
      46A     -0.336544    47A     -0.327540

  @DF-RHF Final Energy:  -553.64333698078030

   => Energetics <=

    Nuclear Repulsion Energy =            796.0601078907260444
    One-Electron Energy =               -2331.9604948697674445
    Two-Electron Energy =                 982.2570499982609817
    Total Energy =                       -553.6433369807803047
  Basis Set: (AUG-CC-PVTZ AUX)
    Blend: AUG-CC-PVTZ-RI
    Molecular point group: c1

    Geometry (in Angstrom), charge = 0, multiplicity = 1:

       Center              X                  Y                   Z               Mass
    ------------   -----------------  -----------------  -----------------  -----------------
         O            0.326041853791     2.352197123304    -1.027811362397    15.994914619570
         N            1.801267853791     1.230471123304     0.300638637603    14.003074004430
         C            1.541686853791    -1.350280876696    -0.791010362397    12.000000000000
         C            2.521185853791    -1.145576876696     0.375239637603    12.000000000000
         C            0.106619853791    -1.102659876696    -0.395135362397    12.000000000000
         C           -0.346408146209     0.210611123304    -0.152299362397    12.000000000000
         C            2.162977853791     0.116553123304     1.163774637603    12.000000000000
         C           -1.684367146209     0.469445123304     0.202124637603    12.000000000000
         C            0.600424853791     1.361159123304    -0.343014362397    12.000000000000
         C           -0.792775146209    -2.164296876696    -0.254022362397    12.000000000000
         C           -2.550649146209    -0.620765876696     0.342354637603    12.000000000000
         C           -2.116486146209    -1.926638876696     0.112112637603    12.000000000000
         C           -2.187639146209     1.871740123304     0.433581637603    12.000000000000
         H            1.643508853791    -2.367011876696    -1.186868362397     1.007825032230
         H            1.815224853791    -0.669239876696    -1.604602362397     1.007825032230
         H            2.491450853791    -2.004927876696     1.056879637603     1.007825032230
         H            3.542604853791    -1.076669876696    -0.017975362397     1.007825032230
         H            1.335448453791    -0.089306276696     1.817096337603     1.007825032230
         H            2.997472853791     0.437288123304     1.794447637603     1.007825032230
         H            2.456035853791     1.988071123304     0.137682637603     1.007825032230
         H           -0.454115146209    -3.181078876696    -0.446957362397     1.007825032230
         H           -3.585930146209    -0.440446876696     0.626419637603     1.007825032230
         H           -2.810055146209    -2.757546876696     0.220866637603     1.007825032230
         H           -1.540528146209     2.422799123304     1.122235637603     1.007825032230
         H           -2.207968146209     2.436564123304    -0.500773362397     1.007825032230
         H           -3.195757146209     1.843522123304     0.856643637603     1.007825032230

  Basis Set: AUG-CC-PVTZ
    Blend: AUG-CC-PVTZ
  Basis Set: (AUG-CC-PVTZ AUX)
    Blend: AUG-CC-PVTZ-JKFIT
	 Reference Energy          =    -553.6433369807803047 [Eh]
	 Singles Energy            =      -0.0000000000000000 [Eh]
	 Same-Spin Energy          =      -0.6041348535391581 [Eh]
	 Opposite-Spin Energy      =      -1.9029092882447605 [Eh]
	 Correlation Energy        =      -2.5070441417839184 [Eh]
	 Total Energy              =    -556.1503811225642266 [Eh]

	 ================> DF-SCS-MP2 Energies <==================
	-----------------------------------------------------------
	 SCS Same-Spin Scale       =       0.3333333333333333 [-]
	 SCS Opposite-Spin Scale   =       1.2000000000000000 [-]
	 SCS Same-Spin Energy      =      -0.2013782845130527 [Eh]
	 SCS Opposite-Spin Energy  =      -2.2834911458937124 [Eh]
	 SCS Correlation Energy    =      -2.4848694304067651 [Eh]
	 SCS Total Energy          =    -556.1282064111870795 [Eh]
	-----------------------------------------------------------

  Dipole Moment: [D]
     X:     1.7250      Y:    -2.5416      Z:     2.2135     Total:     3.7862

*** Psi4 exiting successfully. Buy a developer a beer!
