                               Psi4 1.4a3.dev225

  ==> Input File <==

--------------------------------------------------------------------------
#psi4
#
memory 32 gb

molecule  {
0 1
  O        0.3130990     2.3704440    -1.0483590
  N        1.7883250     1.2487180     0.2800910
  C        1.5287440    -1.3320340    -0.8115580
  C        2.5082430    -1.1273300     0.3546920
  C        0.0936770    -1.0844130    -0.4156830
  C       -0.3593510     0.2288580    -0.1728470
  C        2.1500350     0.1348000     1.1432270
  C       -1.6973100     0.4876920     0.1815770
  C        0.5874820     1.3794060    -0.3635620
  C       -0.8057180    -2.1460500    -0.2745700
  C       -2.5635920    -0.6025190     0.3218070
  C       -2.1294290    -1.9083920     0.0915650
  C       -2.2005820     1.8899870     0.4130340
  H        1.6305660    -2.3487650    -1.2074160
  H        1.8022820    -0.6509930    -1.6251500
  H        2.4785080    -1.9866810     1.0363320
  H        3.5296620    -1.0584230    -0.0385230
  H        1.3070990    -0.0748920     1.8087120
  H        2.9845300     0.4555350     1.7739000
  H        2.4430930     2.0063180     0.1171350
  H       -0.4670580    -3.1628320    -0.4675050
  H       -3.5988730    -0.4222000     0.6058720
  H       -2.6954784    -2.5865292     0.1803235
  H       -1.5534710     2.4410460     1.1016880
  H       -2.2209110     2.4548110    -0.5213210
  H       -3.2087000     1.8617690     0.8360960
units angstrom
no_reorient  #important for SAPT in psi4, default
symmetry c1  #important for SAPT in psi4, default
}

set PROPERTIES_ORIGIN ["COM"]
properties('MP2/aug-cc-pvtz', properties = ['dipole'])
--------------------------------------------------------------------------

    Molecular point group: c1
  Charge       = 0
  Multiplicity = 1
  Basis Set: AUG-CC-PVTZ
    Blend: AUG-CC-PVTZ
  Basis Set: (AUG-CC-PVTZ AUX)
    Blend: AUG-CC-PVTZ-JKFIT

    Orbital Energies [Eh]
    ---------------------

    Doubly Occupied:

       1A    -20.512464     2A    -15.582819     3A    -11.350062
       4A    -11.274671     5A    -11.253338     6A    -11.252507
       7A    -11.241718     8A    -11.237762     9A    -11.237052
      10A    -11.234218    11A    -11.231638    12A    -11.220366
      13A    -11.215341    14A     -1.367347    15A     -1.235109
      16A     -1.164355    17A     -1.084554    18A     -1.051725
      19A     -1.029605    20A     -0.942724    21A     -0.932995
      22A     -0.884694    23A     -0.835258    24A     -0.789765
      25A     -0.772215    26A     -0.694666    27A     -0.685621
      28A     -0.679087    29A     -0.658825    30A     -0.621109
      31A     -0.618342    32A     -0.597271    33A     -0.583433
      34A     -0.570390    35A     -0.565688    36A     -0.552677
      37A     -0.531132    38A     -0.530644    39A     -0.513795
      40A     -0.510425    41A     -0.489518    42A     -0.478610
      43A     -0.473475    44A     -0.417417    45A     -0.385799
      46A     -0.336107    47A     -0.326667

  @DF-RHF Final Energy:  -553.60865987780437

   => Energetics <=

    Nuclear Repulsion Energy =            797.2214095792571698
    One-Electron Energy =               -2334.1501374793551804
    Two-Electron Energy =                 983.3200680222936398
    Total Energy =                       -553.6086598778043708
  Basis Set: (AUG-CC-PVTZ AUX)
    Blend: AUG-CC-PVTZ-RI
    Molecular point group: c1

    Geometry (in Angstrom), charge = 0, multiplicity = 1:

       Center              X                  Y                   Z               Mass
    ------------   -----------------  -----------------  -----------------  -----------------
         O            0.325396562687     2.351339876637    -1.027766282442    15.994914619570
         N            1.800622562687     1.229613876637     0.300683717558    14.003074004430
         C            1.541041562687    -1.351138123363    -0.790965282442    12.000000000000
         C            2.520540562687    -1.146434123363     0.375284717558    12.000000000000
         C            0.105974562687    -1.103517123363    -0.395090282442    12.000000000000
         C           -0.347053437313     0.209753876637    -0.152254282442    12.000000000000
         C            2.162332562687     0.115695876637     1.163819717558    12.000000000000
         C           -1.685012437313     0.468587876637     0.202169717558    12.000000000000
         C            0.599779562687     1.360301876637    -0.342969282442    12.000000000000
         C           -0.793420437313    -2.165154123363    -0.253977282442    12.000000000000
         C           -2.551294437313    -0.621623123363     0.342399717558    12.000000000000
         C           -2.117131437313    -1.927496123363     0.112157717558    12.000000000000
         C           -2.188284437313     1.870882876637     0.433626717558    12.000000000000
         H            1.642863562687    -2.367869123363    -1.186823282442     1.007825032230
         H            1.814579562687    -0.670097123363    -1.604557282442     1.007825032230
         H            2.490805562687    -2.005785123363     1.056924717558     1.007825032230
         H            3.541959562687    -1.077527123363    -0.017930282442     1.007825032230
         H            1.319396562687    -0.093996123363     1.829304717558     1.007825032230
         H            2.996827562687     0.436430876637     1.794492717558     1.007825032230
         H            2.455390562687     1.987213876637     0.137727717558     1.007825032230
         H           -0.454760437313    -3.181936123363    -0.446912282442     1.007825032230
         H           -3.586575437313    -0.441304123363     0.626464717558     1.007825032230
         H           -2.683180837313    -2.605633323363     0.200916217558     1.007825032230
         H           -1.541173437313     2.421941876637     1.122280717558     1.007825032230
         H           -2.208613437313     2.435706876637    -0.500728282442     1.007825032230
         H           -3.196402437313     1.842664876637     0.856688717558     1.007825032230

  Basis Set: AUG-CC-PVTZ
    Blend: AUG-CC-PVTZ
  Basis Set: (AUG-CC-PVTZ AUX)
    Blend: AUG-CC-PVTZ-JKFIT
	 Reference Energy          =    -553.6086598778043708 [Eh]
	 Singles Energy            =      -0.0000000000000000 [Eh]
	 Same-Spin Energy          =      -0.6040094117184605 [Eh]
	 Opposite-Spin Energy      =      -1.9024133966266370 [Eh]
	 Correlation Energy        =      -2.5064228083450972 [Eh]
	 Total Energy              =    -556.1150826861494352 [Eh]

	 ================> DF-SCS-MP2 Energies <==================
	-----------------------------------------------------------
	 SCS Same-Spin Scale       =       0.3333333333333333 [-]
	 SCS Opposite-Spin Scale   =       1.2000000000000000 [-]
	 SCS Same-Spin Energy      =      -0.2013364705728201 [Eh]
	 SCS Opposite-Spin Energy  =      -2.2828960759519643 [Eh]
	 SCS Correlation Energy    =      -2.4842325465247845 [Eh]
	 SCS Total Energy          =    -556.0928924243291931 [Eh]
	-----------------------------------------------------------

  Dipole Moment: [D]
     X:     1.6937      Y:    -2.5784      Z:     2.2080     Total:     3.7937

*** Psi4 exiting successfully. Buy a developer a beer!
