                               Psi4 1.4a3.dev225

  ==> Input File <==

--------------------------------------------------------------------------
#psi4
#
memory 32 gb

molecule  {
0 1
  O        0.3130990     2.3704440    -1.0483590
  N        1.7883250     1.2487180     0.2800910
  C        1.5287440    -1.3320340    -0.8115580
  C        2.5082430    -1.1273300     0.3546920
  C        0.0936770    -1.0844130    -0.4156830
  C       -0.3593510     0.2288580    -0.1728470
  C        2.1500350     0.1348000     1.1432270
  C       -1.6973100     0.4876920     0.1815770
  C        0.5874820     1.3794060    -0.3635620
  C       -0.8057180    -2.1460500    -0.2745700
  C       -2.5635920    -0.6025190     0.3218070
  C       -2.1356523    -1.8896736     0.0948653
  C       -2.2005820     1.8899870     0.4130340
  H        1.6305660    -2.3487650    -1.2074160
  H        1.8022820    -0.6509930    -1.6251500
  H        2.4785080    -1.9866810     1.0363320
  H        3.5296620    -1.0584230    -0.0385230
  H        1.3070990    -0.0748920     1.8087120
  H        2.9845300     0.4555350     1.7739000
  H        2.4430930     2.0063180     0.1171350
  H       -0.4670580    -3.1628320    -0.4675050
  H       -3.5988730    -0.4222000     0.6058720
  H       -2.8229980    -2.7393000     0.2003190
  H       -1.5534710     2.4410460     1.1016880
  H       -2.2209110     2.4548110    -0.5213210
  H       -3.2087000     1.8617690     0.8360960
units angstrom
no_reorient  #important for SAPT in psi4, default
symmetry c1  #important for SAPT in psi4, default
}

set PROPERTIES_ORIGIN ["COM"]
properties('MP2/aug-cc-pvtz', properties = ['dipole'])
--------------------------------------------------------------------------

    Molecular point group: c1
  Charge       = 0
  Multiplicity = 1
  Basis Set: AUG-CC-PVTZ
    Blend: AUG-CC-PVTZ
  Basis Set: (AUG-CC-PVTZ AUX)
    Blend: AUG-CC-PVTZ-JKFIT

    Orbital Energies [Eh]
    ---------------------

    Doubly Occupied:

       1A    -20.512614     2A    -15.582966     3A    -11.350233
       4A    -11.274869     5A    -11.254006     6A    -11.253944
       7A    -11.244047     8A    -11.241658     9A    -11.238091
      10A    -11.237293    11A    -11.235858    12A    -11.230780
      13A    -11.216096    14A     -1.367509    15A     -1.235300
      16A     -1.164452    17A     -1.085136    18A     -1.043997
      19A     -1.029711    20A     -0.943197    21A     -0.934277
      22A     -0.872331    23A     -0.830622    24A     -0.784212
      25A     -0.770027    26A     -0.694160    27A     -0.682969
      28A     -0.659444    29A     -0.659031    30A     -0.619516
      31A     -0.614457    32A     -0.591190    33A     -0.584123
      34A     -0.569879    35A     -0.566056    36A     -0.553171
      37A     -0.531544    38A     -0.530314    39A     -0.514362
      40A     -0.505045    41A     -0.488889    42A     -0.479951
      43A     -0.473182    44A     -0.417363    45A     -0.386018
      46A     -0.337801    47A     -0.326938

  @DF-RHF Final Energy:  -553.64287461507786

   => Energetics <=

    Nuclear Repulsion Energy =            796.1874357861108820
    One-Electron Energy =               -2332.2233580902307040
    Two-Electron Energy =                 982.3930476890419641
    Total Energy =                       -553.6428746150778579
  Basis Set: (AUG-CC-PVTZ AUX)
    Blend: AUG-CC-PVTZ-RI
    Molecular point group: c1

    Geometry (in Angstrom), charge = 0, multiplicity = 1:

       Center              X                  Y                   Z               Mass
    ------------   -----------------  -----------------  -----------------  -----------------
         O            0.326557027432     2.350936366192    -1.028107548365    15.994914619570
         N            1.801783027432     1.229210366192     0.300342451635    14.003074004430
         C            1.542202027432    -1.351541633808    -0.791306548365    12.000000000000
         C            2.521701027432    -1.146837633808     0.374943451635    12.000000000000
         C            0.107135027432    -1.103920633808    -0.395431548365    12.000000000000
         C           -0.345892972568     0.209350366192    -0.152595548365    12.000000000000
         C            2.163493027432     0.115292366192     1.163478451635    12.000000000000
         C           -1.683851972568     0.468184366192     0.201828451635    12.000000000000
         C            0.600940027432     1.359898366192    -0.343310548365    12.000000000000
         C           -0.792259972568    -2.165557633808    -0.254318548365    12.000000000000
         C           -2.550133972568    -0.622026633808     0.342058451635    12.000000000000
         C           -2.122194272568    -1.909181233808     0.115116751635    12.000000000000
         C           -2.187123972568     1.870479366192     0.433285451635    12.000000000000
         H            1.644024027432    -2.368272633808    -1.187164548365     1.007825032230
         H            1.815740027432    -0.670500633808    -1.604898548365     1.007825032230
         H            2.491966027432    -2.006188633808     1.056583451635     1.007825032230
         H            3.543120027432    -1.077930633808    -0.018271548365     1.007825032230
         H            1.320557027432    -0.094399633808     1.828963451635     1.007825032230
         H            2.997988027432     0.436027366192     1.794151451635     1.007825032230
         H            2.456551027432     1.986810366192     0.137386451635     1.007825032230
         H           -0.453599972568    -3.182339633808    -0.447253548365     1.007825032230
         H           -3.585414972568    -0.441707633808     0.626123451635     1.007825032230
         H           -2.809539972568    -2.758807633808     0.220570451635     1.007825032230
         H           -1.540012972568     2.421538366192     1.121939451635     1.007825032230
         H           -2.207452972568     2.435303366192    -0.501069548365     1.007825032230
         H           -3.195241972568     1.842261366192     0.856347451635     1.007825032230

  Basis Set: AUG-CC-PVTZ
    Blend: AUG-CC-PVTZ
  Basis Set: (AUG-CC-PVTZ AUX)
    Blend: AUG-CC-PVTZ-JKFIT
	 Reference Energy          =    -553.6428746150778579 [Eh]
	 Singles Energy            =      -0.0000000000000000 [Eh]
	 Same-Spin Energy          =      -0.6041531838359278 [Eh]
	 Opposite-Spin Energy      =      -1.9029903119797047 [Eh]
	 Correlation Energy        =      -2.5071434958156322 [Eh]
	 Total Energy              =    -556.1500181108934839 [Eh]

	 ================> DF-SCS-MP2 Energies <==================
	-----------------------------------------------------------
	 SCS Same-Spin Scale       =       0.3333333333333333 [-]
	 SCS Opposite-Spin Scale   =       1.2000000000000000 [-]
	 SCS Same-Spin Energy      =      -0.2013843946119759 [Eh]
	 SCS Opposite-Spin Energy  =      -2.2835883743756455 [Eh]
	 SCS Correlation Energy    =      -2.4849727689876215 [Eh]
	 SCS Total Energy          =    -556.1278473840654897 [Eh]
	-----------------------------------------------------------

  Dipole Moment: [D]
     X:     1.7303      Y:    -2.5375      Z:     2.2039     Total:     3.7803

*** Psi4 exiting successfully. Buy a developer a beer!
