                               Psi4 1.4a3.dev225

  ==> Input File <==

--------------------------------------------------------------------------
#psi4
#
memory 32 gb

molecule  {
0 1
  O        0.3130990     2.3704440    -1.0483590
  N        1.7883250     1.2487180     0.2800910
  C        1.5287440    -1.3320340    -0.8115580
  C        2.5082430    -1.1273300     0.3546920
  C        0.0936770    -1.0844130    -0.4156830
  C       -0.3593510     0.2288580    -0.1728470
  C        2.1500350     0.1348000     1.1432270
  C       -1.6973100     0.4876920     0.1815770
  C        0.5874820     1.3794060    -0.3635620
  C       -0.8057180    -2.1460500    -0.2745700
  C       -2.5635920    -0.6025190     0.3218070
  C       -2.1076773    -1.8136614     0.0957902
  C       -2.2005820     1.8899870     0.4130340
  H        1.6305660    -2.3487650    -1.2074160
  H        1.8022820    -0.6509930    -1.6251500
  H        2.4785080    -1.9866810     1.0363320
  H        3.5296620    -1.0584230    -0.0385230
  H        1.3070990    -0.0748920     1.8087120
  H        2.9845300     0.4555350     1.7739000
  H        2.4430930     2.0063180     0.1171350
  H       -0.4670580    -3.1628320    -0.4675050
  H       -3.5988730    -0.4222000     0.6058720
  H       -2.8229980    -2.7393000     0.2003190
  H       -1.5534710     2.4410460     1.1016880
  H       -2.2209110     2.4548110    -0.5213210
  H       -3.2087000     1.8617690     0.8360960
units angstrom
no_reorient  #important for SAPT in psi4, default
symmetry c1  #important for SAPT in psi4, default
}

set PROPERTIES_ORIGIN ["COM"]
properties('MP2/aug-cc-pvtz', properties = ['dipole'])
--------------------------------------------------------------------------

    Molecular point group: c1
  Charge       = 0
  Multiplicity = 1
  Basis Set: AUG-CC-PVTZ
    Blend: AUG-CC-PVTZ
  Basis Set: (AUG-CC-PVTZ AUX)
    Blend: AUG-CC-PVTZ-JKFIT

    Orbital Energies [Eh]
    ---------------------

    Doubly Occupied:

       1A    -20.512275     2A    -15.582755     3A    -11.349973
       4A    -11.274898     5A    -11.255170     6A    -11.253832
       7A    -11.241846     8A    -11.240043     9A    -11.237877
      10A    -11.237268    11A    -11.234047    12A    -11.223712
      13A    -11.216570    14A     -1.367226    15A     -1.235195
      16A     -1.171340    17A     -1.087457    18A     -1.045863
      19A     -1.032575    20A     -0.943875    21A     -0.939151
      22A     -0.868677    23A     -0.831337    24A     -0.782180
      25A     -0.770124    26A     -0.696641    27A     -0.684732
      28A     -0.661282    29A     -0.653566    30A     -0.620741
      31A     -0.613528    32A     -0.588444    33A     -0.585533
      34A     -0.570380    35A     -0.565974    36A     -0.553863
      37A     -0.533600    38A     -0.531965    39A     -0.515829
      40A     -0.497668    41A     -0.486854    42A     -0.485672
      43A     -0.469439    44A     -0.416467    45A     -0.386031
      46A     -0.343945    47A     -0.326534

  @DF-RHF Final Energy:  -553.63163722689717

   => Energetics <=

    Nuclear Repulsion Energy =            797.9061932922875258
    One-Electron Energy =               -2335.6277528751352293
    Two-Electron Energy =                 984.0899223559505344
    Total Energy =                       -553.6316372268971691
  Basis Set: (AUG-CC-PVTZ AUX)
    Blend: AUG-CC-PVTZ-RI
    Molecular point group: c1

    Geometry (in Angstrom), charge = 0, multiplicity = 1:

       Center              X                  Y                   Z               Mass
    ------------   -----------------  -----------------  -----------------  -----------------
         O            0.324639834124     2.345727069278    -1.028170933962    15.994914619570
         N            1.799865834124     1.224001069278     0.300279066038    14.003074004430
         C            1.540284834124    -1.356750930722    -0.791369933962    12.000000000000
         C            2.519783834124    -1.152046930722     0.374880066038    12.000000000000
         C            0.105217834124    -1.109129930722    -0.395494933962    12.000000000000
         C           -0.347810165876     0.204141069278    -0.152658933962    12.000000000000
         C            2.161575834124     0.110083069278     1.163415066038    12.000000000000
         C           -1.685769165876     0.462975069278     0.201765066038    12.000000000000
         C            0.599022834124     1.354689069278    -0.343373933962    12.000000000000
         C           -0.794177165876    -2.170766930722    -0.254381933962    12.000000000000
         C           -2.552051165876    -0.627235930722     0.341995066038    12.000000000000
         C           -2.096136465876    -1.838378330722     0.115978266038    12.000000000000
         C           -2.189041165876     1.865270069278     0.433222066038    12.000000000000
         H            1.642106834124    -2.373481930722    -1.187227933962     1.007825032230
         H            1.813822834124    -0.675709930722    -1.604961933962     1.007825032230
         H            2.490048834124    -2.011397930722     1.056520066038     1.007825032230
         H            3.541202834124    -1.083139930722    -0.018334933962     1.007825032230
         H            1.318639834124    -0.099608930722     1.828900066038     1.007825032230
         H            2.996070834124     0.430818069278     1.794088066038     1.007825032230
         H            2.454633834124     1.981601069278     0.137323066038     1.007825032230
         H           -0.455517165876    -3.187548930722    -0.447316933962     1.007825032230
         H           -3.587332165876    -0.446916930722     0.626060066038     1.007825032230
         H           -2.811457165876    -2.764016930722     0.220507066038     1.007825032230
         H           -1.541930165876     2.416329069278     1.121876066038     1.007825032230
         H           -2.209370165876     2.430094069278    -0.501132933962     1.007825032230
         H           -3.197159165876     1.837052069278     0.856284066038     1.007825032230

  Basis Set: AUG-CC-PVTZ
    Blend: AUG-CC-PVTZ
  Basis Set: (AUG-CC-PVTZ AUX)
    Blend: AUG-CC-PVTZ-JKFIT
	 Reference Energy          =    -553.6316372268971691 [Eh]
	 Singles Energy            =      -0.0000000000000000 [Eh]
	 Same-Spin Energy          =      -0.6041900487828182 [Eh]
	 Opposite-Spin Energy      =      -1.9028990208261694 [Eh]
	 Correlation Energy        =      -2.5070890696089876 [Eh]
	 Total Energy              =    -556.1387262965062064 [Eh]

	 ================> DF-SCS-MP2 Energies <==================
	-----------------------------------------------------------
	 SCS Same-Spin Scale       =       0.3333333333333333 [-]
	 SCS Opposite-Spin Scale   =       1.2000000000000000 [-]
	 SCS Same-Spin Energy      =      -0.2013966829276061 [Eh]
	 SCS Opposite-Spin Energy  =      -2.2834788249914033 [Eh]
	 SCS Correlation Energy    =      -2.4848755079190092 [Eh]
	 SCS Total Energy          =    -556.1165127348161832 [Eh]
	-----------------------------------------------------------

  Dipole Moment: [D]
     X:     1.7625      Y:    -2.4972      Z:     2.1961     Total:     3.7637

*** Psi4 exiting successfully. Buy a developer a beer!
