                               Psi4 1.4a3.dev225

  ==> Input File <==

--------------------------------------------------------------------------
#psi4
#
memory 32 gb

molecule  {
0 1
  O        0.2746052     2.3529668    -1.0568705
  N        1.7883250     1.2487180     0.2800910
  C        1.5287440    -1.3320340    -0.8115580
  C        2.5082430    -1.1273300     0.3546920
  C        0.0936770    -1.0844130    -0.4156830
  C       -0.3593510     0.2288580    -0.1728470
  C        2.1500350     0.1348000     1.1432270
  C       -1.6973100     0.4876920     0.1815770
  C        0.5874820     1.3794060    -0.3635620
  C       -0.8057180    -2.1460500    -0.2745700
  C       -2.5635920    -0.6025190     0.3218070
  C       -2.1294290    -1.9083920     0.0915650
  C       -2.2005820     1.8899870     0.4130340
  H        1.6305660    -2.3487650    -1.2074160
  H        1.8022820    -0.6509930    -1.6251500
  H        2.4785080    -1.9866810     1.0363320
  H        3.5296620    -1.0584230    -0.0385230
  H        1.3070990    -0.0748920     1.8087120
  H        2.9845300     0.4555350     1.7739000
  H        2.4430930     2.0063180     0.1171350
  H       -0.4670580    -3.1628320    -0.4675050
  H       -3.5988730    -0.4222000     0.6058720
  H       -2.8229980    -2.7393000     0.2003190
  H       -1.5534710     2.4410460     1.1016880
  H       -2.2209110     2.4548110    -0.5213210
  H       -3.2087000     1.8617690     0.8360960
units angstrom
no_reorient  #important for SAPT in psi4, default
symmetry c1  #important for SAPT in psi4, default
}

set PROPERTIES_ORIGIN ["COM"]
properties('MP2/aug-cc-pvtz', properties = ['dipole'])
--------------------------------------------------------------------------

    Molecular point group: c1
  Charge       = 0
  Multiplicity = 1
  Basis Set: AUG-CC-PVTZ
    Blend: AUG-CC-PVTZ
  Basis Set: (AUG-CC-PVTZ AUX)
    Blend: AUG-CC-PVTZ-JKFIT

    Orbital Energies [Eh]
    ---------------------

    Doubly Occupied:

       1A    -20.513581     2A    -15.585434     3A    -11.350768
       4A    -11.276132     5A    -11.253092     6A    -11.252294
       7A    -11.243340     8A    -11.240543     9A    -11.238240
      10A    -11.237643    11A    -11.234497    12A    -11.231911
      13A    -11.214880    14A     -1.367683    15A     -1.237757
      16A     -1.162787    17A     -1.084482    18A     -1.043746
      19A     -1.028481    20A     -0.942961    21A     -0.932934
      22A     -0.873170    23A     -0.830038    24A     -0.784705
      25A     -0.769702    26A     -0.694249    27A     -0.683241
      28A     -0.660063    29A     -0.658636    30A     -0.619479
      31A     -0.615756    32A     -0.591028    33A     -0.583892
      34A     -0.569193    35A     -0.565721    36A     -0.552958
      37A     -0.531312    38A     -0.530072    39A     -0.513703
      40A     -0.505206    41A     -0.488806    42A     -0.478663
      43A     -0.473298    44A     -0.417300    45A     -0.387966
      46A     -0.335015    47A     -0.326688

  @DF-RHF Final Energy:  -553.64267560313567

   => Energetics <=

    Nuclear Repulsion Energy =            796.2713823125120598
    One-Electron Energy =               -2332.4020279854307773
    Two-Electron Energy =                 982.4879700697830458
    Total Energy =                       -553.6426756031356717
  Basis Set: (AUG-CC-PVTZ AUX)
    Blend: AUG-CC-PVTZ-RI
    Molecular point group: c1

    Geometry (in Angstrom), charge = 0, multiplicity = 1:

       Center              X                  Y                   Z               Mass
    ------------   -----------------  -----------------  -----------------  -----------------
         O            0.291153040841     2.336338480556    -1.035615367024    15.994914619570
         N            1.804872840841     1.232089680556     0.301346132976    14.003074004430
         C            1.545291840841    -1.348662319444    -0.790302867024    12.000000000000
         C            2.524790840841    -1.143958319444     0.375947132976    12.000000000000
         C            0.110224840841    -1.101041319444    -0.394427867024    12.000000000000
         C           -0.342803159159     0.212229680556    -0.151591867024    12.000000000000
         C            2.166582840841     0.118171680556     1.164482132976    12.000000000000
         C           -1.680762159159     0.471063680556     0.202832132976    12.000000000000
         C            0.604029840841     1.362777680556    -0.342306867024    12.000000000000
         C           -0.789170159159    -2.162678319444    -0.253314867024    12.000000000000
         C           -2.547044159159    -0.619147319444     0.343062132976    12.000000000000
         C           -2.112881159159    -1.925020319444     0.112820132976    12.000000000000
         C           -2.184034159159     1.873358680556     0.434289132976    12.000000000000
         H            1.647113840841    -2.365393319444    -1.186160867024     1.007825032230
         H            1.818829840841    -0.667621319444    -1.603894867024     1.007825032230
         H            2.495055840841    -2.003309319444     1.057587132976     1.007825032230
         H            3.546209840841    -1.075051319444    -0.017267867024     1.007825032230
         H            1.323646840841    -0.091520319444     1.829967132976     1.007825032230
         H            3.001077840841     0.438906680556     1.795155132976     1.007825032230
         H            2.459640840841     1.989689680556     0.138390132976     1.007825032230
         H           -0.450510159159    -3.179460319444    -0.446249867024     1.007825032230
         H           -3.582325159159    -0.438828319444     0.627127132976     1.007825032230
         H           -2.806450159159    -2.755928319444     0.221574132976     1.007825032230
         H           -1.536923159159     2.424417680556     1.122943132976     1.007825032230
         H           -2.204363159159     2.438182680556    -0.500065867024     1.007825032230
         H           -3.192152159159     1.845140680556     0.857351132976     1.007825032230

  Basis Set: AUG-CC-PVTZ
    Blend: AUG-CC-PVTZ
  Basis Set: (AUG-CC-PVTZ AUX)
    Blend: AUG-CC-PVTZ-JKFIT
	 Reference Energy          =    -553.6426756031356717 [Eh]
	 Singles Energy            =      -0.0000000000000000 [Eh]
	 Same-Spin Energy          =      -0.6042897356391633 [Eh]
	 Opposite-Spin Energy      =      -1.9032689486881953 [Eh]
	 Correlation Energy        =      -2.5075586843273587 [Eh]
	 Total Energy              =    -556.1502342874630358 [Eh]

	 ================> DF-SCS-MP2 Energies <==================
	-----------------------------------------------------------
	 SCS Same-Spin Scale       =       0.3333333333333333 [-]
	 SCS Opposite-Spin Scale   =       1.2000000000000000 [-]
	 SCS Same-Spin Energy      =      -0.2014299118797211 [Eh]
	 SCS Opposite-Spin Energy  =      -2.2839227384258343 [Eh]
	 SCS Correlation Energy    =      -2.4853526503055554 [Eh]
	 SCS Total Energy          =    -556.1280282534412436 [Eh]
	-----------------------------------------------------------

  Dipole Moment: [D]
     X:     1.8540      Y:    -2.4681      Z:     2.2173     Total:     3.8006

*** Psi4 exiting successfully. Buy a developer a beer!
