                               Psi4 1.4a3.dev225

  ==> Input File <==

--------------------------------------------------------------------------
#psi4
#
memory 32 gb

molecule  {
0 1
  O        0.3130990     2.3704440    -1.0483590
  N        1.7883250     1.2487180     0.2800910
  C        1.5287440    -1.3320340    -0.8115580
  C        2.5082430    -1.1273300     0.3546920
  C        0.0936770    -1.0844130    -0.4156830
  C       -0.3593510     0.2288580    -0.1728470
  C        2.1500350     0.1348000     1.1432270
  C       -1.6973100     0.4876920     0.1815770
  C        0.5874820     1.3794060    -0.3635620
  C       -0.8057180    -2.1460500    -0.2745700
  C       -2.5635920    -0.6025190     0.3218070
  C       -2.1338627    -1.9322737     0.0902290
  C       -2.2005820     1.8899870     0.4130340
  H        1.6305660    -2.3487650    -1.2074160
  H        1.8022820    -0.6509930    -1.6251500
  H        2.4785080    -1.9866810     1.0363320
  H        3.5296620    -1.0584230    -0.0385230
  H        1.3070990    -0.0748920     1.8087120
  H        2.9845300     0.4555350     1.7739000
  H        2.4430930     2.0063180     0.1171350
  H       -0.4670580    -3.1628320    -0.4675050
  H       -3.5988730    -0.4222000     0.6058720
  H       -2.8229980    -2.7393000     0.2003190
  H       -1.5534710     2.4410460     1.1016880
  H       -2.2209110     2.4548110    -0.5213210
  H       -3.2087000     1.8617690     0.8360960
units angstrom
no_reorient  #important for SAPT in psi4, default
symmetry c1  #important for SAPT in psi4, default
}

set PROPERTIES_ORIGIN ["COM"]
properties('MP2/aug-cc-pvtz', properties = ['dipole'])
--------------------------------------------------------------------------

    Molecular point group: c1
  Charge       = 0
  Multiplicity = 1
  Basis Set: AUG-CC-PVTZ
    Blend: AUG-CC-PVTZ
  Basis Set: (AUG-CC-PVTZ AUX)
    Blend: AUG-CC-PVTZ-JKFIT

    Orbital Energies [Eh]
    ---------------------

    Doubly Occupied:

       1A    -20.512858     2A    -15.583176     3A    -11.350464
       4A    -11.274950     5A    -11.254510     6A    -11.253144
       7A    -11.245118     8A    -11.242562     9A    -11.238408
      10A    -11.237461    11A    -11.235815    12A    -11.234878
      13A    -11.215774    14A     -1.367735    15A     -1.235456
      16A     -1.162200    17A     -1.084105    18A     -1.044629
      19A     -1.027802    20A     -0.943100    21A     -0.931793
      22A     -0.875029    23A     -0.829988    24A     -0.785606
      25A     -0.769928    26A     -0.693418    27A     -0.682759
      28A     -0.661735    29A     -0.658434    30A     -0.619525
      31A     -0.616346    32A     -0.592082    33A     -0.583426
      34A     -0.570177    35A     -0.565498    36A     -0.552952
      37A     -0.531504    38A     -0.530150    39A     -0.513252
      40A     -0.506738    41A     -0.489179    42A     -0.477985
      43A     -0.473388    44A     -0.417674    45A     -0.386101
      46A     -0.335398    47A     -0.327203

  @DF-RHF Final Energy:  -553.64210788174046

   => Energetics <=

    Nuclear Repulsion Energy =            795.5187244764242678
    One-Electron Energy =               -2330.8788385071288758
    Two-Electron Energy =                 981.7180061489641503
    Total Energy =                       -553.6421078817404577
  Basis Set: (AUG-CC-PVTZ AUX)
    Blend: AUG-CC-PVTZ-RI
    Molecular point group: c1

    Geometry (in Angstrom), charge = 0, multiplicity = 1:

       Center              X                  Y                   Z               Mass
    ------------   -----------------  -----------------  -----------------  -----------------
         O            0.326434381886     2.353855852399    -1.027789811695    15.994914619570
         N            1.801660381886     1.232129852399     0.300660188305    14.003074004430
         C            1.542079381886    -1.348622147601    -0.790988811695    12.000000000000
         C            2.521578381886    -1.143918147601     0.375261188305    12.000000000000
         C            0.107012381886    -1.101001147601    -0.395113811695    12.000000000000
         C           -0.346015618114     0.212269852399    -0.152277811695    12.000000000000
         C            2.163370381886     0.118211852399     1.163796188305    12.000000000000
         C           -1.683974618114     0.471103852399     0.202146188305    12.000000000000
         C            0.600817381886     1.362817852399    -0.342992811695    12.000000000000
         C           -0.792382618114    -2.162638147601    -0.254000811695    12.000000000000
         C           -2.550256618114    -0.619107147601     0.342376188305    12.000000000000
         C           -2.120527318114    -1.948861847601     0.110798188305    12.000000000000
         C           -2.187246618114     1.873398852399     0.433603188305    12.000000000000
         H            1.643901381886    -2.365353147601    -1.186846811695     1.007825032230
         H            1.815617381886    -0.667581147601    -1.604580811695     1.007825032230
         H            2.491843381886    -2.003269147601     1.056901188305     1.007825032230
         H            3.542997381886    -1.075011147601    -0.017953811695     1.007825032230
         H            1.320434381886    -0.091480147601     1.829281188305     1.007825032230
         H            2.997865381886     0.438946852399     1.794469188305     1.007825032230
         H            2.456428381886     1.989729852399     0.137704188305     1.007825032230
         H           -0.453722618114    -3.179420147601    -0.446935811695     1.007825032230
         H           -3.585537618114    -0.438788147601     0.626441188305     1.007825032230
         H           -2.809662618114    -2.755888147601     0.220888188305     1.007825032230
         H           -1.540135618114     2.424457852399     1.122257188305     1.007825032230
         H           -2.207575618114     2.438222852399    -0.500751811695     1.007825032230
         H           -3.195364618114     1.845180852399     0.856665188305     1.007825032230

  Basis Set: AUG-CC-PVTZ
    Blend: AUG-CC-PVTZ
  Basis Set: (AUG-CC-PVTZ AUX)
    Blend: AUG-CC-PVTZ-JKFIT
	 Reference Energy          =    -553.6421078817404577 [Eh]
	 Singles Energy            =      -0.0000000000000000 [Eh]
	 Same-Spin Energy          =      -0.6042232119478012 [Eh]
	 Opposite-Spin Energy      =      -1.9033418006996401 [Eh]
	 Correlation Energy        =      -2.5075650126474414 [Eh]
	 Total Energy              =    -556.1496728943878907 [Eh]

	 ================> DF-SCS-MP2 Energies <==================
	-----------------------------------------------------------
	 SCS Same-Spin Scale       =       0.3333333333333333 [-]
	 SCS Opposite-Spin Scale   =       1.2000000000000000 [-]
	 SCS Same-Spin Energy      =      -0.2014077373159337 [Eh]
	 SCS Opposite-Spin Energy  =      -2.2840101608395682 [Eh]
	 SCS Correlation Energy    =      -2.4854178981555020 [Eh]
	 SCS Total Energy          =    -556.1275257798959046 [Eh]
	-----------------------------------------------------------

  Dipole Moment: [D]
     X:     1.7255      Y:    -2.5425      Z:     2.2064     Total:     3.7828

*** Psi4 exiting successfully. Buy a developer a beer!
