                               Psi4 1.4a3.dev225

  ==> Input File <==

--------------------------------------------------------------------------
#psi4
#
memory 32 gb

molecule  {
0 1
  O        0.3130990     2.3704440    -1.0483590
  N        1.7883250     1.2487180     0.2800910
  C        1.5217332    -1.3557580    -0.8011973
  C        2.5082430    -1.1273300     0.3546920
  C        0.0936770    -1.0844130    -0.4156830
  C       -0.3593510     0.2288580    -0.1728470
  C        2.1500350     0.1348000     1.1432270
  C       -1.6973100     0.4876920     0.1815770
  C        0.5874820     1.3794060    -0.3635620
  C       -0.8057180    -2.1460500    -0.2745700
  C       -2.5635920    -0.6025190     0.3218070
  C       -2.1294290    -1.9083920     0.0915650
  C       -2.2005820     1.8899870     0.4130340
  H        1.6305660    -2.3487650    -1.2074160
  H        1.8022820    -0.6509930    -1.6251500
  H        2.4785080    -1.9866810     1.0363320
  H        3.5296620    -1.0584230    -0.0385230
  H        1.3070990    -0.0748920     1.8087120
  H        2.9845300     0.4555350     1.7739000
  H        2.4430930     2.0063180     0.1171350
  H       -0.4670580    -3.1628320    -0.4675050
  H       -3.5988730    -0.4222000     0.6058720
  H       -2.8229980    -2.7393000     0.2003190
  H       -1.5534710     2.4410460     1.1016880
  H       -2.2209110     2.4548110    -0.5213210
  H       -3.2087000     1.8617690     0.8360960
units angstrom
no_reorient  #important for SAPT in psi4, default
symmetry c1  #important for SAPT in psi4, default
}

set PROPERTIES_ORIGIN ["COM"]
properties('MP2/aug-cc-pvtz', properties = ['dipole'])
--------------------------------------------------------------------------

    Molecular point group: c1
  Charge       = 0
  Multiplicity = 1
  Basis Set: AUG-CC-PVTZ
    Blend: AUG-CC-PVTZ
  Basis Set: (AUG-CC-PVTZ AUX)
    Blend: AUG-CC-PVTZ-JKFIT

    Orbital Energies [Eh]
    ---------------------

    Doubly Occupied:

       1A    -20.512618     2A    -15.583012     3A    -11.350281
       4A    -11.275243     5A    -11.254255     6A    -11.253685
       7A    -11.244303     8A    -11.242336     9A    -11.238548
      10A    -11.237480    11A    -11.234935    12A    -11.232663
      13A    -11.215989    14A     -1.367499    15A     -1.235236
      16A     -1.163931    17A     -1.085077    18A     -1.044665
      19A     -1.028762    20A     -0.943772    21A     -0.932963
      22A     -0.873966    23A     -0.829735    24A     -0.784677
      25A     -0.770308    26A     -0.693850    27A     -0.683187
      28A     -0.659642    29A     -0.658185    30A     -0.620903
      31A     -0.615281    32A     -0.590619    33A     -0.583645
      34A     -0.570814    35A     -0.565743    36A     -0.554376
      37A     -0.531068    38A     -0.529487    39A     -0.513436
      40A     -0.505585    41A     -0.490700    42A     -0.477268
      43A     -0.474314    44A     -0.417302    45A     -0.385989
      46A     -0.336331    47A     -0.327307

  @DF-RHF Final Energy:  -553.64244956851633

   => Energetics <=

    Nuclear Repulsion Energy =            795.9015300054124964
    One-Electron Energy =               -2331.6460190932543810
    Two-Electron Energy =                 982.1020395193255581
    Total Energy =                       -553.6424495685163265
  Basis Set: (AUG-CC-PVTZ AUX)
    Blend: AUG-CC-PVTZ-RI
    Molecular point group: c1

    Geometry (in Angstrom), charge = 0, multiplicity = 1:

       Center              X                  Y                   Z               Mass
    ------------   -----------------  -----------------  -----------------  -----------------
         O            0.326610996680     2.353845044843    -1.028591414375    15.994914619570
         N            1.801836996680     1.232119044843     0.299858585625    14.003074004430
         C            1.535245196680    -1.372356955157    -0.781429714375    12.000000000000
         C            2.521754996680    -1.143928955157     0.374459585625    12.000000000000
         C            0.107188996680    -1.101011955157    -0.395915414375    12.000000000000
         C           -0.345839003320     0.212259044843    -0.153079414375    12.000000000000
         C            2.163546996680     0.118201044843     1.162994585625    12.000000000000
         C           -1.683798003320     0.471093044843     0.201344585625    12.000000000000
         C            0.600993996680     1.362807044843    -0.343794414375    12.000000000000
         C           -0.792206003320    -2.162648955157    -0.254802414375    12.000000000000
         C           -2.550080003320    -0.619117955157     0.341574585625    12.000000000000
         C           -2.115917003320    -1.924990955157     0.111332585625    12.000000000000
         C           -2.187070003320     1.873388044843     0.432801585625    12.000000000000
         H            1.644077996680    -2.365363955157    -1.187648414375     1.007825032230
         H            1.815793996680    -0.667591955157    -1.605382414375     1.007825032230
         H            2.492019996680    -2.003279955157     1.056099585625     1.007825032230
         H            3.543173996680    -1.075021955157    -0.018755414375     1.007825032230
         H            1.320610996680    -0.091490955157     1.828479585625     1.007825032230
         H            2.998041996680     0.438936044843     1.793667585625     1.007825032230
         H            2.456604996680     1.989719044843     0.136902585625     1.007825032230
         H           -0.453546003320    -3.179430955157    -0.447737414375     1.007825032230
         H           -3.585361003320    -0.438798955157     0.625639585625     1.007825032230
         H           -2.809486003320    -2.755898955157     0.220086585625     1.007825032230
         H           -1.539959003320     2.424447044843     1.121455585625     1.007825032230
         H           -2.207399003320     2.438212044843    -0.501553414375     1.007825032230
         H           -3.195188003320     1.845170044843     0.855863585625     1.007825032230

  Basis Set: AUG-CC-PVTZ
    Blend: AUG-CC-PVTZ
  Basis Set: (AUG-CC-PVTZ AUX)
    Blend: AUG-CC-PVTZ-JKFIT
	 Reference Energy          =    -553.6424495685163265 [Eh]
	 Singles Energy            =      -0.0000000000000000 [Eh]
	 Same-Spin Energy          =      -0.6042093758166424 [Eh]
	 Opposite-Spin Energy      =      -1.9031097175213505 [Eh]
	 Correlation Energy        =      -2.5073190933379927 [Eh]
	 Total Energy              =    -556.1497686618542957 [Eh]

	 ================> DF-SCS-MP2 Energies <==================
	-----------------------------------------------------------
	 SCS Same-Spin Scale       =       0.3333333333333333 [-]
	 SCS Opposite-Spin Scale   =       1.2000000000000000 [-]
	 SCS Same-Spin Energy      =      -0.2014031252722141 [Eh]
	 SCS Opposite-Spin Energy  =      -2.2837316610256204 [Eh]
	 SCS Correlation Energy    =      -2.4851347862978344 [Eh]
	 SCS Total Energy          =    -556.1275843548141893 [Eh]
	-----------------------------------------------------------

  Dipole Moment: [D]
     X:     1.7284      Y:    -2.5490      Z:     2.2111     Total:     3.7913

*** Psi4 exiting successfully. Buy a developer a beer!
