                               Psi4 1.4a3.dev225

  ==> Input File <==

--------------------------------------------------------------------------
#psi4
#
memory 32 gb

molecule  {
0 1
  O        0.3130990     2.3704440    -1.0483590
  N        1.7883250     1.2487180     0.2800910
  C        1.5287440    -1.3320340    -0.8115580
  C        2.5082430    -1.1273300     0.3546920
  C        0.0936770    -1.0844130    -0.4156830
  C       -0.3593510     0.2288580    -0.1728470
  C        2.1500350     0.1348000     1.1432270
  C       -1.5072725     0.4509284     0.1312363
  C        0.5874820     1.3794060    -0.3635620
  C       -0.8057180    -2.1460500    -0.2745700
  C       -2.5635920    -0.6025190     0.3218070
  C       -2.1294290    -1.9083920     0.0915650
  C       -2.2005820     1.8899870     0.4130340
  H        1.6305660    -2.3487650    -1.2074160
  H        1.8022820    -0.6509930    -1.6251500
  H        2.4785080    -1.9866810     1.0363320
  H        3.5296620    -1.0584230    -0.0385230
  H        1.3070990    -0.0748920     1.8087120
  H        2.9845300     0.4555350     1.7739000
  H        2.4430930     2.0063180     0.1171350
  H       -0.4670580    -3.1628320    -0.4675050
  H       -3.5988730    -0.4222000     0.6058720
  H       -2.8229980    -2.7393000     0.2003190
  H       -1.5534710     2.4410460     1.1016880
  H       -2.2209110     2.4548110    -0.5213210
  H       -3.2087000     1.8617690     0.8360960
units angstrom
no_reorient  #important for SAPT in psi4, default
symmetry c1  #important for SAPT in psi4, default
}

set PROPERTIES_ORIGIN ["COM"]
properties('MP2/aug-cc-pvtz', properties = ['dipole'])
--------------------------------------------------------------------------

    Molecular point group: c1
  Charge       = 0
  Multiplicity = 1
  Basis Set: AUG-CC-PVTZ
    Blend: AUG-CC-PVTZ
  Basis Set: (AUG-CC-PVTZ AUX)
    Blend: AUG-CC-PVTZ-JKFIT

    Orbital Energies [Eh]
    ---------------------

    Doubly Occupied:

       1A    -20.514642     2A    -15.584266     3A    -11.351501
       4A    -11.276657     5A    -11.253785     6A    -11.242474
       7A    -11.241635     8A    -11.240556     9A    -11.238412
      10A    -11.237776    11A    -11.234290    12A    -11.219708
      13A    -11.219136    14A     -1.369762    15A     -1.237411
      16A     -1.179237    17A     -1.083484    18A     -1.057411
      19A     -1.018319    20A     -0.944217    21A     -0.923431
      22A     -0.869116    23A     -0.841841    24A     -0.799467
      25A     -0.761751    26A     -0.698688    27A     -0.683381
      28A     -0.663388    29A     -0.651009    30A     -0.620698
      31A     -0.618580    32A     -0.590737    33A     -0.586624
      34A     -0.574070    35A     -0.559565    36A     -0.549317
      37A     -0.533884    38A     -0.528998    39A     -0.519580
      40A     -0.499964    41A     -0.485495    42A     -0.481819
      43A     -0.459628    44A     -0.409411    45A     -0.387252
      46A     -0.366301    47A     -0.315702

  @DF-RHF Final Energy:  -553.58690750618223

   => Energetics <=

    Nuclear Repulsion Energy =            798.9826637687164066
    One-Electron Energy =               -2337.6903940674437763
    Two-Electron Energy =                 985.1208227925450274
    Total Energy =                       -553.5869075061822286
  Basis Set: (AUG-CC-PVTZ AUX)
    Blend: AUG-CC-PVTZ-RI
    Molecular point group: c1

    Geometry (in Angstrom), charge = 0, multiplicity = 1:

       Center              X                  Y                   Z               Mass
    ------------   -----------------  -----------------  -----------------  -----------------
         O            0.313106807865     2.354738679655    -1.024431403012    15.994914619570
         N            1.788332807865     1.233012679655     0.304018596988    14.003074004430
         C            1.528751807865    -1.347739320345    -0.787630403012    12.000000000000
         C            2.508250807865    -1.143035320345     0.378619596988    12.000000000000
         C            0.093684807865    -1.100118320345    -0.391755403012    12.000000000000
         C           -0.359343192135     0.213152679655    -0.148919403012    12.000000000000
         C            2.150042807865     0.119094679655     1.167154596988    12.000000000000
         C           -1.507264692135     0.435223079655     0.155163896988    12.000000000000
         C            0.587489807865     1.363700679655    -0.339634403012    12.000000000000
         C           -0.805710192135    -2.161755320345    -0.250642403012    12.000000000000
         C           -2.563584192135    -0.618224320345     0.345734596988    12.000000000000
         C           -2.129421192135    -1.924097320345     0.115492596988    12.000000000000
         C           -2.200574192135     1.874281679655     0.436961596988    12.000000000000
         H            1.630573807865    -2.364470320345    -1.183488403012     1.007825032230
         H            1.802289807865    -0.666698320345    -1.601222403012     1.007825032230
         H            2.478515807865    -2.002386320345     1.060259596988     1.007825032230
         H            3.529669807865    -1.074128320345    -0.014595403012     1.007825032230
         H            1.307106807865    -0.090597320345     1.832639596988     1.007825032230
         H            2.984537807865     0.439829679655     1.797827596988     1.007825032230
         H            2.443100807865     1.990612679655     0.141062596988     1.007825032230
         H           -0.467050192135    -3.178537320345    -0.443577403012     1.007825032230
         H           -3.598865192135    -0.437905320345     0.629799596988     1.007825032230
         H           -2.822990192135    -2.755005320345     0.224246596988     1.007825032230
         H           -1.553463192135     2.425340679655     1.125615596988     1.007825032230
         H           -2.220903192135     2.439105679655    -0.497393403012     1.007825032230
         H           -3.208692192135     1.846063679655     0.860023596988     1.007825032230

  Basis Set: AUG-CC-PVTZ
    Blend: AUG-CC-PVTZ
  Basis Set: (AUG-CC-PVTZ AUX)
    Blend: AUG-CC-PVTZ-JKFIT
	 Reference Energy          =    -553.5869075061822286 [Eh]
	 Singles Energy            =      -0.0000000000000000 [Eh]
	 Same-Spin Energy          =      -0.6025790091494068 [Eh]
	 Opposite-Spin Energy      =      -1.9037426064955627 [Eh]
	 Correlation Energy        =      -2.5063216156449695 [Eh]
	 Total Energy              =    -556.0932291218272212 [Eh]

	 ================> DF-SCS-MP2 Energies <==================
	-----------------------------------------------------------
	 SCS Same-Spin Scale       =       0.3333333333333333 [-]
	 SCS Opposite-Spin Scale   =       1.2000000000000000 [-]
	 SCS Same-Spin Energy      =      -0.2008596697164689 [Eh]
	 SCS Opposite-Spin Energy  =      -2.2844911277946753 [Eh]
	 SCS Correlation Energy    =      -2.4853507975111442 [Eh]
	 SCS Total Energy          =    -556.0722583036933884 [Eh]
	-----------------------------------------------------------

  Dipole Moment: [D]
     X:     1.7649      Y:    -2.6329      Z:     2.1917     Total:     3.8536

*** Psi4 exiting successfully. Buy a developer a beer!
