                               Psi4 1.4a3.dev225

  ==> Input File <==

--------------------------------------------------------------------------
#psi4
#
memory 32 gb

molecule  {
0 1
  O        0.3130990     2.3704440    -1.0483590
  N        1.7883250     1.2487180     0.2800910
  C        1.5287440    -1.3320340    -0.8115580
  C        2.5082430    -1.1273300     0.3546920
  C        0.0936770    -1.0844130    -0.4156830
  C       -0.3593510     0.2288580    -0.1728470
  C        2.1500350     0.1348000     1.1432270
  C       -1.6973100     0.4876920     0.1815770
  C        0.5874820     1.3794060    -0.3635620
  C       -0.8057180    -2.1460500    -0.2745700
  C       -2.5635920    -0.6025190     0.3218070
  C       -2.1294290    -1.9083920     0.0915650
  C       -2.1939062     1.8713857     0.4099638
  H        1.6305660    -2.3487650    -1.2074160
  H        1.8022820    -0.6509930    -1.6251500
  H        2.4785080    -1.9866810     1.0363320
  H        3.5296620    -1.0584230    -0.0385230
  H        1.3070990    -0.0748920     1.8087120
  H        2.9845300     0.4555350     1.7739000
  H        2.4430930     2.0063180     0.1171350
  H       -0.4670580    -3.1628320    -0.4675050
  H       -3.5988730    -0.4222000     0.6058720
  H       -2.8229980    -2.7393000     0.2003190
  H       -1.5534710     2.4410460     1.1016880
  H       -2.2209110     2.4548110    -0.5213210
  H       -3.2087000     1.8617690     0.8360960
units angstrom
no_reorient  #important for SAPT in psi4, default
symmetry c1  #important for SAPT in psi4, default
}

set PROPERTIES_ORIGIN ["COM"]
properties('MP2/aug-cc-pvtz', properties = ['dipole'])
--------------------------------------------------------------------------

    Molecular point group: c1
  Charge       = 0
  Multiplicity = 1
  Basis Set: AUG-CC-PVTZ
    Blend: AUG-CC-PVTZ
  Basis Set: (AUG-CC-PVTZ AUX)
    Blend: AUG-CC-PVTZ-JKFIT

    Orbital Energies [Eh]
    ---------------------

    Doubly Occupied:

       1A    -20.512697     2A    -15.583069     3A    -11.350355
       4A    -11.274927     5A    -11.254383     6A    -11.252722
       7A    -11.244441     8A    -11.242009     9A    -11.238297
      10A    -11.237434    11A    -11.235313    12A    -11.232690
      13A    -11.216404    14A     -1.367612    15A     -1.235380
      16A     -1.164293    17A     -1.085317    18A     -1.046114
      19A     -1.028992    20A     -0.943198    21A     -0.933128
      22A     -0.873573    23A     -0.829919    24A     -0.785080
      25A     -0.769809    26A     -0.693994    27A     -0.682979
      28A     -0.660333    29A     -0.659274    30A     -0.619945
      31A     -0.615465    32A     -0.591936    33A     -0.583893
      34A     -0.570512    35A     -0.566227    36A     -0.552563
      37A     -0.530851    38A     -0.528544    39A     -0.514497
      40A     -0.505007    41A     -0.489553    42A     -0.478601
      43A     -0.474341    44A     -0.417362    45A     -0.386008
      46A     -0.336431    47A     -0.327108

  @DF-RHF Final Energy:  -553.64250790634367

   => Energetics <=

    Nuclear Repulsion Energy =            796.3642263938423866
    One-Electron Energy =               -2332.5683076263130715
    Two-Electron Energy =                 982.5615733261271316
    Total Energy =                       -553.6425079063436669
  Basis Set: (AUG-CC-PVTZ AUX)
    Blend: AUG-CC-PVTZ-RI
    Molecular point group: c1

    Geometry (in Angstrom), charge = 0, multiplicity = 1:

       Center              X                  Y                   Z               Mass
    ------------   -----------------  -----------------  -----------------  -----------------
         O            0.325673021419     2.353493974024    -1.027670962843    15.994914619570
         N            1.800899021419     1.231767974024     0.300779037157    14.003074004430
         C            1.541318021419    -1.348984025976    -0.790869962843    12.000000000000
         C            2.520817021419    -1.144280025976     0.375380037157    12.000000000000
         C            0.106251021419    -1.101363025976    -0.394994962843    12.000000000000
         C           -0.346776978581     0.211907974024    -0.152158962843    12.000000000000
         C            2.162609021419     0.117849974024     1.163915037157    12.000000000000
         C           -1.684735978581     0.470741974024     0.202265037157    12.000000000000
         C            0.600056021419     1.362455974024    -0.342873962843    12.000000000000
         C           -0.793143978581    -2.163000025976    -0.253881962843    12.000000000000
         C           -2.551017978581    -0.619469025976     0.342495037157    12.000000000000
         C           -2.116854978581    -1.925342025976     0.112253037157    12.000000000000
         C           -2.181332178581     1.854435674024     0.430651837157    12.000000000000
         H            1.643140021419    -2.365715025976    -1.186727962843     1.007825032230
         H            1.814856021419    -0.667943025976    -1.604461962843     1.007825032230
         H            2.491082021419    -2.003631025976     1.057020037157     1.007825032230
         H            3.542236021419    -1.075373025976    -0.017834962843     1.007825032230
         H            1.319673021419    -0.091842025976     1.829400037157     1.007825032230
         H            2.997104021419     0.438584974024     1.794588037157     1.007825032230
         H            2.455667021419     1.989367974024     0.137823037157     1.007825032230
         H           -0.454483978581    -3.179782025976    -0.446816962843     1.007825032230
         H           -3.586298978581    -0.439150025976     0.626560037157     1.007825032230
         H           -2.810423978581    -2.756250025976     0.221007037157     1.007825032230
         H           -1.540896978581     2.424095974024     1.122376037157     1.007825032230
         H           -2.208336978581     2.437860974024    -0.500632962843     1.007825032230
         H           -3.196125978581     1.844818974024     0.856784037157     1.007825032230

  Basis Set: AUG-CC-PVTZ
    Blend: AUG-CC-PVTZ
  Basis Set: (AUG-CC-PVTZ AUX)
    Blend: AUG-CC-PVTZ-JKFIT
	 Reference Energy          =    -553.6425079063436669 [Eh]
	 Singles Energy            =      -0.0000000000000000 [Eh]
	 Same-Spin Energy          =      -0.6043942914073868 [Eh]
	 Opposite-Spin Energy      =      -1.9032866859169142 [Eh]
	 Correlation Energy        =      -2.5076809773243012 [Eh]
	 Total Energy              =    -556.1501888836679655 [Eh]

	 ================> DF-SCS-MP2 Energies <==================
	-----------------------------------------------------------
	 SCS Same-Spin Scale       =       0.3333333333333333 [-]
	 SCS Opposite-Spin Scale   =       1.2000000000000000 [-]
	 SCS Same-Spin Energy      =      -0.2014647638024623 [Eh]
	 SCS Opposite-Spin Energy  =      -2.2839440231002968 [Eh]
	 SCS Correlation Energy    =      -2.4854087869027590 [Eh]
	 SCS Total Energy          =    -556.1279166932464477 [Eh]
	-----------------------------------------------------------

  Dipole Moment: [D]
     X:     1.7279      Y:    -2.5324      Z:     2.2031     Total:     3.7752

*** Psi4 exiting successfully. Buy a developer a beer!
