                               Psi4 1.4a3.dev225

  ==> Input File <==

--------------------------------------------------------------------------
#psi4
#
memory 32 gb

molecule  {
0 1
  O        0.3130990     2.3704440    -1.0483590
  N        1.7883250     1.2487180     0.2800910
  C        1.5287440    -1.3320340    -0.8115580
  C        2.5082430    -1.1273300     0.3546920
  C        0.0936770    -1.0844130    -0.4156830
  C       -0.3593510     0.2288580    -0.1728470
  C        2.1500350     0.1348000     1.1432270
  C       -1.6973100     0.4876920     0.1815770
  C        0.5874820     1.3794060    -0.3635620
  C       -0.8057180    -2.1460500    -0.2745700
  C       -2.5635920    -0.6025190     0.3218070
  C       -2.3193684    -1.8742904     0.1441017
  C       -2.2005820     1.8899870     0.4130340
  H        1.6305660    -2.3487650    -1.2074160
  H        1.8022820    -0.6509930    -1.6251500
  H        2.4785080    -1.9866810     1.0363320
  H        3.5296620    -1.0584230    -0.0385230
  H        1.3070990    -0.0748920     1.8087120
  H        2.9845300     0.4555350     1.7739000
  H        2.4430930     2.0063180     0.1171350
  H       -0.4670580    -3.1628320    -0.4675050
  H       -3.5988730    -0.4222000     0.6058720
  H       -2.8229980    -2.7393000     0.2003190
  H       -1.5534710     2.4410460     1.1016880
  H       -2.2209110     2.4548110    -0.5213210
  H       -3.2087000     1.8617690     0.8360960
units angstrom
no_reorient  #important for SAPT in psi4, default
symmetry c1  #important for SAPT in psi4, default
}

set PROPERTIES_ORIGIN ["COM"]
properties('MP2/aug-cc-pvtz', properties = ['dipole'])
--------------------------------------------------------------------------

    Molecular point group: c1
  Charge       = 0
  Multiplicity = 1
  Basis Set: AUG-CC-PVTZ
    Blend: AUG-CC-PVTZ
  Basis Set: (AUG-CC-PVTZ AUX)
    Blend: AUG-CC-PVTZ-JKFIT

    Orbital Energies [Eh]
    ---------------------

    Doubly Occupied:

       1A    -20.513200     2A    -15.582963     3A    -11.350655
       4A    -11.274637     5A    -11.257238     6A    -11.251043
       7A    -11.248100     8A    -11.246698     9A    -11.243770
      10A    -11.236838    11A    -11.236017    12A    -11.228251
      13A    -11.217615    14A     -1.367926    15A     -1.235372
      16A     -1.158998    17A     -1.087081    18A     -1.041173
      19A     -1.028804    20A     -0.942951    21A     -0.932005
      22A     -0.870925    23A     -0.834584    24A     -0.784813
      25A     -0.771672    26A     -0.693616    27A     -0.682087
      28A     -0.679641    29A     -0.655763    30A     -0.618952
      31A     -0.610996    32A     -0.603054    33A     -0.583251
      34A     -0.570060    35A     -0.558398    36A     -0.551553
      37A     -0.531153    38A     -0.526980    39A     -0.519393
      40A     -0.503728    41A     -0.490203    42A     -0.475339
      43A     -0.450327    44A     -0.418152    45A     -0.386258
      46A     -0.351821    47A     -0.312096

  @DF-RHF Final Energy:  -553.60093302764199

   => Energetics <=

    Nuclear Repulsion Energy =            793.7735834431143758
    One-Electron Energy =               -2327.3167280876823497
    Two-Electron Energy =                 979.9422116169259880
    Total Energy =                       -553.6009330276419860
  Basis Set: (AUG-CC-PVTZ AUX)
    Blend: AUG-CC-PVTZ-RI
    Molecular point group: c1

    Geometry (in Angstrom), charge = 0, multiplicity = 1:

       Center              X                  Y                   Z               Mass
    ------------   -----------------  -----------------  -----------------  -----------------
         O            0.339147528861     2.349882118896    -1.031481836000    15.994914619570
         N            1.814373528861     1.228156118896     0.296968164000    14.003074004430
         C            1.554792528861    -1.352595881104    -0.794680836000    12.000000000000
         C            2.534291528861    -1.147891881104     0.371569164000    12.000000000000
         C            0.119725528861    -1.104974881104    -0.398805836000    12.000000000000
         C           -0.333302471139     0.208296118896    -0.155969836000    12.000000000000
         C            2.176083528861     0.114238118896     1.160104164000    12.000000000000
         C           -1.671261471139     0.467130118896     0.198454164000    12.000000000000
         C            0.613530528861     1.358844118896    -0.346684836000    12.000000000000
         C           -0.779669471139    -2.166611881104    -0.257692836000    12.000000000000
         C           -2.537543471139    -0.623080881104     0.338684164000    12.000000000000
         C           -2.293319871139    -1.894852281104     0.160978864000    12.000000000000
         C           -2.174533471139     1.869425118896     0.429911164000    12.000000000000
         H            1.656614528861    -2.369326881104    -1.190538836000     1.007825032230
         H            1.828330528861    -0.671554881104    -1.608272836000     1.007825032230
         H            2.504556528861    -2.007242881104     1.053209164000     1.007825032230
         H            3.555710528861    -1.078984881104    -0.021645836000     1.007825032230
         H            1.333147528861    -0.095453881104     1.825589164000     1.007825032230
         H            3.010578528861     0.434973118896     1.790777164000     1.007825032230
         H            2.469141528861     1.985756118896     0.134012164000     1.007825032230
         H           -0.441009471139    -3.183393881104    -0.450627836000     1.007825032230
         H           -3.572824471139    -0.442761881104     0.622749164000     1.007825032230
         H           -2.796949471139    -2.759861881104     0.217196164000     1.007825032230
         H           -1.527422471139     2.420484118896     1.118565164000     1.007825032230
         H           -2.194862471139     2.434249118896    -0.504443836000     1.007825032230
         H           -3.182651471139     1.841207118896     0.852973164000     1.007825032230

  Basis Set: AUG-CC-PVTZ
    Blend: AUG-CC-PVTZ
  Basis Set: (AUG-CC-PVTZ AUX)
    Blend: AUG-CC-PVTZ-JKFIT
	 Reference Energy          =    -553.6009330276419860 [Eh]
	 Singles Energy            =      -0.0000000000000000 [Eh]
	 Same-Spin Energy          =      -0.6039365140895112 [Eh]
	 Opposite-Spin Energy      =      -1.9061189303030786 [Eh]
	 Correlation Energy        =      -2.5100554443925898 [Eh]
	 Total Energy              =    -556.1109884720345917 [Eh]

	 ================> DF-SCS-MP2 Energies <==================
	-----------------------------------------------------------
	 SCS Same-Spin Scale       =       0.3333333333333333 [-]
	 SCS Opposite-Spin Scale   =       1.2000000000000000 [-]
	 SCS Same-Spin Energy      =      -0.2013121713631704 [Eh]
	 SCS Opposite-Spin Energy  =      -2.2873427163636944 [Eh]
	 SCS Correlation Energy    =      -2.4886548877268648 [Eh]
	 SCS Total Energy          =    -556.0895879153688384 [Eh]
	-----------------------------------------------------------

  Dipole Moment: [D]
     X:     1.7170      Y:    -2.5488      Z:     2.2088     Total:     3.7846

*** Psi4 exiting successfully. Buy a developer a beer!
