                               Psi4 1.4a3.dev225

  ==> Input File <==

--------------------------------------------------------------------------
#psi4
#
memory 32 gb

molecule  {
0 1
  O        0.3130990     2.3704440    -1.0483590
  N        1.7883250     1.2487180     0.2800910
  C        1.5237729    -1.3578810    -0.8125348
  C        2.5082430    -1.1273300     0.3546920
  C        0.0936770    -1.0844130    -0.4156830
  C       -0.3593510     0.2288580    -0.1728470
  C        2.1500350     0.1348000     1.1432270
  C       -1.6973100     0.4876920     0.1815770
  C        0.5874820     1.3794060    -0.3635620
  C       -0.8057180    -2.1460500    -0.2745700
  C       -2.5635920    -0.6025190     0.3218070
  C       -2.1294290    -1.9083920     0.0915650
  C       -2.2005820     1.8899870     0.4130340
  H        1.6305660    -2.3487650    -1.2074160
  H        1.8022820    -0.6509930    -1.6251500
  H        2.4785080    -1.9866810     1.0363320
  H        3.5296620    -1.0584230    -0.0385230
  H        1.3070990    -0.0748920     1.8087120
  H        2.9845300     0.4555350     1.7739000
  H        2.4430930     2.0063180     0.1171350
  H       -0.4670580    -3.1628320    -0.4675050
  H       -3.5988730    -0.4222000     0.6058720
  H       -2.8229980    -2.7393000     0.2003190
  H       -1.5534710     2.4410460     1.1016880
  H       -2.2209110     2.4548110    -0.5213210
  H       -3.2087000     1.8617690     0.8360960
units angstrom
no_reorient  #important for SAPT in psi4, default
symmetry c1  #important for SAPT in psi4, default
}

set PROPERTIES_ORIGIN ["COM"]
properties('MP2/aug-cc-pvtz', properties = ['dipole'])
--------------------------------------------------------------------------

    Molecular point group: c1
  Charge       = 0
  Multiplicity = 1
  Basis Set: AUG-CC-PVTZ
    Blend: AUG-CC-PVTZ
  Basis Set: (AUG-CC-PVTZ AUX)
    Blend: AUG-CC-PVTZ-JKFIT

    Orbital Energies [Eh]
    ---------------------

    Doubly Occupied:

       1A    -20.512597     2A    -15.583015     3A    -11.350253
       4A    -11.275277     5A    -11.254445     6A    -11.253658
       7A    -11.244253     8A    -11.242300     9A    -11.238252
      10A    -11.237627    11A    -11.234834    12A    -11.232562
      13A    -11.215963    14A     -1.367482    15A     -1.235113
      16A     -1.163684    17A     -1.084120    18A     -1.044517
      19A     -1.028371    20A     -0.943943    21A     -0.932977
      22A     -0.873675    23A     -0.829459    24A     -0.785307
      25A     -0.770319    26A     -0.693727    27A     -0.683188
      28A     -0.659358    29A     -0.658346    30A     -0.620772
      31A     -0.614759    32A     -0.590744    33A     -0.583291
      34A     -0.570841    35A     -0.565952    36A     -0.554469
      37A     -0.531095    38A     -0.529576    39A     -0.513275
      40A     -0.505798    41A     -0.491602    42A     -0.477459
      43A     -0.473599    44A     -0.417297    45A     -0.385982
      46A     -0.336294    47A     -0.327226

  @DF-RHF Final Energy:  -553.64267075425653

   => Energetics <=

    Nuclear Repulsion Energy =            795.7071516834695331
    One-Electron Energy =               -2331.2623339583769848
    Two-Electron Energy =                 981.9125115206510372
    Total Energy =                       -553.6426707542565282
  Basis Set: (AUG-CC-PVTZ AUX)
    Blend: AUG-CC-PVTZ-RI
    Molecular point group: c1

    Geometry (in Angstrom), charge = 0, multiplicity = 1:

       Center              X                  Y                   Z               Mass
    ------------   -----------------  -----------------  -----------------  -----------------
         O            0.326471211187     2.353990539084    -1.027814428525    15.994914619570
         N            1.801697211187     1.232264539084     0.300635571475    14.003074004430
         C            1.537145111187    -1.374334460916    -0.791990228525    12.000000000000
         C            2.521615211187    -1.143783460916     0.375236571475    12.000000000000
         C            0.107049211187    -1.100866460916    -0.395138428525    12.000000000000
         C           -0.345978788813     0.212404539084    -0.152302428525    12.000000000000
         C            2.163407211187     0.118346539084     1.163771571475    12.000000000000
         C           -1.683937788813     0.471238539084     0.202121571475    12.000000000000
         C            0.600854211187     1.362952539084    -0.343017428525    12.000000000000
         C           -0.792345788813    -2.162503460916    -0.254025428525    12.000000000000
         C           -2.550219788813    -0.618972460916     0.342351571475    12.000000000000
         C           -2.116056788813    -1.924845460916     0.112109571475    12.000000000000
         C           -2.187209788813     1.873533539084     0.433578571475    12.000000000000
         H            1.643938211187    -2.365218460916    -1.186871428525     1.007825032230
         H            1.815654211187    -0.667446460916    -1.604605428525     1.007825032230
         H            2.491880211187    -2.003134460916     1.056876571475     1.007825032230
         H            3.543034211187    -1.074876460916    -0.017978428525     1.007825032230
         H            1.320471211187    -0.091345460916     1.829256571475     1.007825032230
         H            2.997902211187     0.439081539084     1.794444571475     1.007825032230
         H            2.456465211187     1.989864539084     0.137679571475     1.007825032230
         H           -0.453685788813    -3.179285460916    -0.446960428525     1.007825032230
         H           -3.585500788813    -0.438653460916     0.626416571475     1.007825032230
         H           -2.809625788813    -2.755753460916     0.220863571475     1.007825032230
         H           -1.540098788813     2.424592539084     1.122232571475     1.007825032230
         H           -2.207538788813     2.438357539084    -0.500776428525     1.007825032230
         H           -3.195327788813     1.845315539084     0.856640571475     1.007825032230

  Basis Set: AUG-CC-PVTZ
    Blend: AUG-CC-PVTZ
  Basis Set: (AUG-CC-PVTZ AUX)
    Blend: AUG-CC-PVTZ-JKFIT
	 Reference Energy          =    -553.6426707542565282 [Eh]
	 Singles Energy            =      -0.0000000000000000 [Eh]
	 Same-Spin Energy          =      -0.6040999655384094 [Eh]
	 Opposite-Spin Energy      =      -1.9029984359496657 [Eh]
	 Correlation Energy        =      -2.5070984014880748 [Eh]
	 Total Energy              =    -556.1497691557445933 [Eh]

	 ================> DF-SCS-MP2 Energies <==================
	-----------------------------------------------------------
	 SCS Same-Spin Scale       =       0.3333333333333333 [-]
	 SCS Opposite-Spin Scale   =       1.2000000000000000 [-]
	 SCS Same-Spin Energy      =      -0.2013666551794698 [Eh]
	 SCS Opposite-Spin Energy  =      -2.2835981231395985 [Eh]
	 SCS Correlation Energy    =      -2.4849647783190685 [Eh]
	 SCS Total Energy          =    -556.1276355325755958 [Eh]
	-----------------------------------------------------------

  Dipole Moment: [D]
     X:     1.7309      Y:    -2.5508      Z:     2.2052     Total:     3.7902

*** Psi4 exiting successfully. Buy a developer a beer!
