                               Psi4 1.4a3.dev225

  ==> Input File <==

--------------------------------------------------------------------------
#psi4
#
memory 32 gb

molecule  {
0 1
  O        0.3130990     2.3704440    -1.0483590
  N        1.7883250     1.2487180     0.2800910
  C        1.5287440    -1.3320340    -0.8115580
  C        2.5082430    -1.1273300     0.3546920
  C        0.0936770    -1.0844130    -0.4156830
  C       -0.3593510     0.2288580    -0.1728470
  C        2.1500350     0.1348000     1.1432270
  C       -1.6973100     0.4876920     0.1815770
  C        0.5874820     1.3794060    -0.3635620
  C       -0.8057180    -2.1460500    -0.2745700
  C       -2.5635920    -0.6025190     0.3218070
  C       -2.1294290    -1.9083920     0.0915650
  C       -2.2005820     1.8899870     0.4130340
  H        1.6305660    -2.3487650    -1.2074160
  H        1.8022820    -0.6509930    -1.6251500
  H        2.4785080    -1.9866810     1.0363320
  H        3.5296620    -1.0584230    -0.0385230
  H        1.3070990    -0.0748920     1.8087120
  H        2.9845300     0.4555350     1.7739000
  H        2.4430930     2.0063180     0.1171350
  H       -0.4670580    -3.1628320    -0.4675050
  H       -3.5798523    -0.4255129     0.6006530
  H       -2.8229980    -2.7393000     0.2003190
  H       -1.5534710     2.4410460     1.1016880
  H       -2.2209110     2.4548110    -0.5213210
  H       -3.2087000     1.8617690     0.8360960
units angstrom
no_reorient  #important for SAPT in psi4, default
symmetry c1  #important for SAPT in psi4, default
}

set PROPERTIES_ORIGIN ["COM"]
properties('MP2/aug-cc-pvtz', properties = ['dipole'])
--------------------------------------------------------------------------

    Molecular point group: c1
  Charge       = 0
  Multiplicity = 1
  Basis Set: AUG-CC-PVTZ
    Blend: AUG-CC-PVTZ
  Basis Set: (AUG-CC-PVTZ AUX)
    Blend: AUG-CC-PVTZ-JKFIT

    Orbital Energies [Eh]
    ---------------------

    Doubly Occupied:

       1A    -20.512648     2A    -15.583003     3A    -11.350244
       4A    -11.274869     5A    -11.254233     6A    -11.253292
       7A    -11.244212     8A    -11.241844     9A    -11.238209
      10A    -11.237362    11A    -11.235135    12A    -11.230331
      13A    -11.215928    14A     -1.367539    15A     -1.235312
      16A     -1.163677    17A     -1.084706    18A     -1.044635
      19A     -1.028980    20A     -0.943122    21A     -0.933698
      22A     -0.873713    23A     -0.830253    24A     -0.785635
      25A     -0.769849    26A     -0.695273    27A     -0.682980
      28A     -0.660062    29A     -0.658783    30A     -0.619734
      31A     -0.615344    32A     -0.591178    33A     -0.584431
      34A     -0.570047    35A     -0.566792    36A     -0.553214
      37A     -0.531539    38A     -0.531221    39A     -0.513926
      40A     -0.505310    41A     -0.488804    42A     -0.479204
      43A     -0.474014    44A     -0.417407    45A     -0.386001
      46A     -0.336336    47A     -0.327415

  @DF-RHF Final Energy:  -553.64336717456558

   => Energetics <=

    Nuclear Repulsion Energy =            796.0866734087817349
    One-Electron Energy =               -2332.0171899444621886
    Two-Electron Energy =                 982.2871493611148708
    Total Energy =                       -553.6433671745655829
  Basis Set: (AUG-CC-PVTZ AUX)
    Blend: AUG-CC-PVTZ-RI
    Molecular point group: c1

    Geometry (in Angstrom), charge = 0, multiplicity = 1:

       Center              X                  Y                   Z               Mass
    ------------   -----------------  -----------------  -----------------  -----------------
         O            0.326021052041     2.352238250806    -1.027851331848    15.994914619570
         N            1.801247052041     1.230512250806     0.300598668152    14.003074004430
         C            1.541666052041    -1.350239749194    -0.791050331848    12.000000000000
         C            2.521165052041    -1.145535749194     0.375199668152    12.000000000000
         C            0.106599052041    -1.102618749194    -0.395175331848    12.000000000000
         C           -0.346428947959     0.210652250806    -0.152339331848    12.000000000000
         C            2.162957052041     0.116594250806     1.163734668152    12.000000000000
         C           -1.684387947959     0.469486250806     0.202084668152    12.000000000000
         C            0.600404052041     1.361200250806    -0.343054331848    12.000000000000
         C           -0.792795947959    -2.164255749194    -0.254062331848    12.000000000000
         C           -2.550669947959    -0.620724749194     0.342314668152    12.000000000000
         C           -2.116506947959    -1.926597749194     0.112072668152    12.000000000000
         C           -2.187659947959     1.871781250806     0.433541668152    12.000000000000
         H            1.643488052041    -2.366970749194    -1.186908331848     1.007825032230
         H            1.815204052041    -0.669198749194    -1.604642331848     1.007825032230
         H            2.491430052041    -2.004886749194     1.056839668152     1.007825032230
         H            3.542584052041    -1.076628749194    -0.018015331848     1.007825032230
         H            1.320021052041    -0.093097749194     1.829219668152     1.007825032230
         H            2.997452052041     0.437329250806     1.794407668152     1.007825032230
         H            2.456015052041     1.988112250806     0.137642668152     1.007825032230
         H           -0.454135947959    -3.181037749194    -0.446997331848     1.007825032230
         H           -3.566930247959    -0.443718649194     0.621160668152     1.007825032230
         H           -2.810075947959    -2.757505749194     0.220826668152     1.007825032230
         H           -1.540548947959     2.422840250806     1.122195668152     1.007825032230
         H           -2.207988947959     2.436605250806    -0.500813331848     1.007825032230
         H           -3.195777947959     1.843563250806     0.856603668152     1.007825032230

  Basis Set: AUG-CC-PVTZ
    Blend: AUG-CC-PVTZ
  Basis Set: (AUG-CC-PVTZ AUX)
    Blend: AUG-CC-PVTZ-JKFIT
	 Reference Energy          =    -553.6433671745655829 [Eh]
	 Singles Energy            =      -0.0000000000000000 [Eh]
	 Same-Spin Energy          =      -0.6041368085273250 [Eh]
	 Opposite-Spin Energy      =      -1.9029261875635970 [Eh]
	 Correlation Energy        =      -2.5070629960909221 [Eh]
	 Total Energy              =    -556.1504301706564775 [Eh]

	 ================> DF-SCS-MP2 Energies <==================
	-----------------------------------------------------------
	 SCS Same-Spin Scale       =       0.3333333333333333 [-]
	 SCS Opposite-Spin Scale   =       1.2000000000000000 [-]
	 SCS Same-Spin Energy      =      -0.2013789361757750 [Eh]
	 SCS Opposite-Spin Energy  =      -2.2835114250763162 [Eh]
	 SCS Correlation Energy    =      -2.4848903612520914 [Eh]
	 SCS Total Energy          =    -556.1282575358176246 [Eh]
	-----------------------------------------------------------

  Dipole Moment: [D]
     X:     1.7194      Y:    -2.5383      Z:     2.2070     Total:     3.7776

*** Psi4 exiting successfully. Buy a developer a beer!
