                               Psi4 1.4a3.dev225

  ==> Input File <==

--------------------------------------------------------------------------
#psi4
#
memory 32 gb

molecule  {
0 1
  O        0.3130990     2.3704440    -1.0483590
  N        1.7883250     1.2487180     0.2800910
  C        1.5287440    -1.3320340    -0.8115580
  C        2.5082430    -1.1273300     0.3546920
  C        0.0936770    -1.0844130    -0.4156830
  C       -0.3593510     0.2288580    -0.1728470
  C        2.1500350     0.1348000     1.1432270
  C       -1.6973100     0.4876920     0.1815770
  C        0.5699350     1.3813156    -0.3729672
  C       -0.8057180    -2.1460500    -0.2745700
  C       -2.5635920    -0.6025190     0.3218070
  C       -2.1294290    -1.9083920     0.0915650
  C       -2.2005820     1.8899870     0.4130340
  H        1.6305660    -2.3487650    -1.2074160
  H        1.8022820    -0.6509930    -1.6251500
  H        2.4785080    -1.9866810     1.0363320
  H        3.5296620    -1.0584230    -0.0385230
  H        1.3070990    -0.0748920     1.8087120
  H        2.9845300     0.4555350     1.7739000
  H        2.4430930     2.0063180     0.1171350
  H       -0.4670580    -3.1628320    -0.4675050
  H       -3.5988730    -0.4222000     0.6058720
  H       -2.8229980    -2.7393000     0.2003190
  H       -1.5534710     2.4410460     1.1016880
  H       -2.2209110     2.4548110    -0.5213210
  H       -3.2087000     1.8617690     0.8360960
units angstrom
no_reorient  #important for SAPT in psi4, default
symmetry c1  #important for SAPT in psi4, default
}

set PROPERTIES_ORIGIN ["COM"]
properties('MP2/aug-cc-pvtz', properties = ['dipole'])
--------------------------------------------------------------------------

    Molecular point group: c1
  Charge       = 0
  Multiplicity = 1
  Basis Set: AUG-CC-PVTZ
    Blend: AUG-CC-PVTZ
  Basis Set: (AUG-CC-PVTZ AUX)
    Blend: AUG-CC-PVTZ-JKFIT

    Orbital Energies [Eh]
    ---------------------

    Doubly Occupied:

       1A    -20.516124     2A    -15.579091     3A    -11.350940
       4A    -11.272668     5A    -11.255118     6A    -11.254145
       7A    -11.245092     8A    -11.241821     9A    -11.237730
      10A    -11.236125    11A    -11.235679    12A    -11.233084
      13A    -11.216816    14A     -1.374136    15A     -1.230104
      16A     -1.163970    17A     -1.083735    18A     -1.045579
      19A     -1.028147    20A     -0.942678    21A     -0.932413
      22A     -0.873700    23A     -0.828960    24A     -0.783985
      25A     -0.768622    26A     -0.693647    27A     -0.681184
      28A     -0.660566    29A     -0.658395    30A     -0.620125
      31A     -0.614335    32A     -0.591347    33A     -0.585208
      34A     -0.571303    35A     -0.566377    36A     -0.553297
      37A     -0.532121    38A     -0.530160    39A     -0.514520
      40A     -0.506133    41A     -0.488366    42A     -0.479555
      43A     -0.474018    44A     -0.419052    45A     -0.384391
      46A     -0.337396    47A     -0.327954

  @DF-RHF Final Energy:  -553.64303386565791

   => Energetics <=

    Nuclear Repulsion Energy =            795.9863540121115193
    One-Electron Energy =               -2331.8189477197661290
    Two-Electron Energy =                 982.1895598419968110
    Total Energy =                       -553.6430338656579124
  Basis Set: (AUG-CC-PVTZ AUX)
    Blend: AUG-CC-PVTZ-RI
    Molecular point group: c1

    Geometry (in Angstrom), charge = 0, multiplicity = 1:

       Center              X                  Y                   Z               Mass
    ------------   -----------------  -----------------  -----------------  -----------------
         O            0.327333067534     2.352088313247    -1.027236810221    15.994914619570
         N            1.802559067534     1.230362313247     0.301213189779    14.003074004430
         C            1.542978067534    -1.350389686753    -0.790435810221    12.000000000000
         C            2.522477067534    -1.145685686753     0.375814189779    12.000000000000
         C            0.107911067534    -1.102768686753    -0.394560810221    12.000000000000
         C           -0.345116932466     0.210502313247    -0.151724810221    12.000000000000
         C            2.164269067534     0.116444313247     1.164349189779    12.000000000000
         C           -1.683075932466     0.469336313247     0.202699189779    12.000000000000
         C            0.584169067534     1.362959913247    -0.351845010221    12.000000000000
         C           -0.791483932466    -2.164405686753    -0.253447810221    12.000000000000
         C           -2.549357932466    -0.620874686753     0.342929189779    12.000000000000
         C           -2.115194932466    -1.926747686753     0.112687189779    12.000000000000
         C           -2.186347932466     1.871631313247     0.434156189779    12.000000000000
         H            1.644800067534    -2.367120686753    -1.186293810221     1.007825032230
         H            1.816516067534    -0.669348686753    -1.604027810221     1.007825032230
         H            2.492742067534    -2.005036686753     1.057454189779     1.007825032230
         H            3.543896067534    -1.076778686753    -0.017400810221     1.007825032230
         H            1.321333067534    -0.093247686753     1.829834189779     1.007825032230
         H            2.998764067534     0.437179313247     1.795022189779     1.007825032230
         H            2.457327067534     1.987962313247     0.138257189779     1.007825032230
         H           -0.452823932466    -3.181187686753    -0.446382810221     1.007825032230
         H           -3.584638932466    -0.440555686753     0.626994189779     1.007825032230
         H           -2.808763932466    -2.757655686753     0.221441189779     1.007825032230
         H           -1.539236932466     2.422690313247     1.122810189779     1.007825032230
         H           -2.206676932466     2.436455313247    -0.500198810221     1.007825032230
         H           -3.194465932466     1.843413313247     0.857218189779     1.007825032230

  Basis Set: AUG-CC-PVTZ
    Blend: AUG-CC-PVTZ
  Basis Set: (AUG-CC-PVTZ AUX)
    Blend: AUG-CC-PVTZ-JKFIT
	 Reference Energy          =    -553.6430338656579124 [Eh]
	 Singles Energy            =      -0.0000000000000000 [Eh]
	 Same-Spin Energy          =      -0.6040894397984771 [Eh]
	 Opposite-Spin Energy      =      -1.9029241059823441 [Eh]
	 Correlation Energy        =      -2.5070135457808211 [Eh]
	 Total Energy              =    -556.1500474114387771 [Eh]

	 ================> DF-SCS-MP2 Energies <==================
	-----------------------------------------------------------
	 SCS Same-Spin Scale       =       0.3333333333333333 [-]
	 SCS Opposite-Spin Scale   =       1.2000000000000000 [-]
	 SCS Same-Spin Energy      =      -0.2013631465994923 [Eh]
	 SCS Opposite-Spin Energy  =      -2.2835089271788127 [Eh]
	 SCS Correlation Energy    =      -2.4848720737783050 [Eh]
	 SCS Total Energy          =    -556.1279059394362321 [Eh]
	-----------------------------------------------------------

  Dipole Moment: [D]
     X:     1.5753      Y:    -2.5008      Z:     2.1161     Total:     3.6350

*** Psi4 exiting successfully. Buy a developer a beer!
