                               Psi4 1.4a3.dev225

  ==> Input File <==

--------------------------------------------------------------------------
#psi4
#
memory 32 gb

molecule  {
0 1
  O        0.3130990     2.3704440    -1.0483590
  N        1.7883250     1.2487180     0.2800910
  C        1.5287440    -1.3320340    -0.8115580
  C        2.5082430    -1.1273300     0.3546920
  C       -0.0169906    -0.9958784    -0.3790288
  C       -0.3593510     0.2288580    -0.1728470
  C        2.1500350     0.1348000     1.1432270
  C       -1.6973100     0.4876920     0.1815770
  C        0.5874820     1.3794060    -0.3635620
  C       -0.8057180    -2.1460500    -0.2745700
  C       -2.5635920    -0.6025190     0.3218070
  C       -2.1294290    -1.9083920     0.0915650
  C       -2.2005820     1.8899870     0.4130340
  H        1.6305660    -2.3487650    -1.2074160
  H        1.8022820    -0.6509930    -1.6251500
  H        2.4785080    -1.9866810     1.0363320
  H        3.5296620    -1.0584230    -0.0385230
  H        1.3070990    -0.0748920     1.8087120
  H        2.9845300     0.4555350     1.7739000
  H        2.4430930     2.0063180     0.1171350
  H       -0.4670580    -3.1628320    -0.4675050
  H       -3.5988730    -0.4222000     0.6058720
  H       -2.8229980    -2.7393000     0.2003190
  H       -1.5534710     2.4410460     1.1016880
  H       -2.2209110     2.4548110    -0.5213210
  H       -3.2087000     1.8617690     0.8360960
units angstrom
no_reorient  #important for SAPT in psi4, default
symmetry c1  #important for SAPT in psi4, default
}

set PROPERTIES_ORIGIN ["COM"]
properties('MP2/aug-cc-pvtz', properties = ['dipole'])
--------------------------------------------------------------------------

    Molecular point group: c1
  Charge       = 0
  Multiplicity = 1
  Basis Set: AUG-CC-PVTZ
    Blend: AUG-CC-PVTZ
  Basis Set: (AUG-CC-PVTZ AUX)
    Blend: AUG-CC-PVTZ-JKFIT

    Orbital Energies [Eh]
    ---------------------

    Doubly Occupied:

       1A    -20.515091     2A    -15.584063     3A    -11.353456
       4A    -11.274538     5A    -11.253743     6A    -11.246096
       7A    -11.243721     8A    -11.240220     9A    -11.234829
      10A    -11.234826    11A    -11.230362    12A    -11.230220
      13A    -11.215827    14A     -1.369853    15A     -1.236414
      16A     -1.176086    17A     -1.072314    18A     -1.049378
      19A     -1.034379    20A     -0.942517    21A     -0.930768
      22A     -0.870477    23A     -0.826181    24A     -0.788654
      25A     -0.778994    26A     -0.694732    27A     -0.681992
      28A     -0.663712    29A     -0.656522    30A     -0.620839
      31A     -0.612259    32A     -0.591381    33A     -0.585987
      34A     -0.574241    35A     -0.564221    36A     -0.547942
      37A     -0.533003    38A     -0.528533    39A     -0.513655
      40A     -0.504366    41A     -0.492300    42A     -0.485866
      43A     -0.448748    44A     -0.417175    45A     -0.386366
      46A     -0.352476    47A     -0.324728

  @DF-RHF Final Energy:  -553.62095561361980

   => Energetics <=

    Nuclear Repulsion Energy =            797.3955748184403092
    One-Electron Energy =               -2334.6049590143043133
    Two-Electron Energy =                 983.5884285822442052
    Total Energy =                       -553.6209556136197989
  Basis Set: (AUG-CC-PVTZ AUX)
    Blend: AUG-CC-PVTZ-RI
    Molecular point group: c1

    Geometry (in Angstrom), charge = 0, multiplicity = 1:

       Center              X                  Y                   Z               Mass
    ------------   -----------------  -----------------  -----------------  -----------------
         O            0.333714843804     2.346151695900    -1.030393370487    15.994914619570
         N            1.808940843804     1.224425695900     0.298056629513    14.003074004430
         C            1.549359843804    -1.356326304100    -0.793592370487    12.000000000000
         C            2.528858843804    -1.151622304100     0.372657629513    12.000000000000
         C            0.003625243804    -1.020170704100    -0.361063170487    12.000000000000
         C           -0.338735156196     0.204565695900    -0.154881370487    12.000000000000
         C            2.170650843804     0.110507695900     1.161192629513    12.000000000000
         C           -1.676694156196     0.463399695900     0.199542629513    12.000000000000
         C            0.608097843804     1.355113695900    -0.345596370487    12.000000000000
         C           -0.785102156196    -2.170342304100    -0.256604370487    12.000000000000
         C           -2.542976156196    -0.626811304100     0.339772629513    12.000000000000
         C           -2.108813156196    -1.932684304100     0.109530629513    12.000000000000
         C           -2.179966156196     1.865694695900     0.430999629513    12.000000000000
         H            1.651181843804    -2.373057304100    -1.189450370487     1.007825032230
         H            1.822897843804    -0.675285304100    -1.607184370487     1.007825032230
         H            2.499123843804    -2.010973304100     1.054297629513     1.007825032230
         H            3.550277843804    -1.082715304100    -0.020557370487     1.007825032230
         H            1.327714843804    -0.099184304100     1.826677629513     1.007825032230
         H            3.005145843804     0.431242695900     1.791865629513     1.007825032230
         H            2.463708843804     1.982025695900     0.135100629513     1.007825032230
         H           -0.446442156196    -3.187124304100    -0.449539370487     1.007825032230
         H           -3.578257156196    -0.446492304100     0.623837629513     1.007825032230
         H           -2.802382156196    -2.763592304100     0.218284629513     1.007825032230
         H           -1.532855156196     2.416753695900     1.119653629513     1.007825032230
         H           -2.200295156196     2.430518695900    -0.503355370487     1.007825032230
         H           -3.188084156196     1.837476695900     0.854061629513     1.007825032230

  Basis Set: AUG-CC-PVTZ
    Blend: AUG-CC-PVTZ
  Basis Set: (AUG-CC-PVTZ AUX)
    Blend: AUG-CC-PVTZ-JKFIT
	 Reference Energy          =    -553.6209556136197989 [Eh]
	 Singles Energy            =      -0.0000000000000000 [Eh]
	 Same-Spin Energy          =      -0.6032664789416642 [Eh]
	 Opposite-Spin Energy      =      -1.9026245481295474 [Eh]
	 Correlation Energy        =      -2.5058910270712116 [Eh]
	 Total Energy              =    -556.1268466406910420 [Eh]

	 ================> DF-SCS-MP2 Energies <==================
	-----------------------------------------------------------
	 SCS Same-Spin Scale       =       0.3333333333333333 [-]
	 SCS Opposite-Spin Scale   =       1.2000000000000000 [-]
	 SCS Same-Spin Energy      =      -0.2010888263138881 [Eh]
	 SCS Opposite-Spin Energy  =      -2.2831494577554570 [Eh]
	 SCS Correlation Energy    =      -2.4842382840693449 [Eh]
	 SCS Total Energy          =    -556.1051938976891051 [Eh]
	-----------------------------------------------------------

  Dipole Moment: [D]
     X:     1.6518      Y:    -2.5224      Z:     2.2141     Total:     3.7407

*** Psi4 exiting successfully. Buy a developer a beer!
