                               Psi4 1.4a3.dev225

  ==> Input File <==

--------------------------------------------------------------------------
#psi4
#
memory 32 gb

molecule  {
0 1
  O        0.3130990     2.3704440    -1.0483590
  N        1.7883250     1.2487180     0.2800910
  C        1.5287440    -1.3320340    -0.8115580
  C        2.5082430    -1.1273300     0.3546920
  C        0.0936770    -1.0844130    -0.4156830
  C       -0.3593510     0.2288580    -0.1728470
  C        2.1734364     0.0523461     1.0917127
  C       -1.6973100     0.4876920     0.1815770
  C        0.5874820     1.3794060    -0.3635620
  C       -0.8057180    -2.1460500    -0.2745700
  C       -2.5635920    -0.6025190     0.3218070
  C       -2.1294290    -1.9083920     0.0915650
  C       -2.2005820     1.8899870     0.4130340
  H        1.6305660    -2.3487650    -1.2074160
  H        1.8022820    -0.6509930    -1.6251500
  H        2.4785080    -1.9866810     1.0363320
  H        3.5296620    -1.0584230    -0.0385230
  H        1.3070990    -0.0748920     1.8087120
  H        2.9845300     0.4555350     1.7739000
  H        2.4430930     2.0063180     0.1171350
  H       -0.4670580    -3.1628320    -0.4675050
  H       -3.5988730    -0.4222000     0.6058720
  H       -2.8229980    -2.7393000     0.2003190
  H       -1.5534710     2.4410460     1.1016880
  H       -2.2209110     2.4548110    -0.5213210
  H       -3.2087000     1.8617690     0.8360960
units angstrom
no_reorient  #important for SAPT in psi4, default
symmetry c1  #important for SAPT in psi4, default
}

set PROPERTIES_ORIGIN ["COM"]
properties('MP2/aug-cc-pvtz', properties = ['dipole'])
--------------------------------------------------------------------------

    Molecular point group: c1
  Charge       = 0
  Multiplicity = 1
  Basis Set: AUG-CC-PVTZ
    Blend: AUG-CC-PVTZ
  Basis Set: (AUG-CC-PVTZ AUX)
    Blend: AUG-CC-PVTZ-JKFIT

    Orbital Energies [Eh]
    ---------------------

    Doubly Occupied:

       1A    -20.511104     2A    -15.581663     3A    -11.348298
       4A    -11.280251     5A    -11.254412     6A    -11.253106
       7A    -11.244223     8A    -11.241903     9A    -11.240142
      10A    -11.235637    11A    -11.235618    12A    -11.232775
      13A    -11.215434    14A     -1.365590    15A     -1.229017
      16A     -1.163128    17A     -1.093828    18A     -1.046349
      19A     -1.035758    20A     -0.944637    21A     -0.931556
      22A     -0.871683    23A     -0.828682    24A     -0.785567
      25A     -0.767763    26A     -0.692127    27A     -0.681193
      28A     -0.661516    29A     -0.653559    30A     -0.628224
      31A     -0.617656    32A     -0.591145    33A     -0.583459
      34A     -0.569049    35A     -0.564301    36A     -0.552982
      37A     -0.532339    38A     -0.526372    39A     -0.518076
      40A     -0.502101    41A     -0.488748    42A     -0.478960
      43A     -0.470698    44A     -0.415581    45A     -0.389448
      46A     -0.336067    47A     -0.327673

  @DF-RHF Final Energy:  -553.63133674070241

   => Energetics <=

    Nuclear Repulsion Energy =            796.5908681029601439
    One-Electron Energy =               -2333.0056200096796601
    Two-Electron Energy =                 982.7834151660172211
    Total Energy =                       -553.6313367407024089
  Basis Set: (AUG-CC-PVTZ AUX)
    Blend: AUG-CC-PVTZ-RI
    Molecular point group: c1

    Geometry (in Angstrom), charge = 0, multiplicity = 1:

       Center              X                  Y                   Z               Mass
    ------------   -----------------  -----------------  -----------------  -----------------
         O            0.324526776258     2.357869944620    -1.024350973412    15.994914619570
         N            1.799752776258     1.236143944620     0.304099026588    14.003074004430
         C            1.540171776258    -1.344608055380    -0.787549973412    12.000000000000
         C            2.519670776258    -1.139904055380     0.378700026588    12.000000000000
         C            0.105104776258    -1.096987055380    -0.391674973412    12.000000000000
         C           -0.347923223742     0.216283944620    -0.148838973412    12.000000000000
         C            2.184864176258     0.039772044620     1.115720726588    12.000000000000
         C           -1.685882223742     0.475117944620     0.205585026588    12.000000000000
         C            0.598909776258     1.366831944620    -0.339553973412    12.000000000000
         C           -0.794290223742    -2.158624055380    -0.250561973412    12.000000000000
         C           -2.552164223742    -0.615093055380     0.345815026588    12.000000000000
         C           -2.118001223742    -1.920966055380     0.115573026588    12.000000000000
         C           -2.189154223742     1.877412944620     0.437042026588    12.000000000000
         H            1.641993776258    -2.361339055380    -1.183407973412     1.007825032230
         H            1.813709776258    -0.663567055380    -1.601141973412     1.007825032230
         H            2.489935776258    -1.999255055380     1.060340026588     1.007825032230
         H            3.541089776258    -1.070997055380    -0.014514973412     1.007825032230
         H            1.318526776258    -0.087466055380     1.832720026588     1.007825032230
         H            2.995957776258     0.442960944620     1.797908026588     1.007825032230
         H            2.454520776258     1.993743944620     0.141143026588     1.007825032230
         H           -0.455630223742    -3.175406055380    -0.443496973412     1.007825032230
         H           -3.587445223742    -0.434774055380     0.629880026588     1.007825032230
         H           -2.811570223742    -2.751874055380     0.224327026588     1.007825032230
         H           -1.542043223742     2.428471944620     1.125696026588     1.007825032230
         H           -2.209483223742     2.442236944620    -0.497312973412     1.007825032230
         H           -3.197272223742     1.849194944620     0.860104026588     1.007825032230

  Basis Set: AUG-CC-PVTZ
    Blend: AUG-CC-PVTZ
  Basis Set: (AUG-CC-PVTZ AUX)
    Blend: AUG-CC-PVTZ-JKFIT
	 Reference Energy          =    -553.6313367407024089 [Eh]
	 Singles Energy            =      -0.0000000000000000 [Eh]
	 Same-Spin Energy          =      -0.6051410279865139 [Eh]
	 Opposite-Spin Energy      =      -1.9045213265198966 [Eh]
	 Correlation Energy        =      -2.5096623545064105 [Eh]
	 Total Energy              =    -556.1409990952088265 [Eh]

	 ================> DF-SCS-MP2 Energies <==================
	-----------------------------------------------------------
	 SCS Same-Spin Scale       =       0.3333333333333333 [-]
	 SCS Opposite-Spin Scale   =       1.2000000000000000 [-]
	 SCS Same-Spin Energy      =      -0.2017136759955046 [Eh]
	 SCS Opposite-Spin Energy  =      -2.2854255918238757 [Eh]
	 SCS Correlation Energy    =      -2.4871392678193804 [Eh]
	 SCS Total Energy          =    -556.1184760085218386 [Eh]
	-----------------------------------------------------------

  Dipole Moment: [D]
     X:     1.7828      Y:    -2.6996      Z:     2.1678     Total:     3.8943

*** Psi4 exiting successfully. Buy a developer a beer!
