                               Psi4 1.4a3.dev225

  ==> Input File <==

--------------------------------------------------------------------------
#psi4
#
memory 32 gb

molecule  {
0 1
  O        0.3130990     2.3704440    -1.0483590
  N        1.7883250     1.2487180     0.2800910
  C        1.5287440    -1.3320340    -0.8115580
  C        2.5082430    -1.1273300     0.3546920
  C        0.0936770    -1.0844130    -0.4156830
  C       -0.3593510     0.2288580    -0.1728470
  C        2.1968379    -0.0301078     1.0401983
  C       -1.6973100     0.4876920     0.1815770
  C        0.5874820     1.3794060    -0.3635620
  C       -0.8057180    -2.1460500    -0.2745700
  C       -2.5635920    -0.6025190     0.3218070
  C       -2.1294290    -1.9083920     0.0915650
  C       -2.2005820     1.8899870     0.4130340
  H        1.6305660    -2.3487650    -1.2074160
  H        1.8022820    -0.6509930    -1.6251500
  H        2.4785080    -1.9866810     1.0363320
  H        3.5296620    -1.0584230    -0.0385230
  H        1.3070990    -0.0748920     1.8087120
  H        2.9845300     0.4555350     1.7739000
  H        2.4430930     2.0063180     0.1171350
  H       -0.4670580    -3.1628320    -0.4675050
  H       -3.5988730    -0.4222000     0.6058720
  H       -2.8229980    -2.7393000     0.2003190
  H       -1.5534710     2.4410460     1.1016880
  H       -2.2209110     2.4548110    -0.5213210
  H       -3.2087000     1.8617690     0.8360960
units angstrom
no_reorient  #important for SAPT in psi4, default
symmetry c1  #important for SAPT in psi4, default
}

set PROPERTIES_ORIGIN ["COM"]
properties('MP2/aug-cc-pvtz', properties = ['dipole'])
--------------------------------------------------------------------------

    Molecular point group: c1
  Charge       = 0
  Multiplicity = 1
  Basis Set: AUG-CC-PVTZ
    Blend: AUG-CC-PVTZ
  Basis Set: (AUG-CC-PVTZ AUX)
    Blend: AUG-CC-PVTZ-JKFIT

    Orbital Energies [Eh]
    ---------------------

    Doubly Occupied:

       1A    -20.509624     2A    -15.580012     3A    -11.346196
       4A    -11.287251     5A    -11.254595     6A    -11.252715
       7A    -11.244057     8A    -11.242882     9A    -11.241865
      10A    -11.236060    11A    -11.232910    12A    -11.232541
      13A    -11.214978    14A     -1.363671    15A     -1.224457
      16A     -1.162401    17A     -1.109662    18A     -1.050714
      19A     -1.039303    20A     -0.946887    21A     -0.930614
      22A     -0.868548    23A     -0.825890    24A     -0.786221
      25A     -0.765613    26A     -0.691664    27A     -0.683070
      28A     -0.664837    29A     -0.649859    30A     -0.637690
      31A     -0.620864    32A     -0.591762    33A     -0.584018
      34A     -0.568381    35A     -0.563127    36A     -0.553809
      37A     -0.537601    38A     -0.525065    39A     -0.514624
      40A     -0.497102    41A     -0.487057    42A     -0.477637
      43A     -0.459620    44A     -0.413459    45A     -0.389579
      46A     -0.335687    47A     -0.327848

  @DF-RHF Final Energy:  -553.59327628885478

   => Energetics <=

    Nuclear Repulsion Energy =            797.2790347697629159
    One-Electron Energy =               -2334.2965651973327113
    Two-Electron Energy =                 983.4242541387151277
    Total Energy =                       -553.5932762888547813
  Basis Set: (AUG-CC-PVTZ AUX)
    Blend: AUG-CC-PVTZ-RI
    Molecular point group: c1

    Geometry (in Angstrom), charge = 0, multiplicity = 1:

       Center              X                  Y                   Z               Mass
    ------------   -----------------  -----------------  -----------------  -----------------
         O            0.322923015786     2.363520706561    -1.020820569017    15.994914619570
         N            1.798149015786     1.241794706561     0.307629430983    14.003074004430
         C            1.538568015786    -1.338957293439    -0.784019569017    12.000000000000
         C            2.518067015786    -1.134253293439     0.382230430983    12.000000000000
         C            0.103501015786    -1.091336293439    -0.388144569017    12.000000000000
         C           -0.349526984214     0.221934706561    -0.145308569017    12.000000000000
         C            2.206661915786    -0.037031093439     1.067736730983    12.000000000000
         C           -1.687485984214     0.480768706561     0.209115430983    12.000000000000
         C            0.597306015786     1.372482706561    -0.336023569017    12.000000000000
         C           -0.795893984214    -2.152973293439    -0.247031569017    12.000000000000
         C           -2.553767984214    -0.609442293439     0.349345430983    12.000000000000
         C           -2.119604984214    -1.915315293439     0.119103430983    12.000000000000
         C           -2.190757984214     1.883063706561     0.440572430983    12.000000000000
         H            1.640390015786    -2.355688293439    -1.179877569017     1.007825032230
         H            1.812106015786    -0.657916293439    -1.597611569017     1.007825032230
         H            2.488332015786    -1.993604293439     1.063870430983     1.007825032230
         H            3.539486015786    -1.065346293439    -0.010984569017     1.007825032230
         H            1.316923015786    -0.081815293439     1.836250430983     1.007825032230
         H            2.994354015786     0.448611706561     1.801438430983     1.007825032230
         H            2.452917015786     1.999394706561     0.144673430983     1.007825032230
         H           -0.457233984214    -3.169755293439    -0.439966569017     1.007825032230
         H           -3.589048984214    -0.429123293439     0.633410430983     1.007825032230
         H           -2.813173984214    -2.746223293439     0.227857430983     1.007825032230
         H           -1.543646984214     2.434122706561     1.129226430983     1.007825032230
         H           -2.211086984214     2.447887706561    -0.493782569017     1.007825032230
         H           -3.198875984214     1.854845706561     0.863634430983     1.007825032230

  Basis Set: AUG-CC-PVTZ
    Blend: AUG-CC-PVTZ
  Basis Set: (AUG-CC-PVTZ AUX)
    Blend: AUG-CC-PVTZ-JKFIT
	 Reference Energy          =    -553.5932762888547813 [Eh]
	 Singles Energy            =      -0.0000000000000000 [Eh]
	 Same-Spin Energy          =      -0.6071088244165896 [Eh]
	 Opposite-Spin Energy      =      -1.9075830527764837 [Eh]
	 Correlation Energy        =      -2.5146918771930733 [Eh]
	 Total Energy              =    -556.1079681660478400 [Eh]

	 ================> DF-SCS-MP2 Energies <==================
	-----------------------------------------------------------
	 SCS Same-Spin Scale       =       0.3333333333333333 [-]
	 SCS Opposite-Spin Scale   =       1.2000000000000000 [-]
	 SCS Same-Spin Energy      =      -0.2023696081388632 [Eh]
	 SCS Opposite-Spin Energy  =      -2.2890996633317804 [Eh]
	 SCS Correlation Energy    =      -2.4914692714706437 [Eh]
	 SCS Total Energy          =    -556.0847455603254730 [Eh]
	-----------------------------------------------------------

  Dipole Moment: [D]
     X:     1.8321      Y:    -2.8817      Z:     2.1037     Total:     4.0107

*** Psi4 exiting successfully. Buy a developer a beer!
