                               Psi4 1.4a3.dev225

  ==> Input File <==

--------------------------------------------------------------------------
#psi4
#
memory 32 gb

molecule  {
0 1
  O        0.3130990     2.3704440    -1.0483590
  N        1.7883250     1.2487180     0.2800910
  C        1.5287440    -1.3320340    -0.8115580
  C        2.5082430    -1.1273300     0.3546920
  C        0.0936770    -1.0844130    -0.4156830
  C       -0.3593510     0.2288580    -0.1728470
  C        2.1500350     0.1348000     1.1432270
  C       -1.6973100     0.4876920     0.1815770
  C        0.5874820     1.3794060    -0.3635620
  C       -0.8057180    -2.1460500    -0.2745700
  C       -2.5635920    -0.6025190     0.3218070
  C       -2.1518258    -1.9165034     0.0966254
  C       -2.2005820     1.8899870     0.4130340
  H        1.6305660    -2.3487650    -1.2074160
  H        1.8022820    -0.6509930    -1.6251500
  H        2.4785080    -1.9866810     1.0363320
  H        3.5296620    -1.0584230    -0.0385230
  H        1.3070990    -0.0748920     1.8087120
  H        2.9845300     0.4555350     1.7739000
  H        2.4430930     2.0063180     0.1171350
  H       -0.4670580    -3.1628320    -0.4675050
  H       -3.5988730    -0.4222000     0.6058720
  H       -2.8229980    -2.7393000     0.2003190
  H       -1.5534710     2.4410460     1.1016880
  H       -2.2209110     2.4548110    -0.5213210
  H       -3.2087000     1.8617690     0.8360960
units angstrom
no_reorient  #important for SAPT in psi4, default
symmetry c1  #important for SAPT in psi4, default
}

set PROPERTIES_ORIGIN ["COM"]
properties('MP2/aug-cc-pvtz', properties = ['dipole'])
--------------------------------------------------------------------------

    Molecular point group: c1
  Charge       = 0
  Multiplicity = 1
  Basis Set: AUG-CC-PVTZ
    Blend: AUG-CC-PVTZ
  Basis Set: (AUG-CC-PVTZ AUX)
    Blend: AUG-CC-PVTZ-JKFIT

    Orbital Energies [Eh]
    ---------------------

    Doubly Occupied:

       1A    -20.512807     2A    -15.583084     3A    -11.350397
       4A    -11.274888     5A    -11.254041     6A    -11.253760
       7A    -11.245149     8A    -11.242380     9A    -11.238179
      10A    -11.237472    11A    -11.237275    12A    -11.233246
      13A    -11.216052    14A     -1.367675    15A     -1.235389
      16A     -1.162122    17A     -1.084565    18A     -1.042803
      19A     -1.028970    20A     -0.943107    21A     -0.932576
      22A     -0.873731    23A     -0.830811    24A     -0.784977
      25A     -0.770268    26A     -0.693256    27A     -0.682607
      28A     -0.662014    29A     -0.658748    30A     -0.619143
      31A     -0.615436    32A     -0.593291    33A     -0.583635
      34A     -0.569836    35A     -0.565072    36A     -0.552955
      37A     -0.531434    38A     -0.529000    39A     -0.513633
      40A     -0.508186    41A     -0.489489    42A     -0.477884
      43A     -0.472425    44A     -0.417685    45A     -0.386066
      46A     -0.336031    47A     -0.326630

  @DF-RHF Final Energy:  -553.64214712811861

   => Energetics <=

    Nuclear Repulsion Energy =            795.4966738996039339
    One-Electron Energy =               -2330.8372795991535895
    Two-Electron Energy =                 981.6984585714309333
    Total Energy =                       -553.6421471281186086
  Basis Set: (AUG-CC-PVTZ AUX)
    Blend: AUG-CC-PVTZ-RI
    Molecular point group: c1

    Geometry (in Angstrom), charge = 0, multiplicity = 1:

       Center              X                  Y                   Z               Mass
    ------------   -----------------  -----------------  -----------------  -----------------
         O            0.327665435867     2.352775076219    -1.028228172205    15.994914619570
         N            1.802891435867     1.231049076219     0.300221827795    14.003074004430
         C            1.543310435867    -1.349702923781    -0.791427172205    12.000000000000
         C            2.522809435867    -1.144998923781     0.374822827795    12.000000000000
         C            0.108243435867    -1.102081923781    -0.395552172205    12.000000000000
         C           -0.344784564133     0.211189076219    -0.152716172205    12.000000000000
         C            2.164601435867     0.117131076219     1.163357827795    12.000000000000
         C           -1.682743564133     0.470023076219     0.201707827795    12.000000000000
         C            0.602048435867     1.361737076219    -0.343431172205    12.000000000000
         C           -0.791151564133    -2.163718923781    -0.254439172205    12.000000000000
         C           -2.549025564133    -0.620187923781     0.341937827795    12.000000000000
         C           -2.137259364133    -1.934172323781     0.116756227795    12.000000000000
         C           -2.186015564133     1.872318076219     0.433164827795    12.000000000000
         H            1.645132435867    -2.366433923781    -1.187285172205     1.007825032230
         H            1.816848435867    -0.668661923781    -1.605019172205     1.007825032230
         H            2.493074435867    -2.004349923781     1.056462827795     1.007825032230
         H            3.544228435867    -1.076091923781    -0.018392172205     1.007825032230
         H            1.321665435867    -0.092560923781     1.828842827795     1.007825032230
         H            2.999096435867     0.437866076219     1.794030827795     1.007825032230
         H            2.457659435867     1.988649076219     0.137265827795     1.007825032230
         H           -0.452491564133    -3.180500923781    -0.447374172205     1.007825032230
         H           -3.584306564133    -0.439868923781     0.626002827795     1.007825032230
         H           -2.808431564133    -2.756968923781     0.220449827795     1.007825032230
         H           -1.538904564133     2.423377076219     1.121818827795     1.007825032230
         H           -2.206344564133     2.437142076219    -0.501190172205     1.007825032230
         H           -3.194133564133     1.844100076219     0.856226827795     1.007825032230

  Basis Set: AUG-CC-PVTZ
    Blend: AUG-CC-PVTZ
  Basis Set: (AUG-CC-PVTZ AUX)
    Blend: AUG-CC-PVTZ-JKFIT
	 Reference Energy          =    -553.6421471281186086 [Eh]
	 Singles Energy            =      -0.0000000000000000 [Eh]
	 Same-Spin Energy          =      -0.6042044202620985 [Eh]
	 Opposite-Spin Energy      =      -1.9033150322715415 [Eh]
	 Correlation Energy        =      -2.5075194525336402 [Eh]
	 Total Energy              =    -556.1496665806522515 [Eh]

	 ================> DF-SCS-MP2 Energies <==================
	-----------------------------------------------------------
	 SCS Same-Spin Scale       =       0.3333333333333333 [-]
	 SCS Opposite-Spin Scale   =       1.2000000000000000 [-]
	 SCS Same-Spin Energy      =      -0.2014014734206995 [Eh]
	 SCS Opposite-Spin Energy  =      -2.2839780387258499 [Eh]
	 SCS Correlation Energy    =      -2.4853795121465496 [Eh]
	 SCS Total Energy          =    -556.1275266402651596 [Eh]
	-----------------------------------------------------------

  Dipole Moment: [D]
     X:     1.7261      Y:    -2.5437      Z:     2.2056     Total:     3.7835

*** Psi4 exiting successfully. Buy a developer a beer!
