                               Psi4 1.4a3.dev225

  ==> Input File <==

--------------------------------------------------------------------------
#psi4
#
memory 32 gb

molecule  {
0 1
  O        0.3130990     2.3704440    -1.0483590
  N        1.7883250     1.2487180     0.2800910
  C        1.5287440    -1.3320340    -0.8115580
  C        2.5082430    -1.1273300     0.3546920
  C        0.1284333    -1.1165610    -0.4275769
  C       -0.3593510     0.2288580    -0.1728470
  C        2.1500350     0.1348000     1.1432270
  C       -1.6973100     0.4876920     0.1815770
  C        0.5874820     1.3794060    -0.3635620
  C       -0.8057180    -2.1460500    -0.2745700
  C       -2.5635920    -0.6025190     0.3218070
  C       -2.1294290    -1.9083920     0.0915650
  C       -2.2005820     1.8899870     0.4130340
  H        1.6305660    -2.3487650    -1.2074160
  H        1.8022820    -0.6509930    -1.6251500
  H        2.4785080    -1.9866810     1.0363320
  H        3.5296620    -1.0584230    -0.0385230
  H        1.3070990    -0.0748920     1.8087120
  H        2.9845300     0.4555350     1.7739000
  H        2.4430930     2.0063180     0.1171350
  H       -0.4670580    -3.1628320    -0.4675050
  H       -3.5988730    -0.4222000     0.6058720
  H       -2.8229980    -2.7393000     0.2003190
  H       -1.5534710     2.4410460     1.1016880
  H       -2.2209110     2.4548110    -0.5213210
  H       -3.2087000     1.8617690     0.8360960
units angstrom
no_reorient  #important for SAPT in psi4, default
symmetry c1  #important for SAPT in psi4, default
}

set PROPERTIES_ORIGIN ["COM"]
properties('MP2/aug-cc-pvtz', properties = ['dipole'])
--------------------------------------------------------------------------

    Molecular point group: c1
  Charge       = 0
  Multiplicity = 1
  Basis Set: AUG-CC-PVTZ
    Blend: AUG-CC-PVTZ
  Basis Set: (AUG-CC-PVTZ AUX)
    Blend: AUG-CC-PVTZ-JKFIT

    Orbital Energies [Eh]
    ---------------------

    Doubly Occupied:

       1A    -20.512029     2A    -15.582774     3A    -11.349433
       4A    -11.275074     5A    -11.257121     6A    -11.253466
       7A    -11.245329     8A    -11.244726     9A    -11.238623
      10A    -11.236888    11A    -11.235823    12A    -11.233506
      13A    -11.215918    14A     -1.366934    15A     -1.235120
      16A     -1.161002    17A     -1.089604    18A     -1.044243
      19A     -1.026702    20A     -0.943507    21A     -0.934088
      22A     -0.874930    23A     -0.831423    24A     -0.785185
      25A     -0.764984    26A     -0.694157    27A     -0.683530
      28A     -0.661297    29A     -0.658898    30A     -0.618285
      31A     -0.616343    32A     -0.591135    33A     -0.584438
      34A     -0.569910    35A     -0.565710    36A     -0.554448
      37A     -0.532562    38A     -0.529965    39A     -0.514463
      40A     -0.506384    41A     -0.487853    42A     -0.478357
      43A     -0.476182    44A     -0.416028    45A     -0.385920
      46A     -0.332611    47A     -0.327302

  @DF-RHF Final Energy:  -553.63898268891796

   => Energetics <=

    Nuclear Repulsion Energy =            795.5350169009897172
    One-Electron Energy =               -2330.8995756070021343
    Two-Electron Energy =                 981.7255760170943404
    Total Energy =                       -553.6389826889179631
  Basis Set: (AUG-CC-PVTZ AUX)
    Blend: AUG-CC-PVTZ-RI
    Molecular point group: c1

    Geometry (in Angstrom), charge = 0, multiplicity = 1:

       Center              X                  Y                   Z               Mass
    ------------   -----------------  -----------------  -----------------  -----------------
         O            0.323748597945     2.354422361605    -1.027066253689    15.994914619570
         N            1.798974597945     1.232696361605     0.301383746311    14.003074004430
         C            1.539393597945    -1.348055638395    -0.790265253689    12.000000000000
         C            2.518892597945    -1.143351638395     0.375984746311    12.000000000000
         C            0.139082897945    -1.132582638395    -0.406284153689    12.000000000000
         C           -0.348701402055     0.212836361605    -0.151554253689    12.000000000000
         C            2.160684597945     0.118778361605     1.164519746311    12.000000000000
         C           -1.686660402055     0.471670361605     0.202869746311    12.000000000000
         C            0.598131597945     1.363384361605    -0.342269253689    12.000000000000
         C           -0.795068402055    -2.162071638395    -0.253277253689    12.000000000000
         C           -2.552942402055    -0.618540638395     0.343099746311    12.000000000000
         C           -2.118779402055    -1.924413638395     0.112857746311    12.000000000000
         C           -2.189932402055     1.873965361605     0.434326746311    12.000000000000
         H            1.641215597945    -2.364786638395    -1.186123253689     1.007825032230
         H            1.812931597945    -0.667014638395    -1.603857253689     1.007825032230
         H            2.489157597945    -2.002702638395     1.057624746311     1.007825032230
         H            3.540311597945    -1.074444638395    -0.017230253689     1.007825032230
         H            1.317748597945    -0.090913638395     1.830004746311     1.007825032230
         H            2.995179597945     0.439513361605     1.795192746311     1.007825032230
         H            2.453742597945     1.990296361605     0.138427746311     1.007825032230
         H           -0.456408402055    -3.178853638395    -0.446212253689     1.007825032230
         H           -3.588223402055    -0.438221638395     0.627164746311     1.007825032230
         H           -2.812348402055    -2.755321638395     0.221611746311     1.007825032230
         H           -1.542821402055     2.425024361605     1.122980746311     1.007825032230
         H           -2.210261402055     2.438789361605    -0.500028253689     1.007825032230
         H           -3.198050402055     1.845747361605     0.857388746311     1.007825032230

  Basis Set: AUG-CC-PVTZ
    Blend: AUG-CC-PVTZ
  Basis Set: (AUG-CC-PVTZ AUX)
    Blend: AUG-CC-PVTZ-JKFIT
	 Reference Energy          =    -553.6389826889179631 [Eh]
	 Singles Energy            =      -0.0000000000000000 [Eh]
	 Same-Spin Energy          =      -0.6047950049979868 [Eh]
	 Opposite-Spin Energy      =      -1.9039896953547766 [Eh]
	 Correlation Energy        =      -2.5087847003527632 [Eh]
	 Total Energy              =    -556.1477673892707116 [Eh]

	 ================> DF-SCS-MP2 Energies <==================
	-----------------------------------------------------------
	 SCS Same-Spin Scale       =       0.3333333333333333 [-]
	 SCS Opposite-Spin Scale   =       1.2000000000000000 [-]
	 SCS Same-Spin Energy      =      -0.2015983349993289 [Eh]
	 SCS Opposite-Spin Energy  =      -2.2847876344257316 [Eh]
	 SCS Correlation Energy    =      -2.4863859694250605 [Eh]
	 SCS Total Energy          =    -556.1253686583430635 [Eh]
	-----------------------------------------------------------

  Dipole Moment: [D]
     X:     1.7550      Y:    -2.5406      Z:     2.2028     Total:     3.7930

*** Psi4 exiting successfully. Buy a developer a beer!
