                               Psi4 1.4a3.dev225

  ==> Input File <==

--------------------------------------------------------------------------
#psi4
#
memory 32 gb

molecule  {
0 1
  O        0.3324742     2.3787311    -1.0437897
  N        1.7883250     1.2487180     0.2800910
  C        1.5287440    -1.3320340    -0.8115580
  C        2.5082430    -1.1273300     0.3546920
  C        0.0936770    -1.0844130    -0.4156830
  C       -0.3593510     0.2288580    -0.1728470
  C        2.1500350     0.1348000     1.1432270
  C       -1.6973100     0.4876920     0.1815770
  C        0.5874820     1.3794060    -0.3635620
  C       -0.8057180    -2.1460500    -0.2745700
  C       -2.5635920    -0.6025190     0.3218070
  C       -2.1294290    -1.9083920     0.0915650
  C       -2.2005820     1.8899870     0.4130340
  H        1.6305660    -2.3487650    -1.2074160
  H        1.8022820    -0.6509930    -1.6251500
  H        2.4785080    -1.9866810     1.0363320
  H        3.5296620    -1.0584230    -0.0385230
  H        1.3070990    -0.0748920     1.8087120
  H        2.9845300     0.4555350     1.7739000
  H        2.4430930     2.0063180     0.1171350
  H       -0.4670580    -3.1628320    -0.4675050
  H       -3.5988730    -0.4222000     0.6058720
  H       -2.8229980    -2.7393000     0.2003190
  H       -1.5534710     2.4410460     1.1016880
  H       -2.2209110     2.4548110    -0.5213210
  H       -3.2087000     1.8617690     0.8360960
units angstrom
no_reorient  #important for SAPT in psi4, default
symmetry c1  #important for SAPT in psi4, default
}

set PROPERTIES_ORIGIN ["COM"]
properties('MP2/aug-cc-pvtz', properties = ['dipole'])
--------------------------------------------------------------------------

    Molecular point group: c1
  Charge       = 0
  Multiplicity = 1
  Basis Set: AUG-CC-PVTZ
    Blend: AUG-CC-PVTZ
  Basis Set: (AUG-CC-PVTZ AUX)
    Blend: AUG-CC-PVTZ-JKFIT

    Orbital Energies [Eh]
    ---------------------

    Doubly Occupied:

       1A    -20.512255     2A    -15.581860     3A    -11.350119
       4A    -11.274283     5A    -11.254903     6A    -11.254072
       7A    -11.244919     8A    -11.242732     9A    -11.238306
      10A    -11.237241    11A    -11.235658    12A    -11.233079
      13A    -11.216408    14A     -1.367615    15A     -1.234150
      16A     -1.164132    17A     -1.084681    18A     -1.045226
      19A     -1.028809    20A     -0.943270    21A     -0.933357
      22A     -0.873853    23A     -0.830124    24A     -0.784997
      25A     -0.769920    26A     -0.693811    27A     -0.682679
      28A     -0.660083    29A     -0.658854    30A     -0.619568
      31A     -0.615052    32A     -0.591122    33A     -0.583763
      34A     -0.570550    35A     -0.566303    36A     -0.553158
      37A     -0.531785    38A     -0.530556    39A     -0.513963
      40A     -0.505465    41A     -0.488864    42A     -0.479608
      43A     -0.474014    44A     -0.417481    45A     -0.385068
      46A     -0.337138    47A     -0.327921

  @DF-RHF Final Energy:  -553.64322670837669

   => Energetics <=

    Nuclear Repulsion Energy =            795.8393588124253029
    One-Electron Energy =               -2331.5196189737503119
    Two-Electron Energy =                 982.0370334529482079
    Total Energy =                       -553.6432267083766874
  Basis Set: (AUG-CC-PVTZ AUX)
    Blend: AUG-CC-PVTZ-RI
    Molecular point group: c1

    Geometry (in Angstrom), charge = 0, multiplicity = 1:

       Center              X                  Y                   Z               Mass
    ------------   -----------------  -----------------  -----------------  -----------------
         O            0.343735854515     2.359749277120    -1.023729464915    15.994914619570
         N            1.799586654515     1.229736177120     0.300151235085    14.003074004430
         C            1.540005654515    -1.351015822880    -0.791497764915    12.000000000000
         C            2.519504654515    -1.146311822880     0.374752235085    12.000000000000
         C            0.104938654515    -1.103394822880    -0.395622764915    12.000000000000
         C           -0.348089345485     0.209876177120    -0.152786764915    12.000000000000
         C            2.161296654515     0.115818177120     1.163287235085    12.000000000000
         C           -1.686048345485     0.468710177120     0.201637235085    12.000000000000
         C            0.598743654515     1.360424177120    -0.343501764915    12.000000000000
         C           -0.794456345485    -2.165031822880    -0.254509764915    12.000000000000
         C           -2.552330345485    -0.621500822880     0.341867235085    12.000000000000
         C           -2.118167345485    -1.927373822880     0.111625235085    12.000000000000
         C           -2.189320345485     1.871005177120     0.433094235085    12.000000000000
         H            1.641827654515    -2.367746822880    -1.187355764915     1.007825032230
         H            1.813543654515    -0.669974822880    -1.605089764915     1.007825032230
         H            2.489769654515    -2.005662822880     1.056392235085     1.007825032230
         H            3.540923654515    -1.077404822880    -0.018462764915     1.007825032230
         H            1.318360654515    -0.093873822880     1.828772235085     1.007825032230
         H            2.995791654515     0.436553177120     1.793960235085     1.007825032230
         H            2.454354654515     1.987336177120     0.137195235085     1.007825032230
         H           -0.455796345485    -3.181813822880    -0.447444764915     1.007825032230
         H           -3.587611345485    -0.441181822880     0.625932235085     1.007825032230
         H           -2.811736345485    -2.758281822880     0.220379235085     1.007825032230
         H           -1.542209345485     2.422064177120     1.121748235085     1.007825032230
         H           -2.209649345485     2.435829177120    -0.501260764915     1.007825032230
         H           -3.197438345485     1.842787177120     0.856156235085     1.007825032230

  Basis Set: AUG-CC-PVTZ
    Blend: AUG-CC-PVTZ
  Basis Set: (AUG-CC-PVTZ AUX)
    Blend: AUG-CC-PVTZ-JKFIT
	 Reference Energy          =    -553.6432267083766874 [Eh]
	 Singles Energy            =      -0.0000000000000000 [Eh]
	 Same-Spin Energy          =      -0.6041424471715796 [Eh]
	 Opposite-Spin Energy      =      -1.9030085762060605 [Eh]
	 Correlation Energy        =      -2.5071510233776402 [Eh]
	 Total Energy              =    -556.1503777317543609 [Eh]

	 ================> DF-SCS-MP2 Energies <==================
	-----------------------------------------------------------
	 SCS Same-Spin Scale       =       0.3333333333333333 [-]
	 SCS Opposite-Spin Scale   =       1.2000000000000000 [-]
	 SCS Same-Spin Energy      =      -0.2013808157238599 [Eh]
	 SCS Opposite-Spin Energy  =      -2.2836102914472725 [Eh]
	 SCS Correlation Energy    =      -2.4849911071711324 [Eh]
	 SCS Total Energy          =    -556.1282178155478277 [Eh]
	-----------------------------------------------------------

  Dipole Moment: [D]
     X:     1.6647      Y:    -2.5733      Z:     2.1977     Total:     3.7713

*** Psi4 exiting successfully. Buy a developer a beer!
