                               Psi4 1.4a3.dev225

  ==> Input File <==

--------------------------------------------------------------------------
#psi4
#
memory 32 gb

molecule  {
0 1
  O        0.3130990     2.3704440    -1.0483590
  N        1.7883250     1.2487180     0.2800910
  C        1.5287440    -1.3320340    -0.8115580
  C        2.5082430    -1.1273300     0.3546920
  C        0.0936770    -1.0844130    -0.4156830
  C       -0.3593510     0.2288580    -0.1728470
  C        2.1500350     0.1348000     1.1432270
  C       -1.6973100     0.4876920     0.1815770
  C        0.5874820     1.3794060    -0.3635620
  C       -0.8057180    -2.1460500    -0.2745700
  C       -2.5635920    -0.6025190     0.3218070
  C       -2.1294290    -1.9083920     0.0915650
  C       -2.1838924     1.8434839     0.4053584
  H        1.6305660    -2.3487650    -1.2074160
  H        1.8022820    -0.6509930    -1.6251500
  H        2.4785080    -1.9866810     1.0363320
  H        3.5296620    -1.0584230    -0.0385230
  H        1.3070990    -0.0748920     1.8087120
  H        2.9845300     0.4555350     1.7739000
  H        2.4430930     2.0063180     0.1171350
  H       -0.4670580    -3.1628320    -0.4675050
  H       -3.5988730    -0.4222000     0.6058720
  H       -2.8229980    -2.7393000     0.2003190
  H       -1.5534710     2.4410460     1.1016880
  H       -2.2209110     2.4548110    -0.5213210
  H       -3.2087000     1.8617690     0.8360960
units angstrom
no_reorient  #important for SAPT in psi4, default
symmetry c1  #important for SAPT in psi4, default
}

set PROPERTIES_ORIGIN ["COM"]
properties('MP2/aug-cc-pvtz', properties = ['dipole'])
--------------------------------------------------------------------------

    Molecular point group: c1
  Charge       = 0
  Multiplicity = 1
  Basis Set: AUG-CC-PVTZ
    Blend: AUG-CC-PVTZ
  Basis Set: (AUG-CC-PVTZ AUX)
    Blend: AUG-CC-PVTZ-JKFIT

    Orbital Energies [Eh]
    ---------------------

    Doubly Occupied:

       1A    -20.512683     2A    -15.583081     3A    -11.350396
       4A    -11.274943     5A    -11.254489     6A    -11.251435
       7A    -11.244491     8A    -11.242018     9A    -11.238341
      10A    -11.237468    11A    -11.235359    12A    -11.232683
      13A    -11.217380    14A     -1.367632    15A     -1.235396
      16A     -1.165299    17A     -1.086537    18A     -1.048292
      19A     -1.029374    20A     -0.943332    21A     -0.933003
      22A     -0.873485    23A     -0.829601    24A     -0.785351
      25A     -0.769698    26A     -0.694046    27A     -0.683159
      28A     -0.661165    29A     -0.659688    30A     -0.620754
      31A     -0.615680    32A     -0.593706    33A     -0.584088
      34A     -0.572127    35A     -0.565589    36A     -0.551711
      37A     -0.530532    38A     -0.525387    39A     -0.515784
      40A     -0.503132    41A     -0.490404    42A     -0.477593
      43A     -0.474665    44A     -0.417164    45A     -0.385935
      46A     -0.336408    47A     -0.326356

  @DF-RHF Final Energy:  -553.63986666923074

   => Energetics <=

    Nuclear Repulsion Energy =            796.9561145478224944
    One-Electron Energy =               -2333.7382891170573203
    Two-Electron Energy =                 983.1423079000041980
    Total Energy =                       -553.6398666692307415
  Basis Set: (AUG-CC-PVTZ AUX)
    Blend: AUG-CC-PVTZ-RI
    Molecular point group: c1

    Geometry (in Angstrom), charge = 0, multiplicity = 1:

       Center              X                  Y                   Z               Mass
    ------------   -----------------  -----------------  -----------------  -----------------
         O            0.324986751880     2.355406150762    -1.027355343824    15.994914619570
         N            1.800212751880     1.233680150762     0.301094656176    14.003074004430
         C            1.540631751880    -1.347071849238    -0.790554343824    12.000000000000
         C            2.520130751880    -1.142367849238     0.375695656176    12.000000000000
         C            0.105564751880    -1.099450849238    -0.394679343824    12.000000000000
         C           -0.347463248120     0.213820150762    -0.151843343824    12.000000000000
         C            2.161922751880     0.119762150762     1.164230656176    12.000000000000
         C           -1.685422248120     0.472654150762     0.202580656176    12.000000000000
         C            0.599369751880     1.364368150762    -0.342558343824    12.000000000000
         C           -0.793830248120    -2.161087849238    -0.253566343824    12.000000000000
         C           -2.551704248120    -0.617556849238     0.342810656176    12.000000000000
         C           -2.117541248120    -1.923429849238     0.112568656176    12.000000000000
         C           -2.172004648120     1.828446050762     0.426362056176    12.000000000000
         H            1.642453751880    -2.363802849238    -1.186412343824     1.007825032230
         H            1.814169751880    -0.666030849238    -1.604146343824     1.007825032230
         H            2.490395751880    -2.001718849238     1.057335656176     1.007825032230
         H            3.541549751880    -1.073460849238    -0.017519343824     1.007825032230
         H            1.318986751880    -0.089929849238     1.829715656176     1.007825032230
         H            2.996417751880     0.440497150762     1.794903656176     1.007825032230
         H            2.454980751880     1.991280150762     0.138138656176     1.007825032230
         H           -0.455170248120    -3.177869849238    -0.446501343824     1.007825032230
         H           -3.586985248120    -0.437237849238     0.626875656176     1.007825032230
         H           -2.811110248120    -2.754337849238     0.221322656176     1.007825032230
         H           -1.541583248120     2.426008150762     1.122691656176     1.007825032230
         H           -2.209023248120     2.439773150762    -0.500317343824     1.007825032230
         H           -3.196812248120     1.846731150762     0.857099656176     1.007825032230

  Basis Set: AUG-CC-PVTZ
    Blend: AUG-CC-PVTZ
  Basis Set: (AUG-CC-PVTZ AUX)
    Blend: AUG-CC-PVTZ-JKFIT
	 Reference Energy          =    -553.6398666692307415 [Eh]
	 Singles Energy            =      -0.0000000000000000 [Eh]
	 Same-Spin Energy          =      -0.6047777479235673 [Eh]
	 Opposite-Spin Energy      =      -1.9037038160161757 [Eh]
	 Correlation Energy        =      -2.5084815639397431 [Eh]
	 Total Energy              =    -556.1483482331705090 [Eh]

	 ================> DF-SCS-MP2 Energies <==================
	-----------------------------------------------------------
	 SCS Same-Spin Scale       =       0.3333333333333333 [-]
	 SCS Opposite-Spin Scale   =       1.2000000000000000 [-]
	 SCS Same-Spin Energy      =      -0.2015925826411891 [Eh]
	 SCS Opposite-Spin Energy  =      -2.2844445792194108 [Eh]
	 SCS Correlation Energy    =      -2.4860371618606001 [Eh]
	 SCS Total Energy          =    -556.1259038310913638 [Eh]
	-----------------------------------------------------------

  Dipole Moment: [D]
     X:     1.7280      Y:    -2.5217      Z:     2.2000     Total:     3.7663

*** Psi4 exiting successfully. Buy a developer a beer!
