                               Psi4 1.4a3.dev225

  ==> Input File <==

--------------------------------------------------------------------------
#psi4
#
memory 32 gb

molecule  {
0 1
  O        0.3130990     2.3704440    -1.0483590
  N        1.7883250     1.2487180     0.2800910
  C        1.5287440    -1.3320340    -0.8115580
  C        2.5082430    -1.1273300     0.3546920
  C        0.0936770    -1.0844130    -0.4156830
  C       -0.3593510     0.2288580    -0.1728470
  C        2.1266336     0.2172539     1.1947413
  C       -1.6973100     0.4876920     0.1815770
  C        0.5874820     1.3794060    -0.3635620
  C       -0.8057180    -2.1460500    -0.2745700
  C       -2.5635920    -0.6025190     0.3218070
  C       -2.1294290    -1.9083920     0.0915650
  C       -2.2005820     1.8899870     0.4130340
  H        1.6305660    -2.3487650    -1.2074160
  H        1.8022820    -0.6509930    -1.6251500
  H        2.4785080    -1.9866810     1.0363320
  H        3.5296620    -1.0584230    -0.0385230
  H        1.3070990    -0.0748920     1.8087120
  H        2.9845300     0.4555350     1.7739000
  H        2.4430930     2.0063180     0.1171350
  H       -0.4670580    -3.1628320    -0.4675050
  H       -3.5988730    -0.4222000     0.6058720
  H       -2.8229980    -2.7393000     0.2003190
  H       -1.5534710     2.4410460     1.1016880
  H       -2.2209110     2.4548110    -0.5213210
  H       -3.2087000     1.8617690     0.8360960
units angstrom
no_reorient  #important for SAPT in psi4, default
symmetry c1  #important for SAPT in psi4, default
}

set PROPERTIES_ORIGIN ["COM"]
properties('MP2/aug-cc-pvtz', properties = ['dipole'])
--------------------------------------------------------------------------

    Molecular point group: c1
  Charge       = 0
  Multiplicity = 1
  Basis Set: AUG-CC-PVTZ
    Blend: AUG-CC-PVTZ
  Basis Set: (AUG-CC-PVTZ AUX)
    Blend: AUG-CC-PVTZ-JKFIT

    Orbital Energies [Eh]
    ---------------------

    Doubly Occupied:

       1A    -20.514543     2A    -15.584774     3A    -11.352357
       4A    -11.272168     5A    -11.254251     6A    -11.253866
       7A    -11.244583     8A    -11.242147     9A    -11.237924
      10A    -11.236556    11A    -11.234988    12A    -11.232646
      13A    -11.216396    14A     -1.369805    15A     -1.242549
      16A     -1.164155    17A     -1.079513    18A     -1.044484
      19A     -1.021286    20A     -0.942484    21A     -0.935238
      22A     -0.874626    23A     -0.830668    24A     -0.784632
      25A     -0.771793    26A     -0.696508    27A     -0.688426
      28A     -0.663514    29A     -0.658769    30A     -0.615224
      31A     -0.612815    32A     -0.590848    33A     -0.585427
      34A     -0.571472    35A     -0.568143    36A     -0.554204
      37A     -0.536598    38A     -0.531845    39A     -0.510780
      40A     -0.503675    41A     -0.485304    42A     -0.479234
      43A     -0.472383    44A     -0.419394    45A     -0.377716
      46A     -0.336820    47A     -0.327370

  @DF-RHF Final Energy:  -553.63596432484542

   => Energetics <=

    Nuclear Repulsion Energy =            795.3836422910105739
    One-Electron Energy =               -2330.5894135574503707
    Two-Electron Energy =                 981.5698069415943792
    Total Energy =                       -553.6359643248454177
  Basis Set: (AUG-CC-PVTZ AUX)
    Blend: AUG-CC-PVTZ-RI
    Molecular point group: c1

    Geometry (in Angstrom), charge = 0, multiplicity = 1:

       Center              X                  Y                   Z               Mass
    ------------   -----------------  -----------------  -----------------  -----------------
         O            0.327734283495     2.346568420738    -1.031411768495    15.994914619570
         N            1.802960283495     1.224842420738     0.297038231505    14.003074004430
         C            1.543379283495    -1.355909579262    -0.794610768495    12.000000000000
         C            2.522878283495    -1.151205579262     0.371639231505    12.000000000000
         C            0.108312283495    -1.108288579262    -0.398735768495    12.000000000000
         C           -0.344715716505     0.204982420738    -0.155899768495    12.000000000000
         C            2.141268883495     0.193378320738     1.211688531505    12.000000000000
         C           -1.682674716505     0.463816420738     0.198524231505    12.000000000000
         C            0.602117283495     1.355530420738    -0.346614768495    12.000000000000
         C           -0.791082716505    -2.169925579262    -0.257622768495    12.000000000000
         C           -2.548956716505    -0.626394579262     0.338754231505    12.000000000000
         C           -2.114793716505    -1.932267579262     0.108512231505    12.000000000000
         C           -2.185946716505     1.866111420738     0.429981231505    12.000000000000
         H            1.645201283495    -2.372640579262    -1.190468768495     1.007825032230
         H            1.816917283495    -0.674868579262    -1.608202768495     1.007825032230
         H            2.493143283495    -2.010556579262     1.053279231505     1.007825032230
         H            3.544297283495    -1.082298579262    -0.021575768495     1.007825032230
         H            1.321734283495    -0.098767579262     1.825659231505     1.007825032230
         H            2.999165283495     0.431659420738     1.790847231505     1.007825032230
         H            2.457728283495     1.982442420738     0.134082231505     1.007825032230
         H           -0.452422716505    -3.186707579262    -0.450557768495     1.007825032230
         H           -3.584237716505    -0.446075579262     0.622819231505     1.007825032230
         H           -2.808362716505    -2.763175579262     0.217266231505     1.007825032230
         H           -1.538835716505     2.417170420738     1.118635231505     1.007825032230
         H           -2.206275716505     2.430935420738    -0.504373768495     1.007825032230
         H           -3.194064716505     1.837893420738     0.853043231505     1.007825032230

  Basis Set: AUG-CC-PVTZ
    Blend: AUG-CC-PVTZ
  Basis Set: (AUG-CC-PVTZ AUX)
    Blend: AUG-CC-PVTZ-JKFIT
	 Reference Energy          =    -553.6359643248454177 [Eh]
	 Singles Energy            =      -0.0000000000000000 [Eh]
	 Same-Spin Energy          =      -0.6041026071620834 [Eh]
	 Opposite-Spin Energy      =      -1.9031067742341763 [Eh]
	 Correlation Energy        =      -2.5072093813962599 [Eh]
	 Total Energy              =    -556.1431737062416687 [Eh]

	 ================> DF-SCS-MP2 Energies <==================
	-----------------------------------------------------------
	 SCS Same-Spin Scale       =       0.3333333333333333 [-]
	 SCS Opposite-Spin Scale   =       1.2000000000000000 [-]
	 SCS Same-Spin Energy      =      -0.2013675357206945 [Eh]
	 SCS Opposite-Spin Energy  =      -2.2837281290810116 [Eh]
	 SCS Correlation Energy    =      -2.4850956648017060 [Eh]
	 SCS Total Energy          =    -556.1210599896471649 [Eh]
	-----------------------------------------------------------

  Dipole Moment: [D]
     X:     1.6665      Y:    -2.3871      Z:     2.2212     Total:     3.6619

*** Psi4 exiting successfully. Buy a developer a beer!
