                               Psi4 1.4a3.dev225

  ==> Input File <==

--------------------------------------------------------------------------
#psi4
#
memory 32 gb

molecule  {
0 1
  O        0.3130990     2.3704440    -1.0483590
  N        1.7883250     1.2487180     0.2800910
  C        1.5287440    -1.3320340    -0.8115580
  C        2.5082430    -1.1273300     0.3546920
  C        0.0936770    -1.0844130    -0.4156830
  C       -0.3593510     0.2288580    -0.1728470
  C        2.1500350     0.1348000     1.1432270
  C       -1.6973100     0.4876920     0.1815770
  C        0.5874820     1.3794060    -0.3635620
  C       -0.8057180    -2.1460500    -0.2745700
  C       -2.5635920    -0.6025190     0.3218070
  C       -2.1294290    -1.9083920     0.0915650
  C       -2.2005820     1.8899870     0.4130340
  H        1.6305660    -2.3487650    -1.2074160
  H        1.8022820    -0.6509930    -1.6251500
  H        2.4785080    -1.9866810     1.0363320
  H        3.5296620    -1.0584230    -0.0385230
  H        1.3070990    -0.0748920     1.8087120
  H        2.9845300     0.4555350     1.7739000
  H        2.4430930     2.0063180     0.1171350
  H       -0.4670580    -3.1628320    -0.4675050
  H       -3.5988730    -0.4222000     0.6058720
  H       -2.7911181    -2.7011073     0.1953201
  H       -1.5534710     2.4410460     1.1016880
  H       -2.2209110     2.4548110    -0.5213210
  H       -3.2087000     1.8617690     0.8360960
units angstrom
no_reorient  #important for SAPT in psi4, default
symmetry c1  #important for SAPT in psi4, default
}

set PROPERTIES_ORIGIN ["COM"]
properties('MP2/aug-cc-pvtz', properties = ['dipole'])
--------------------------------------------------------------------------

    Molecular point group: c1
  Charge       = 0
  Multiplicity = 1
  Basis Set: AUG-CC-PVTZ
    Blend: AUG-CC-PVTZ
  Basis Set: (AUG-CC-PVTZ AUX)
    Blend: AUG-CC-PVTZ-JKFIT

    Orbital Energies [Eh]
    ---------------------

    Doubly Occupied:

       1A    -20.512606     2A    -15.582966     3A    -11.350218
       4A    -11.274824     5A    -11.254009     6A    -11.253184
       7A    -11.241862     8A    -11.238571     9A    -11.238100
      10A    -11.237291    11A    -11.234820    12A    -11.232269
      13A    -11.215720    14A     -1.367497    15A     -1.235268
      16A     -1.163681    17A     -1.084511    18A     -1.045837
      19A     -1.028892    20A     -0.943005    21A     -0.933089
      22A     -0.875472    23A     -0.831132    24A     -0.785764
      25A     -0.770431    26A     -0.693917    27A     -0.682874
      28A     -0.664673    29A     -0.659045    30A     -0.619527
      31A     -0.616517    32A     -0.593169    33A     -0.583707
      34A     -0.570230    35A     -0.565993    36A     -0.552954
      37A     -0.531409    38A     -0.530475    39A     -0.513777
      40A     -0.506998    41A     -0.489117    42A     -0.479058
      43A     -0.473687    44A     -0.417425    45A     -0.385955
      46A     -0.336275    47A     -0.327255

  @DF-RHF Final Energy:  -553.64244955884078

   => Energetics <=

    Nuclear Repulsion Energy =            796.2582377291133753
    One-Electron Energy =               -2332.3512568525970892
    Two-Electron Energy =                 982.4505695646430468
    Total Energy =                       -553.6424495588407808
  Basis Set: (AUG-CC-PVTZ AUX)
    Blend: AUG-CC-PVTZ-RI
    Molecular point group: c1

    Geometry (in Angstrom), charge = 0, multiplicity = 1:

       Center              X                  Y                   Z               Mass
    ------------   -----------------  -----------------  -----------------  -----------------
         O            0.325947038079     2.351999356168    -1.027852598682    15.994914619570
         N            1.801173038079     1.230273356168     0.300597401318    14.003074004430
         C            1.541592038079    -1.350478643832    -0.791051598682    12.000000000000
         C            2.521091038079    -1.145774643832     0.375198401318    12.000000000000
         C            0.106525038079    -1.102857643832    -0.395176598682    12.000000000000
         C           -0.346502961921     0.210413356168    -0.152340598682    12.000000000000
         C            2.162883038079     0.116355356168     1.163733401318    12.000000000000
         C           -1.684461961921     0.469247356168     0.202083401318    12.000000000000
         C            0.600330038079     1.360961356168    -0.343055598682    12.000000000000
         C           -0.792869961921    -2.164494643832    -0.254063598682    12.000000000000
         C           -2.550743961921    -0.620963643832     0.342313401318    12.000000000000
         C           -2.116580961921    -1.926836643832     0.112071401318    12.000000000000
         C           -2.187733961921     1.871542356168     0.433540401318    12.000000000000
         H            1.643414038079    -2.367209643832    -1.186909598682     1.007825032230
         H            1.815130038079    -0.669437643832    -1.604643598682     1.007825032230
         H            2.491356038079    -2.005125643832     1.056838401318     1.007825032230
         H            3.542510038079    -1.076867643832    -0.018016598682     1.007825032230
         H            1.319947038079    -0.093336643832     1.829218401318     1.007825032230
         H            2.997378038079     0.437090356168     1.794406401318     1.007825032230
         H            2.455941038079     1.987873356168     0.137641401318     1.007825032230
         H           -0.454209961921    -3.181276643832    -0.446998598682     1.007825032230
         H           -3.586024961921    -0.440644643832     0.626378401318     1.007825032230
         H           -2.778270061921    -2.719551943832     0.215826501318     1.007825032230
         H           -1.540622961921     2.422601356168     1.122194401318     1.007825032230
         H           -2.208062961921     2.436366356168    -0.500814598682     1.007825032230
         H           -3.195851961921     1.843324356168     0.856602401318     1.007825032230

  Basis Set: AUG-CC-PVTZ
    Blend: AUG-CC-PVTZ
  Basis Set: (AUG-CC-PVTZ AUX)
    Blend: AUG-CC-PVTZ-JKFIT
	 Reference Energy          =    -553.6424495588407808 [Eh]
	 Singles Energy            =      -0.0000000000000000 [Eh]
	 Same-Spin Energy          =      -0.6040984840307346 [Eh]
	 Opposite-Spin Energy      =      -1.9027191067006886 [Eh]
	 Correlation Energy        =      -2.5068175907314232 [Eh]
	 Total Energy              =    -556.1492671495722107 [Eh]

	 ================> DF-SCS-MP2 Energies <==================
	-----------------------------------------------------------
	 SCS Same-Spin Scale       =       0.3333333333333333 [-]
	 SCS Opposite-Spin Scale   =       1.2000000000000000 [-]
	 SCS Same-Spin Energy      =      -0.2013661613435782 [Eh]
	 SCS Opposite-Spin Energy  =      -2.2832629280408261 [Eh]
	 SCS Correlation Energy    =      -2.4846290893844043 [Eh]
	 SCS Total Energy          =    -556.1270786482251651 [Eh]
	-----------------------------------------------------------

  Dipole Moment: [D]
     X:     1.7145      Y:    -2.5546      Z:     2.2062     Total:     3.7859

*** Psi4 exiting successfully. Buy a developer a beer!
