                               Psi4 1.4a3.dev225

  ==> Input File <==

--------------------------------------------------------------------------
#psi4
#
memory 32 gb

molecule  {
0 1
  O        0.3130990     2.3704440    -1.0483590
  N        1.7883250     1.2487180     0.2800910
  C        1.5287440    -1.3320340    -0.8115580
  C        2.5082430    -1.1273300     0.3546920
  C        0.0936770    -1.0844130    -0.4156830
  C       -0.3593510     0.2288580    -0.1728470
  C        2.1500350     0.1348000     1.1432270
  C       -1.6973100     0.4876920     0.1815770
  C        0.5874820     1.3794060    -0.3635620
  C       -0.8057180    -2.1460500    -0.2745700
  C       -2.5635920    -0.6025190     0.3218070
  C       -1.9394896    -1.9424936     0.0390283
  C       -2.2005820     1.8899870     0.4130340
  H        1.6305660    -2.3487650    -1.2074160
  H        1.8022820    -0.6509930    -1.6251500
  H        2.4785080    -1.9866810     1.0363320
  H        3.5296620    -1.0584230    -0.0385230
  H        1.3070990    -0.0748920     1.8087120
  H        2.9845300     0.4555350     1.7739000
  H        2.4430930     2.0063180     0.1171350
  H       -0.4670580    -3.1628320    -0.4675050
  H       -3.5988730    -0.4222000     0.6058720
  H       -2.8229980    -2.7393000     0.2003190
  H       -1.5534710     2.4410460     1.1016880
  H       -2.2209110     2.4548110    -0.5213210
  H       -3.2087000     1.8617690     0.8360960
units angstrom
no_reorient  #important for SAPT in psi4, default
symmetry c1  #important for SAPT in psi4, default
}

set PROPERTIES_ORIGIN ["COM"]
properties('MP2/aug-cc-pvtz', properties = ['dipole'])
--------------------------------------------------------------------------

    Molecular point group: c1
  Charge       = 0
  Multiplicity = 1
  Basis Set: AUG-CC-PVTZ
    Blend: AUG-CC-PVTZ
  Basis Set: (AUG-CC-PVTZ AUX)
    Blend: AUG-CC-PVTZ-JKFIT

    Orbital Energies [Eh]
    ---------------------

    Doubly Occupied:

       1A    -20.512850     2A    -15.583689     3A    -11.350728
       4A    -11.275616     5A    -11.258320     6A    -11.249610
       7A    -11.241992     8A    -11.239983     9A    -11.239150
      10A    -11.238329    11A    -11.236988    12A    -11.213902
      13A    -11.211337    14A     -1.367884    15A     -1.235992
      16A     -1.178662    17A     -1.083194    18A     -1.071073
      19A     -1.022740    20A     -0.943572    21A     -0.930104
      22A     -0.881543    23A     -0.820726    24A     -0.789497
      25A     -0.763627    26A     -0.697920    27A     -0.684138
      28A     -0.663073    29A     -0.655013    30A     -0.624465
      31A     -0.618387    32A     -0.585393    33A     -0.579065
      34A     -0.574989    35A     -0.564656    36A     -0.552555
      37A     -0.538619    38A     -0.533508    39A     -0.516861
      40A     -0.495207    41A     -0.491557    42A     -0.481326
      43A     -0.457445    44A     -0.414894    45A     -0.386618
      46A     -0.360156    47A     -0.316732

  @DF-RHF Final Energy:  -553.58018935409416

   => Energetics <=

    Nuclear Repulsion Energy =            798.7130393351420707
    One-Electron Energy =               -2337.1190897700039386
    Two-Electron Energy =                 984.8258610807675950
    Total Energy =                       -553.5801893540941592
  Basis Set: (AUG-CC-PVTZ AUX)
    Blend: AUG-CC-PVTZ-RI
    Molecular point group: c1

    Geometry (in Angstrom), charge = 0, multiplicity = 1:

       Center              X                  Y                   Z               Mass
    ------------   -----------------  -----------------  -----------------  -----------------
         O            0.313113530891     2.354556246461    -1.024280905907    15.994914619570
         N            1.788339530891     1.232830246461     0.304169094093    14.003074004430
         C            1.528758530891    -1.347921753539    -0.787479905907    12.000000000000
         C            2.508257530891    -1.143217753539     0.378770094093    12.000000000000
         C            0.093691530891    -1.100300753539    -0.391604905907    12.000000000000
         C           -0.359336469109     0.212970246461    -0.148768905907    12.000000000000
         C            2.150049530891     0.118912246461     1.167305094093    12.000000000000
         C           -1.697295469109     0.471804246461     0.205655094093    12.000000000000
         C            0.587496530891     1.363518246461    -0.339483905907    12.000000000000
         C           -0.805703469109    -2.161937753539    -0.250491905907    12.000000000000
         C           -2.563577469109    -0.618406753539     0.345885094093    12.000000000000
         C           -1.939475069109    -1.958381353539     0.063106394093    12.000000000000
         C           -2.200567469109     1.874099246461     0.437112094093    12.000000000000
         H            1.630580530891    -2.364652753539    -1.183337905907     1.007825032230
         H            1.802296530891    -0.666880753539    -1.601071905907     1.007825032230
         H            2.478522530891    -2.002568753539     1.060410094093     1.007825032230
         H            3.529676530891    -1.074310753539    -0.014444905907     1.007825032230
         H            1.307113530891    -0.090779753539     1.832790094093     1.007825032230
         H            2.984544530891     0.439647246461     1.797978094093     1.007825032230
         H            2.443107530891     1.990430246461     0.141213094093     1.007825032230
         H           -0.467043469109    -3.178719753539    -0.443426905907     1.007825032230
         H           -3.598858469109    -0.438087753539     0.629950094093     1.007825032230
         H           -2.822983469109    -2.755187753539     0.224397094093     1.007825032230
         H           -1.553456469109     2.425158246461     1.125766094093     1.007825032230
         H           -2.220896469109     2.438923246461    -0.497242905907     1.007825032230
         H           -3.208685469109     1.845881246461     0.860174094093     1.007825032230

  Basis Set: AUG-CC-PVTZ
    Blend: AUG-CC-PVTZ
  Basis Set: (AUG-CC-PVTZ AUX)
    Blend: AUG-CC-PVTZ-JKFIT
	 Reference Energy          =    -553.5801893540941592 [Eh]
	 Singles Energy            =      -0.0000000000000000 [Eh]
	 Same-Spin Energy          =      -0.6037290631202714 [Eh]
	 Opposite-Spin Energy      =      -1.9045228856228584 [Eh]
	 Correlation Energy        =      -2.5082519487431298 [Eh]
	 Total Energy              =    -556.0884413028372819 [Eh]

	 ================> DF-SCS-MP2 Energies <==================
	-----------------------------------------------------------
	 SCS Same-Spin Scale       =       0.3333333333333333 [-]
	 SCS Opposite-Spin Scale   =       1.2000000000000000 [-]
	 SCS Same-Spin Energy      =      -0.2012430210400905 [Eh]
	 SCS Opposite-Spin Energy  =      -2.2854274627474300 [Eh]
	 SCS Correlation Energy    =      -2.4866704837875204 [Eh]
	 SCS Total Energy          =    -556.0668598378816796 [Eh]
	-----------------------------------------------------------

  Dipole Moment: [D]
     X:     1.7857      Y:    -2.4848      Z:     2.1951     Total:     3.7658

*** Psi4 exiting successfully. Buy a developer a beer!
