                               Psi4 1.4a3.dev225

  ==> Input File <==

--------------------------------------------------------------------------
#psi4
#
memory 32 gb

molecule  {
0 1
  O        0.3130990     2.3704440    -1.0483590
  N        1.7883250     1.2487180     0.2800910
  C        1.5062527    -1.4348909    -0.8147388
  C        2.5082430    -1.1273300     0.3546920
  C        0.0936770    -1.0844130    -0.4156830
  C       -0.3593510     0.2288580    -0.1728470
  C        2.1500350     0.1348000     1.1432270
  C       -1.6973100     0.4876920     0.1815770
  C        0.5874820     1.3794060    -0.3635620
  C       -0.8057180    -2.1460500    -0.2745700
  C       -2.5635920    -0.6025190     0.3218070
  C       -2.1294290    -1.9083920     0.0915650
  C       -2.2005820     1.8899870     0.4130340
  H        1.6305660    -2.3487650    -1.2074160
  H        1.8022820    -0.6509930    -1.6251500
  H        2.4785080    -1.9866810     1.0363320
  H        3.5296620    -1.0584230    -0.0385230
  H        1.3070990    -0.0748920     1.8087120
  H        2.9845300     0.4555350     1.7739000
  H        2.4430930     2.0063180     0.1171350
  H       -0.4670580    -3.1628320    -0.4675050
  H       -3.5988730    -0.4222000     0.6058720
  H       -2.8229980    -2.7393000     0.2003190
  H       -1.5534710     2.4410460     1.1016880
  H       -2.2209110     2.4548110    -0.5213210
  H       -3.2087000     1.8617690     0.8360960
units angstrom
no_reorient  #important for SAPT in psi4, default
symmetry c1  #important for SAPT in psi4, default
}

set PROPERTIES_ORIGIN ["COM"]
properties('MP2/aug-cc-pvtz', properties = ['dipole'])
--------------------------------------------------------------------------

    Molecular point group: c1
  Charge       = 0
  Multiplicity = 1
  Basis Set: AUG-CC-PVTZ
    Blend: AUG-CC-PVTZ
  Basis Set: (AUG-CC-PVTZ AUX)
    Blend: AUG-CC-PVTZ-JKFIT

    Orbital Energies [Eh]
    ---------------------

    Doubly Occupied:

       1A    -20.512387     2A    -15.583010     3A    -11.350159
       4A    -11.276508     5A    -11.255429     6A    -11.254289
       7A    -11.243898     8A    -11.243360     9A    -11.239416
      10A    -11.238754    11A    -11.233623    12A    -11.232246
      13A    -11.216240    14A     -1.367260    15A     -1.234578
      16A     -1.163851    17A     -1.082986    18A     -1.043907
      19A     -1.027523    20A     -0.946894    21A     -0.932454
      22A     -0.873912    23A     -0.827878    24A     -0.788596
      25A     -0.771544    26A     -0.693203    27A     -0.684355
      28A     -0.660309    29A     -0.655091    30A     -0.626154
      31A     -0.613656    32A     -0.589720    33A     -0.581654
      34A     -0.574681    35A     -0.565508    36A     -0.557952
      37A     -0.531673    38A     -0.526104    39A     -0.512797
      40A     -0.506294    41A     -0.496233    42A     -0.472351
      43A     -0.469132    44A     -0.416834    45A     -0.385900
      46A     -0.335982    47A     -0.326166

  @DF-RHF Final Energy:  -553.63061743208777

   => Energetics <=

    Nuclear Repulsion Energy =            794.9320947766864265
    One-Electron Energy =               -2329.6805269676729040
    Two-Electron Energy =                 981.1178147588987031
    Total Energy =                       -553.6306174320877744
  Basis Set: (AUG-CC-PVTZ AUX)
    Blend: AUG-CC-PVTZ-RI
    Molecular point group: c1

    Geometry (in Angstrom), charge = 0, multiplicity = 1:

       Center              X                  Y                   Z               Mass
    ------------   -----------------  -----------------  -----------------  -----------------
         O            0.327671912177     2.359268210753    -1.027663383162    15.994914619570
         N            1.802897912177     1.237542210753     0.300786616838    14.003074004430
         C            1.520825612177    -1.446066689247    -0.794043183162    12.000000000000
         C            2.522815912177    -1.138505789247     0.375387616838    12.000000000000
         C            0.108249912177    -1.095588789247    -0.394987383162    12.000000000000
         C           -0.344778087823     0.217682210753    -0.152151383162    12.000000000000
         C            2.164607912177     0.123624210753     1.163922616838    12.000000000000
         C           -1.682737087823     0.476516210753     0.202272616838    12.000000000000
         C            0.602054912177     1.368230210753    -0.342866383162    12.000000000000
         C           -0.791145087823    -2.157225789247    -0.253874383162    12.000000000000
         C           -2.549019087823    -0.613694789247     0.342502616838    12.000000000000
         C           -2.114856087823    -1.919567789247     0.112260616838    12.000000000000
         C           -2.186009087823     1.878811210753     0.433729616838    12.000000000000
         H            1.645138912177    -2.359940789247    -1.186720383162     1.007825032230
         H            1.816854912177    -0.662168789247    -1.604454383162     1.007825032230
         H            2.493080912177    -1.997856789247     1.057027616838     1.007825032230
         H            3.544234912177    -1.069598789247    -0.017827383162     1.007825032230
         H            1.321671912177    -0.086067789247     1.829407616838     1.007825032230
         H            2.999102912177     0.444359210753     1.794595616838     1.007825032230
         H            2.457665912177     1.995142210753     0.137830616838     1.007825032230
         H           -0.452485087823    -3.174007789247    -0.446809383162     1.007825032230
         H           -3.584300087823    -0.433375789247     0.626567616838     1.007825032230
         H           -2.808425087823    -2.750475789247     0.221014616838     1.007825032230
         H           -1.538898087823     2.429870210753     1.122383616838     1.007825032230
         H           -2.206338087823     2.443635210753    -0.500625383162     1.007825032230
         H           -3.194127087823     1.850593210753     0.856791616838     1.007825032230

  Basis Set: AUG-CC-PVTZ
    Blend: AUG-CC-PVTZ
  Basis Set: (AUG-CC-PVTZ AUX)
    Blend: AUG-CC-PVTZ-JKFIT
	 Reference Energy          =    -553.6306174320877744 [Eh]
	 Singles Energy            =      -0.0000000000000000 [Eh]
	 Same-Spin Energy          =      -0.6040747671620109 [Eh]
	 Opposite-Spin Energy      =      -1.9033296207682222 [Eh]
	 Correlation Energy        =      -2.5074043879302330 [Eh]
	 Total Energy              =    -556.1380218200180252 [Eh]

	 ================> DF-SCS-MP2 Energies <==================
	-----------------------------------------------------------
	 SCS Same-Spin Scale       =       0.3333333333333333 [-]
	 SCS Opposite-Spin Scale   =       1.2000000000000000 [-]
	 SCS Same-Spin Energy      =      -0.2013582557206703 [Eh]
	 SCS Opposite-Spin Energy  =      -2.2839955449218667 [Eh]
	 SCS Correlation Energy    =      -2.4853538006425371 [Eh]
	 SCS Total Energy          =    -556.1159712327303168 [Eh]
	-----------------------------------------------------------

  Dipole Moment: [D]
     X:     1.7327      Y:    -2.5747      Z:     2.2198     Total:     3.8157

*** Psi4 exiting successfully. Buy a developer a beer!
