                               Psi4 1.4a3.dev225

  ==> Input File <==

--------------------------------------------------------------------------
#psi4
#
memory 32 gb

molecule  {
0 1
  O        0.3130990     2.3704440    -1.0483590
  N        1.7883250     1.2487180     0.2800910
  C        1.5287440    -1.3320340    -0.8115580
  C        2.5082430    -1.1273300     0.3546920
  C        0.0461306    -1.0762089    -0.4025669
  C       -0.3593510     0.2288580    -0.1728470
  C        2.1500350     0.1348000     1.1432270
  C       -1.6973100     0.4876920     0.1815770
  C        0.5874820     1.3794060    -0.3635620
  C       -0.8057180    -2.1460500    -0.2745700
  C       -2.5635920    -0.6025190     0.3218070
  C       -2.1294290    -1.9083920     0.0915650
  C       -2.2005820     1.8899870     0.4130340
  H        1.6305660    -2.3487650    -1.2074160
  H        1.8022820    -0.6509930    -1.6251500
  H        2.4785080    -1.9866810     1.0363320
  H        3.5296620    -1.0584230    -0.0385230
  H        1.3070990    -0.0748920     1.8087120
  H        2.9845300     0.4555350     1.7739000
  H        2.4430930     2.0063180     0.1171350
  H       -0.4670580    -3.1628320    -0.4675050
  H       -3.5988730    -0.4222000     0.6058720
  H       -2.8229980    -2.7393000     0.2003190
  H       -1.5534710     2.4410460     1.1016880
  H       -2.2209110     2.4548110    -0.5213210
  H       -3.2087000     1.8617690     0.8360960
units angstrom
no_reorient  #important for SAPT in psi4, default
symmetry c1  #important for SAPT in psi4, default
}

set PROPERTIES_ORIGIN ["COM"]
properties('MP2/aug-cc-pvtz', properties = ['dipole'])
--------------------------------------------------------------------------

    Molecular point group: c1
  Charge       = 0
  Multiplicity = 1
  Basis Set: AUG-CC-PVTZ
    Blend: AUG-CC-PVTZ
  Basis Set: (AUG-CC-PVTZ AUX)
    Blend: AUG-CC-PVTZ-JKFIT

    Orbital Energies [Eh]
    ---------------------

    Doubly Occupied:

       1A    -20.513506     2A    -15.583206     3A    -11.351631
       4A    -11.274595     5A    -11.253596     6A    -11.250850
       7A    -11.244518     8A    -11.239613     9A    -11.239108
      10A    -11.236392    11A    -11.232474    12A    -11.232149
      13A    -11.215814    14A     -1.368261    15A     -1.235321
      16A     -1.167475    17A     -1.079627    18A     -1.046560
      19A     -1.029640    20A     -0.942342    21A     -0.933737
      22A     -0.872856    23A     -0.828240    24A     -0.784972
      25A     -0.773323    26A     -0.694539    27A     -0.681996
      28A     -0.660759    29A     -0.658595    30A     -0.619311
      31A     -0.614261    32A     -0.591401    33A     -0.583137
      34A     -0.570949    35A     -0.566337    36A     -0.551410
      37A     -0.531931    38A     -0.529838    39A     -0.513253
      40A     -0.505312    41A     -0.490314    42A     -0.482047
      43A     -0.464647    44A     -0.419152    45A     -0.386010
      46A     -0.338815    47A     -0.329924

  @DF-RHF Final Energy:  -553.64178456998411

   => Energetics <=

    Nuclear Repulsion Energy =            796.2339931559561137
    One-Electron Energy =               -2332.3240701733479909
    Two-Electron Energy =                 982.4482924474077663
    Total Energy =                       -553.6417845699841109
  Basis Set: (AUG-CC-PVTZ AUX)
    Blend: AUG-CC-PVTZ-RI
    Molecular point group: c1

    Geometry (in Angstrom), charge = 0, multiplicity = 1:

       Center              X                  Y                   Z               Mass
    ------------   -----------------  -----------------  -----------------  -----------------
         O            0.329388997791     2.351656936187    -1.028780248492    15.994914619570
         N            1.804614997791     1.229930936187     0.299669751508    14.003074004430
         C            1.545033997791    -1.350821063813    -0.791979248492    12.000000000000
         C            2.524532997791    -1.146117063813     0.374270751508    12.000000000000
         C            0.062420597791    -1.094995963813    -0.382988148492    12.000000000000
         C           -0.343061002209     0.210070936187    -0.153268248492    12.000000000000
         C            2.166324997791     0.116012936187     1.162805751508    12.000000000000
         C           -1.681020002209     0.468904936187     0.201155751508    12.000000000000
         C            0.603771997791     1.360618936187    -0.343983248492    12.000000000000
         C           -0.789428002209    -2.164837063813    -0.254991248492    12.000000000000
         C           -2.547302002209    -0.621306063813     0.341385751508    12.000000000000
         C           -2.113139002209    -1.927179063813     0.111143751508    12.000000000000
         C           -2.184292002209     1.871199936187     0.432612751508    12.000000000000
         H            1.646855997791    -2.367552063813    -1.187837248492     1.007825032230
         H            1.818571997791    -0.669780063813    -1.605571248492     1.007825032230
         H            2.494797997791    -2.005468063813     1.055910751508     1.007825032230
         H            3.545951997791    -1.077210063813    -0.018944248492     1.007825032230
         H            1.323388997791    -0.093679063813     1.828290751508     1.007825032230
         H            3.000819997791     0.436747936187     1.793478751508     1.007825032230
         H            2.459382997791     1.987530936187     0.136713751508     1.007825032230
         H           -0.450768002209    -3.181619063813    -0.447926248492     1.007825032230
         H           -3.582583002209    -0.440987063813     0.625450751508     1.007825032230
         H           -2.806708002209    -2.758087063813     0.219897751508     1.007825032230
         H           -1.537181002209     2.422258936187     1.121266751508     1.007825032230
         H           -2.204621002209     2.436023936187    -0.501742248492     1.007825032230
         H           -3.192410002209     1.842981936187     0.855674751508     1.007825032230

  Basis Set: AUG-CC-PVTZ
    Blend: AUG-CC-PVTZ
  Basis Set: (AUG-CC-PVTZ AUX)
    Blend: AUG-CC-PVTZ-JKFIT
	 Reference Energy          =    -553.6417845699841109 [Eh]
	 Singles Energy            =      -0.0000000000000000 [Eh]
	 Same-Spin Energy          =      -0.6036954030636683 [Eh]
	 Opposite-Spin Energy      =      -1.9024546807642146 [Eh]
	 Correlation Energy        =      -2.5061500838278832 [Eh]
	 Total Energy              =    -556.1479346538119444 [Eh]

	 ================> DF-SCS-MP2 Energies <==================
	-----------------------------------------------------------
	 SCS Same-Spin Scale       =       0.3333333333333333 [-]
	 SCS Opposite-Spin Scale   =       1.2000000000000000 [-]
	 SCS Same-Spin Energy      =      -0.2012318010212228 [Eh]
	 SCS Opposite-Spin Energy  =      -2.2829456169170577 [Eh]
	 SCS Correlation Energy    =      -2.4841774179382803 [Eh]
	 SCS Total Energy          =    -556.1259619879224374 [Eh]
	-----------------------------------------------------------

  Dipole Moment: [D]
     X:     1.6928      Y:    -2.5306      Z:     2.2090     Total:     3.7615

*** Psi4 exiting successfully. Buy a developer a beer!
