                               Psi4 1.4a3.dev225

  ==> Input File <==

--------------------------------------------------------------------------
#psi4
#
memory 32 gb

molecule  {
0 1
  O        0.3130990     2.3704440    -1.0483590
  N        1.7883250     1.2487180     0.2800910
  C        1.5597481    -1.2365869    -0.8494182
  C        2.5082430    -1.1273300     0.3546920
  C        0.0936770    -1.0844130    -0.4156830
  C       -0.3593510     0.2288580    -0.1728470
  C        2.1500350     0.1348000     1.1432270
  C       -1.6973100     0.4876920     0.1815770
  C        0.5874820     1.3794060    -0.3635620
  C       -0.8057180    -2.1460500    -0.2745700
  C       -2.5635920    -0.6025190     0.3218070
  C       -2.1294290    -1.9083920     0.0915650
  C       -2.2005820     1.8899870     0.4130340
  H        1.6305660    -2.3487650    -1.2074160
  H        1.8022820    -0.6509930    -1.6251500
  H        2.4785080    -1.9866810     1.0363320
  H        3.5296620    -1.0584230    -0.0385230
  H        1.3070990    -0.0748920     1.8087120
  H        2.9845300     0.4555350     1.7739000
  H        2.4430930     2.0063180     0.1171350
  H       -0.4670580    -3.1628320    -0.4675050
  H       -3.5988730    -0.4222000     0.6058720
  H       -2.8229980    -2.7393000     0.2003190
  H       -1.5534710     2.4410460     1.1016880
  H       -2.2209110     2.4548110    -0.5213210
  H       -3.2087000     1.8617690     0.8360960
units angstrom
no_reorient  #important for SAPT in psi4, default
symmetry c1  #important for SAPT in psi4, default
}

set PROPERTIES_ORIGIN ["COM"]
properties('MP2/aug-cc-pvtz', properties = ['dipole'])
--------------------------------------------------------------------------

    Molecular point group: c1
  Charge       = 0
  Multiplicity = 1
  Basis Set: AUG-CC-PVTZ
    Blend: AUG-CC-PVTZ
  Basis Set: (AUG-CC-PVTZ AUX)
    Blend: AUG-CC-PVTZ-JKFIT

    Orbital Energies [Eh]
    ---------------------

    Doubly Occupied:

       1A    -20.513184     2A    -15.583449     3A    -11.350624
       4A    -11.273890     5A    -11.255608     6A    -11.252839
       7A    -11.244927     8A    -11.240842     9A    -11.239002
      10A    -11.238216    11A    -11.236805    12A    -11.232905
      13A    -11.215639    14A     -1.368125    15A     -1.236164
      16A     -1.162884    17A     -1.083224    18A     -1.045189
      19A     -1.028753    20A     -0.941689    21A     -0.934926
      22A     -0.872418    23A     -0.832172    24A     -0.788218
      25A     -0.768568    26A     -0.694584    27A     -0.681431
      28A     -0.666973    29A     -0.657968    30A     -0.618726
      31A     -0.614698    32A     -0.592639    33A     -0.583865
      34A     -0.568433    35A     -0.567709    36A     -0.549383
      37A     -0.539790    38A     -0.529239    39A     -0.516316
      40A     -0.504565    41A     -0.488428    42A     -0.474419
      43A     -0.466678    44A     -0.418138    45A     -0.386519
      46A     -0.336959    47A     -0.328157

  @DF-RHF Final Energy:  -553.62915905656541

   => Energetics <=

    Nuclear Repulsion Energy =            796.2421189507085728
    One-Electron Energy =               -2332.2907992564682900
    Two-Electron Energy =                 982.4195212491943039
    Total Energy =                       -553.6291590565654133
  Basis Set: (AUG-CC-PVTZ AUX)
    Blend: AUG-CC-PVTZ-RI
    Molecular point group: c1

    Geometry (in Angstrom), charge = 0, multiplicity = 1:

       Center              X                  Y                   Z               Mass
    ------------   -----------------  -----------------  -----------------  -----------------
         O            0.324005745138     2.345677965828    -1.025286721371    15.994914619570
         N            1.799231745138     1.223951965828     0.303163278629    14.003074004430
         C            1.570654845138    -1.261352934172    -0.826345921371    12.000000000000
         C            2.519149745138    -1.152096034172     0.377764278629    12.000000000000
         C            0.104583745138    -1.109179034172    -0.392610721371    12.000000000000
         C           -0.348444254862     0.204091965828    -0.149774721371    12.000000000000
         C            2.160941745138     0.110033965828     1.166299278629    12.000000000000
         C           -1.686403254862     0.462925965828     0.204649278629    12.000000000000
         C            0.598388745138     1.354639965828    -0.340489721371    12.000000000000
         C           -0.794811254862    -2.170816034172    -0.251497721371    12.000000000000
         C           -2.552685254862    -0.627285034172     0.344879278629    12.000000000000
         C           -2.118522254862    -1.933158034172     0.114637278629    12.000000000000
         C           -2.189675254862     1.865220965828     0.436106278629    12.000000000000
         H            1.641472745138    -2.373531034172    -1.184343721371     1.007825032230
         H            1.813188745138    -0.675759034172    -1.602077721371     1.007825032230
         H            2.489414745138    -2.011447034172     1.059404278629     1.007825032230
         H            3.540568745138    -1.083189034172    -0.015450721371     1.007825032230
         H            1.318005745138    -0.099658034172     1.831784278629     1.007825032230
         H            2.995436745138     0.430768965828     1.796972278629     1.007825032230
         H            2.453999745138     1.981551965828     0.140207278629     1.007825032230
         H           -0.456151254862    -3.187598034172    -0.444432721371     1.007825032230
         H           -3.587966254862    -0.446966034172     0.628944278629     1.007825032230
         H           -2.812091254862    -2.764066034172     0.223391278629     1.007825032230
         H           -1.542564254862     2.416279965828     1.124760278629     1.007825032230
         H           -2.210004254862     2.430044965828    -0.498248721371     1.007825032230
         H           -3.197793254862     1.837002965828     0.859168278629     1.007825032230

  Basis Set: AUG-CC-PVTZ
    Blend: AUG-CC-PVTZ
  Basis Set: (AUG-CC-PVTZ AUX)
    Blend: AUG-CC-PVTZ-JKFIT
	 Reference Energy          =    -553.6291590565654133 [Eh]
	 Singles Energy            =      -0.0000000000000000 [Eh]
	 Same-Spin Energy          =      -0.6044081215304858 [Eh]
	 Opposite-Spin Energy      =      -1.9038761557903834 [Eh]
	 Correlation Energy        =      -2.5082842773208691 [Eh]
	 Total Energy              =    -556.1374433338862673 [Eh]

	 ================> DF-SCS-MP2 Energies <==================
	-----------------------------------------------------------
	 SCS Same-Spin Scale       =       0.3333333333333333 [-]
	 SCS Opposite-Spin Scale   =       1.2000000000000000 [-]
	 SCS Same-Spin Energy      =      -0.2014693738434953 [Eh]
	 SCS Opposite-Spin Energy  =      -2.2846513869484601 [Eh]
	 SCS Correlation Energy    =      -2.4861207607919553 [Eh]
	 SCS Total Energy          =    -556.1152798173574183 [Eh]
	-----------------------------------------------------------

  Dipole Moment: [D]
     X:     1.7157      Y:    -2.4921      Z:     2.2066     Total:     3.7448

*** Psi4 exiting successfully. Buy a developer a beer!
