                               Psi4 1.4a3.dev225

  ==> Input File <==

--------------------------------------------------------------------------
#psi4
#
memory 32 gb

molecule  {
0 1
  O        0.3130990     2.3704440    -1.0483590
  N        1.7883250     1.2487180     0.2800910
  C        1.5287440    -1.3320340    -0.8115580
  C        2.5082430    -1.1273300     0.3546920
  C        0.0936770    -1.0844130    -0.4156830
  C       -0.3593510     0.2288580    -0.1728470
  C        2.1500350     0.1348000     1.1432270
  C       -1.6973100     0.4876920     0.1815770
  C        0.5874820     1.3794060    -0.3635620
  C       -0.7928560    -2.1308679    -0.2765880
  C       -2.5635920    -0.6025190     0.3218070
  C       -2.1294290    -1.9083920     0.0915650
  C       -2.2005820     1.8899870     0.4130340
  H        1.6305660    -2.3487650    -1.2074160
  H        1.8022820    -0.6509930    -1.6251500
  H        2.4785080    -1.9866810     1.0363320
  H        3.5296620    -1.0584230    -0.0385230
  H        1.3070990    -0.0748920     1.8087120
  H        2.9845300     0.4555350     1.7739000
  H        2.4430930     2.0063180     0.1171350
  H       -0.4670580    -3.1628320    -0.4675050
  H       -3.5988730    -0.4222000     0.6058720
  H       -2.8229980    -2.7393000     0.2003190
  H       -1.5534710     2.4410460     1.1016880
  H       -2.2209110     2.4548110    -0.5213210
  H       -3.2087000     1.8617690     0.8360960
units angstrom
no_reorient  #important for SAPT in psi4, default
symmetry c1  #important for SAPT in psi4, default
}

set PROPERTIES_ORIGIN ["COM"]
properties('MP2/aug-cc-pvtz', properties = ['dipole'])
--------------------------------------------------------------------------

    Molecular point group: c1
  Charge       = 0
  Multiplicity = 1
  Basis Set: AUG-CC-PVTZ
    Blend: AUG-CC-PVTZ
  Basis Set: (AUG-CC-PVTZ AUX)
    Blend: AUG-CC-PVTZ-JKFIT

    Orbital Energies [Eh]
    ---------------------

    Doubly Occupied:

       1A    -20.512609     2A    -15.582936     3A    -11.350201
       4A    -11.274852     5A    -11.253521     6A    -11.251770
       7A    -11.245562     8A    -11.241900     9A    -11.237925
      10A    -11.237165    11A    -11.234971    12A    -11.233049
      13A    -11.215950    14A     -1.367494    15A     -1.235307
      16A     -1.164840    17A     -1.085052    18A     -1.043802
      19A     -1.029229    20A     -0.943204    21A     -0.933840
      22A     -0.873411    23A     -0.830264    24A     -0.785298
      25A     -0.769366    26A     -0.693626    27A     -0.682549
      28A     -0.659927    29A     -0.659124    30A     -0.619749
      31A     -0.615402    32A     -0.590766    33A     -0.583610
      34A     -0.569501    35A     -0.565762    36A     -0.553288
      37A     -0.531690    38A     -0.530145    39A     -0.513546
      40A     -0.506276    41A     -0.489407    42A     -0.479461
      43A     -0.472283    44A     -0.417584    45A     -0.385947
      46A     -0.335632    47A     -0.329175

  @DF-RHF Final Energy:  -553.64278550165000

   => Energetics <=

    Nuclear Repulsion Energy =            796.3176345300327057
    One-Electron Energy =               -2332.4849096298962650
    Two-Electron Energy =                 982.5244895982136768
    Total Energy =                       -553.6427855016499961
  Basis Set: (AUG-CC-PVTZ AUX)
    Blend: AUG-CC-PVTZ-RI
    Molecular point group: c1

    Geometry (in Angstrom), charge = 0, multiplicity = 1:

       Center              X                  Y                   Z               Mass
    ------------   -----------------  -----------------  -----------------  -----------------
         O            0.325249066415     2.351178717245    -1.027743072612    15.994914619570
         N            1.800475066415     1.229452717245     0.300706927388    14.003074004430
         C            1.540894066415    -1.351299282755    -0.790942072612    12.000000000000
         C            2.520393066415    -1.146595282755     0.375307927388    12.000000000000
         C            0.105827066415    -1.103678282755    -0.395067072612    12.000000000000
         C           -0.347200933585     0.209592717245    -0.152231072612    12.000000000000
         C            2.162185066415     0.115534717245     1.163842927388    12.000000000000
         C           -1.685159933585     0.468426717245     0.202192927388    12.000000000000
         C            0.599632066415     1.360140717245    -0.342946072612    12.000000000000
         C           -0.780705933585    -2.150133182755    -0.255972072612    12.000000000000
         C           -2.551441933585    -0.621784282755     0.342422927388    12.000000000000
         C           -2.117278933585    -1.927657282755     0.112180927388    12.000000000000
         C           -2.188431933585     1.870721717245     0.433649927388    12.000000000000
         H            1.642716066415    -2.368030282755    -1.186800072612     1.007825032230
         H            1.814432066415    -0.670258282755    -1.604534072612     1.007825032230
         H            2.490658066415    -2.005946282755     1.056947927388     1.007825032230
         H            3.541812066415    -1.077688282755    -0.017907072612     1.007825032230
         H            1.319249066415    -0.094157282755     1.829327927388     1.007825032230
         H            2.996680066415     0.436269717245     1.794515927388     1.007825032230
         H            2.455243066415     1.987052717245     0.137750927388     1.007825032230
         H           -0.454907933585    -3.182097282755    -0.446889072612     1.007825032230
         H           -3.586722933585    -0.441465282755     0.626487927388     1.007825032230
         H           -2.810847933585    -2.758565282755     0.220934927388     1.007825032230
         H           -1.541320933585     2.421780717245     1.122303927388     1.007825032230
         H           -2.208760933585     2.435545717245    -0.500705072612     1.007825032230
         H           -3.196549933585     1.842503717245     0.856711927388     1.007825032230

  Basis Set: AUG-CC-PVTZ
    Blend: AUG-CC-PVTZ
  Basis Set: (AUG-CC-PVTZ AUX)
    Blend: AUG-CC-PVTZ-JKFIT
	 Reference Energy          =    -553.6427855016499961 [Eh]
	 Singles Energy            =      -0.0000000000000000 [Eh]
	 Same-Spin Energy          =      -0.6041930391338033 [Eh]
	 Opposite-Spin Energy      =      -1.9031140660527590 [Eh]
	 Correlation Energy        =      -2.5073071051865625 [Eh]
	 Total Energy              =    -556.1500926068365516 [Eh]

	 ================> DF-SCS-MP2 Energies <==================
	-----------------------------------------------------------
	 SCS Same-Spin Scale       =       0.3333333333333333 [-]
	 SCS Opposite-Spin Scale   =       1.2000000000000000 [-]
	 SCS Same-Spin Energy      =      -0.2013976797112678 [Eh]
	 SCS Opposite-Spin Energy  =      -2.2837368792633108 [Eh]
	 SCS Correlation Energy    =      -2.4851345589745786 [Eh]
	 SCS Total Energy          =    -556.1279200606245467 [Eh]
	-----------------------------------------------------------

  Dipole Moment: [D]
     X:     1.7174      Y:    -2.5354      Z:     2.2080     Total:     3.7753

*** Psi4 exiting successfully. Buy a developer a beer!
