                               Psi4 1.4a3.dev225

  ==> Input File <==

--------------------------------------------------------------------------
#psi4
#
memory 32 gb

molecule  {
0 1
  O        0.3130990     2.3704440    -1.0483590
  N        1.7883250     1.2487180     0.2800910
  C        1.5287440    -1.3320340    -0.8115580
  C        2.5082430    -1.1273300     0.3546920
  C        0.0936770    -1.0844130    -0.4156830
  C       -0.3593510     0.2288580    -0.1728470
  C        2.1500350     0.1348000     1.1432270
  C       -1.6973100     0.4876920     0.1815770
  C        0.5874820     1.3794060    -0.3635620
  C       -0.8057180    -2.1460500    -0.2745700
  C       -2.5635920    -0.6025190     0.3218070
  C       -2.1294290    -1.9083920     0.0915650
  C       -2.2005820     1.8899870     0.4130340
  H        1.6305660    -2.3487650    -1.2074160
  H        1.8022820    -0.6509930    -1.6251500
  H        2.4730882    -2.1433154     1.1605749
  H        3.5296620    -1.0584230    -0.0385230
  H        1.3070990    -0.0748920     1.8087120
  H        2.9845300     0.4555350     1.7739000
  H        2.4430930     2.0063180     0.1171350
  H       -0.4670580    -3.1628320    -0.4675050
  H       -3.5988730    -0.4222000     0.6058720
  H       -2.8229980    -2.7393000     0.2003190
  H       -1.5534710     2.4410460     1.1016880
  H       -2.2209110     2.4548110    -0.5213210
  H       -3.2087000     1.8617690     0.8360960
units angstrom
no_reorient  #important for SAPT in psi4, default
symmetry c1  #important for SAPT in psi4, default
}

set PROPERTIES_ORIGIN ["COM"]
properties('MP2/aug-cc-pvtz', properties = ['dipole'])
--------------------------------------------------------------------------

    Molecular point group: c1
  Charge       = 0
  Multiplicity = 1
  Basis Set: AUG-CC-PVTZ
    Blend: AUG-CC-PVTZ
  Basis Set: (AUG-CC-PVTZ AUX)
    Blend: AUG-CC-PVTZ-JKFIT

    Orbital Energies [Eh]
    ---------------------

    Doubly Occupied:

       1A    -20.514073     2A    -15.584996     3A    -11.351601
       4A    -11.277045     5A    -11.260616     6A    -11.255017
       7A    -11.253960     8A    -11.244757     9A    -11.242814
      10A    -11.240674    11A    -11.235754    12A    -11.233211
      13A    -11.216376    14A     -1.368933    15A     -1.237024
      16A     -1.164303    17A     -1.083284    18A     -1.044947
      19A     -1.026717    20A     -0.944148    21A     -0.934040
      22A     -0.871905    23A     -0.824584    24A     -0.782986
      25A     -0.770183    26A     -0.694670    27A     -0.681804
      28A     -0.659886    29A     -0.657597    30A     -0.620139
      31A     -0.612397    32A     -0.591689    33A     -0.581799
      34A     -0.570509    35A     -0.566683    36A     -0.554124
      37A     -0.531537    38A     -0.526036    39A     -0.513614
      40A     -0.501035    41A     -0.485526    42A     -0.476034
      43A     -0.469050    44A     -0.418372    45A     -0.387731
      46A     -0.337082    47A     -0.328054

  @DF-RHF Final Energy:  -553.62336823498811

   => Energetics <=

    Nuclear Repulsion Energy =            795.0461246609938826
    One-Electron Energy =               -2329.8803558128006443
    Two-Electron Energy =                 981.2108629168186553
    Total Energy =                       -553.6233682349881065
  Basis Set: (AUG-CC-PVTZ AUX)
    Blend: AUG-CC-PVTZ-RI
    Molecular point group: c1

    Geometry (in Angstrom), charge = 0, multiplicity = 1:

       Center              X                  Y                   Z               Mass
    ------------   -----------------  -----------------  -----------------  -----------------
         O            0.326161724731     2.353120726522    -1.028596478373    15.994914619570
         N            1.801387724731     1.231394726522     0.299853521627    14.003074004430
         C            1.541806724731    -1.349357273478    -0.791795478373    12.000000000000
         C            2.521305724731    -1.144653273478     0.374454521627    12.000000000000
         C            0.106739724731    -1.101736273478    -0.395920478373    12.000000000000
         C           -0.346288275269     0.211534726522    -0.153084478373    12.000000000000
         C            2.163097724731     0.117476726522     1.162989521627    12.000000000000
         C           -1.684247275269     0.470368726522     0.201339521627    12.000000000000
         C            0.600544724731     1.362082726522    -0.343799478373    12.000000000000
         C           -0.792655275269    -2.163373273478    -0.254807478373    12.000000000000
         C           -2.550529275269    -0.619842273478     0.341569521627    12.000000000000
         C           -2.116366275269    -1.925715273478     0.111327521627    12.000000000000
         C           -2.187519275269     1.872663726522     0.432796521627    12.000000000000
         H            1.643628724731    -2.366088273478    -1.187653478373     1.007825032230
         H            1.815344724731    -0.668316273478    -1.605387478373     1.007825032230
         H            2.486150924731    -2.160638673478     1.180337421627     1.007825032230
         H            3.542724724731    -1.075746273478    -0.018760478373     1.007825032230
         H            1.320161724731    -0.092215273478     1.828474521627     1.007825032230
         H            2.997592724731     0.438211726522     1.793662521627     1.007825032230
         H            2.456155724731     1.988994726522     0.136897521627     1.007825032230
         H           -0.453995275269    -3.180155273478    -0.447742478373     1.007825032230
         H           -3.585810275269    -0.439523273478     0.625634521627     1.007825032230
         H           -2.809935275269    -2.756623273478     0.220081521627     1.007825032230
         H           -1.540408275269     2.423722726522     1.121450521627     1.007825032230
         H           -2.207848275269     2.437487726522    -0.501558478373     1.007825032230
         H           -3.195637275269     1.844445726522     0.855858521627     1.007825032230

  Basis Set: AUG-CC-PVTZ
    Blend: AUG-CC-PVTZ
  Basis Set: (AUG-CC-PVTZ AUX)
    Blend: AUG-CC-PVTZ-JKFIT
	 Reference Energy          =    -553.6233682349881065 [Eh]
	 Singles Energy            =      -0.0000000000000000 [Eh]
	 Same-Spin Energy          =      -0.6042726052081999 [Eh]
	 Opposite-Spin Energy      =      -1.9047616224573354 [Eh]
	 Correlation Energy        =      -2.5090342276655351 [Eh]
	 Total Energy              =    -556.1324024626536584 [Eh]

	 ================> DF-SCS-MP2 Energies <==================
	-----------------------------------------------------------
	 SCS Same-Spin Scale       =       0.3333333333333333 [-]
	 SCS Opposite-Spin Scale   =       1.2000000000000000 [-]
	 SCS Same-Spin Energy      =      -0.2014242017360666 [Eh]
	 SCS Opposite-Spin Energy  =      -2.2857139469488024 [Eh]
	 SCS Correlation Energy    =      -2.4871381486848692 [Eh]
	 SCS Total Energy          =    -556.1105063836729414 [Eh]
	-----------------------------------------------------------

  Dipole Moment: [D]
     X:     1.6561      Y:    -2.4116      Z:     2.0958     Total:     3.5987

*** Psi4 exiting successfully. Buy a developer a beer!
