                               Psi4 1.4a3.dev225

  ==> Input File <==

--------------------------------------------------------------------------
#psi4
#
memory 32 gb

molecule  {
0 1
  O        0.3130990     2.3704440    -1.0483590
  N        1.7883250     1.2487180     0.2800910
  C        1.5287440    -1.3320340    -0.8115580
  C        2.5082430    -1.1273300     0.3546920
  C        0.0936770    -1.0844130    -0.4156830
  C       -0.3593510     0.2288580    -0.1728470
  C        2.1500350     0.1348000     1.1432270
  C       -1.6973100     0.4876920     0.1815770
  C        0.5874820     1.3794060    -0.3635620
  C       -0.8057180    -2.1460500    -0.2745700
  C       -2.5635920    -0.6025190     0.3218070
  C       -2.0819442    -1.9169174     0.0784308
  C       -2.2005820     1.8899870     0.4130340
  H        1.6305660    -2.3487650    -1.2074160
  H        1.8022820    -0.6509930    -1.6251500
  H        2.4785080    -1.9866810     1.0363320
  H        3.5296620    -1.0584230    -0.0385230
  H        1.3070990    -0.0748920     1.8087120
  H        2.9845300     0.4555350     1.7739000
  H        2.4430930     2.0063180     0.1171350
  H       -0.4670580    -3.1628320    -0.4675050
  H       -3.5988730    -0.4222000     0.6058720
  H       -2.8229980    -2.7393000     0.2003190
  H       -1.5534710     2.4410460     1.1016880
  H       -2.2209110     2.4548110    -0.5213210
  H       -3.2087000     1.8617690     0.8360960
units angstrom
no_reorient  #important for SAPT in psi4, default
symmetry c1  #important for SAPT in psi4, default
}

set PROPERTIES_ORIGIN ["COM"]
properties('MP2/aug-cc-pvtz', properties = ['dipole'])
--------------------------------------------------------------------------

    Molecular point group: c1
  Charge       = 0
  Multiplicity = 1
  Basis Set: AUG-CC-PVTZ
    Blend: AUG-CC-PVTZ
  Basis Set: (AUG-CC-PVTZ AUX)
    Blend: AUG-CC-PVTZ-JKFIT

    Orbital Energies [Eh]
    ---------------------

    Doubly Occupied:

       1A    -20.512673     2A    -15.583163     3A    -11.350349
       4A    -11.275041     5A    -11.255221     6A    -11.252451
       7A    -11.243289     8A    -11.241826     9A    -11.238656
      10A    -11.237809    11A    -11.234112    12A    -11.230237
      13A    -11.215384    14A     -1.367604    15A     -1.235451
      16A     -1.166068    17A     -1.084152    18A     -1.049938
      19A     -1.027004    20A     -0.943215    21A     -0.932981
      22A     -0.875350    23A     -0.828010    24A     -0.785832
      25A     -0.768733    26A     -0.695017    27A     -0.683291
      28A     -0.660641    29A     -0.656404    30A     -0.620522
      31A     -0.616181    32A     -0.587235    33A     -0.583305
      34A     -0.571742    35A     -0.567011    36A     -0.553194
      37A     -0.533183    38A     -0.531797    39A     -0.514318
      40A     -0.500233    41A     -0.486296    42A     -0.481313
      43A     -0.476122    44A     -0.417152    45A     -0.386105
      46A     -0.339435    47A     -0.326516

  @DF-RHF Final Energy:  -553.64015608450484

   => Energetics <=

    Nuclear Repulsion Energy =            796.5934797323312750
    One-Electron Energy =               -2333.0241541405198404
    Two-Electron Energy =                 982.7905183236838411
    Total Energy =                       -553.6401560845048380
  Basis Set: (AUG-CC-PVTZ AUX)
    Blend: AUG-CC-PVTZ-RI
    Molecular point group: c1

    Geometry (in Angstrom), charge = 0, multiplicity = 1:

       Center              X                  Y                   Z               Mass
    ------------   -----------------  -----------------  -----------------  -----------------
         O            0.322876283557     2.352803448624    -1.026981252979    15.994914619570
         N            1.798102283557     1.231077448624     0.301468747021    14.003074004430
         C            1.538521283557    -1.349674551376    -0.790180252979    12.000000000000
         C            2.518020283557    -1.144970551376     0.376069747021    12.000000000000
         C            0.103454283557    -1.102053551376    -0.394305252979    12.000000000000
         C           -0.349573716443     0.211217448624    -0.151469252979    12.000000000000
         C            2.159812283557     0.117159448624     1.164604747021    12.000000000000
         C           -1.687532716443     0.470051448624     0.202954747021    12.000000000000
         C            0.597259283557     1.361765448624    -0.342184252979    12.000000000000
         C           -0.795940716443    -2.163690551376    -0.253192252979    12.000000000000
         C           -2.553814716443    -0.620159551376     0.343184747021    12.000000000000
         C           -2.072166916443    -1.934557951376     0.099808547021    12.000000000000
         C           -2.190804716443     1.872346448624     0.434411747021    12.000000000000
         H            1.640343283557    -2.366405551376    -1.186038252979     1.007825032230
         H            1.812059283557    -0.668633551376    -1.603772252979     1.007825032230
         H            2.488285283557    -2.004321551376     1.057709747021     1.007825032230
         H            3.539439283557    -1.076063551376    -0.017145252979     1.007825032230
         H            1.316876283557    -0.092532551376     1.830089747021     1.007825032230
         H            2.994307283557     0.437894448624     1.795277747021     1.007825032230
         H            2.452870283557     1.988677448624     0.138512747021     1.007825032230
         H           -0.457280716443    -3.180472551376    -0.446127252979     1.007825032230
         H           -3.589095716443    -0.439840551376     0.627249747021     1.007825032230
         H           -2.813220716443    -2.756940551376     0.221696747021     1.007825032230
         H           -1.543693716443     2.423405448624     1.123065747021     1.007825032230
         H           -2.211133716443     2.437170448624    -0.499943252979     1.007825032230
         H           -3.198922716443     1.844128448624     0.857473747021     1.007825032230

  Basis Set: AUG-CC-PVTZ
    Blend: AUG-CC-PVTZ
  Basis Set: (AUG-CC-PVTZ AUX)
    Blend: AUG-CC-PVTZ-JKFIT
	 Reference Energy          =    -553.6401560845048380 [Eh]
	 Singles Energy            =      -0.0000000000000000 [Eh]
	 Same-Spin Energy          =      -0.6041522740237452 [Eh]
	 Opposite-Spin Energy      =      -1.9030427721976066 [Eh]
	 Correlation Energy        =      -2.5071950462213519 [Eh]
	 Total Energy              =    -556.1473511307261788 [Eh]

	 ================> DF-SCS-MP2 Energies <==================
	-----------------------------------------------------------
	 SCS Same-Spin Scale       =       0.3333333333333333 [-]
	 SCS Opposite-Spin Scale   =       1.2000000000000000 [-]
	 SCS Same-Spin Energy      =      -0.2013840913412484 [Eh]
	 SCS Opposite-Spin Energy  =      -2.2836513266371279 [Eh]
	 SCS Correlation Energy    =      -2.4850354179783762 [Eh]
	 SCS Total Energy          =    -556.1251915024831760 [Eh]
	-----------------------------------------------------------

  Dipole Moment: [D]
     X:     1.7322      Y:    -2.5296      Z:     2.2044     Total:     3.7761

*** Psi4 exiting successfully. Buy a developer a beer!
