                               Psi4 1.4a3.dev225

  ==> Input File <==

--------------------------------------------------------------------------
#psi4
#
memory 32 gb

molecule  {
0 1
  O        0.3130990     2.3704440    -1.0483590
  N        1.7883250     1.2487180     0.2800910
  C        1.4912263    -1.4731907    -0.7441795
  C        2.5082430    -1.1273300     0.3546920
  C        0.0936770    -1.0844130    -0.4156830
  C       -0.3593510     0.2288580    -0.1728470
  C        2.1500350     0.1348000     1.1432270
  C       -1.6973100     0.4876920     0.1815770
  C        0.5874820     1.3794060    -0.3635620
  C       -0.8057180    -2.1460500    -0.2745700
  C       -2.5635920    -0.6025190     0.3218070
  C       -2.1294290    -1.9083920     0.0915650
  C       -2.2005820     1.8899870     0.4130340
  H        1.6305660    -2.3487650    -1.2074160
  H        1.8022820    -0.6509930    -1.6251500
  H        2.4785080    -1.9866810     1.0363320
  H        3.5296620    -1.0584230    -0.0385230
  H        1.3070990    -0.0748920     1.8087120
  H        2.9845300     0.4555350     1.7739000
  H        2.4430930     2.0063180     0.1171350
  H       -0.4670580    -3.1628320    -0.4675050
  H       -3.5988730    -0.4222000     0.6058720
  H       -2.8229980    -2.7393000     0.2003190
  H       -1.5534710     2.4410460     1.1016880
  H       -2.2209110     2.4548110    -0.5213210
  H       -3.2087000     1.8617690     0.8360960
units angstrom
no_reorient  #important for SAPT in psi4, default
symmetry c1  #important for SAPT in psi4, default
}

set PROPERTIES_ORIGIN ["COM"]
properties('MP2/aug-cc-pvtz', properties = ['dipole'])
--------------------------------------------------------------------------

    Molecular point group: c1
  Charge       = 0
  Multiplicity = 1
  Basis Set: AUG-CC-PVTZ
    Blend: AUG-CC-PVTZ
  Basis Set: (AUG-CC-PVTZ AUX)
    Blend: AUG-CC-PVTZ-JKFIT

    Orbital Energies [Eh]
    ---------------------

    Doubly Occupied:

       1A    -20.512341     2A    -15.583008     3A    -11.350216
       4A    -11.277292     5A    -11.255722     6A    -11.254877
       7A    -11.244232     8A    -11.244041     9A    -11.243107
      10A    -11.239141    11A    -11.233552    12A    -11.232628
      13A    -11.216574    14A     -1.367171    15A     -1.234913
      16A     -1.165292    17A     -1.087849    18A     -1.044591
      19A     -1.029370    20A     -0.947716    21A     -0.932569
      22A     -0.875764    23A     -0.828450    24A     -0.787652
      25A     -0.772287    26A     -0.693773    27A     -0.684700
      28A     -0.662774    29A     -0.653318    30A     -0.629889
      31A     -0.617592    32A     -0.588853    33A     -0.581978
      34A     -0.575289    35A     -0.564329    36A     -0.558786
      37A     -0.531281    38A     -0.525743    39A     -0.517086
      40A     -0.503481    41A     -0.496484    42A     -0.478943
      43A     -0.453798    44A     -0.416279    45A     -0.385931
      46A     -0.335917    47A     -0.325492

  @DF-RHF Final Energy:  -553.61700111392452

   => Energetics <=

    Nuclear Repulsion Energy =            795.4680041164326667
    One-Electron Energy =               -2330.6858694927641409
    Two-Electron Energy =                 981.6008642624069580
    Total Energy =                       -553.6170011139245162
  Basis Set: (AUG-CC-PVTZ AUX)
    Blend: AUG-CC-PVTZ-RI
    Molecular point group: c1

    Geometry (in Angstrom), charge = 0, multiplicity = 1:

       Center              X                  Y                   Z               Mass
    ------------   -----------------  -----------------  -----------------  -----------------
         O            0.328701707119     2.361892987169    -1.032498979865    15.994914619570
         N            1.803927707119     1.240166987169     0.295951020135    14.003074004430
         C            1.506829007119    -1.481741712831    -0.728319479865    12.000000000000
         C            2.523845707119    -1.135881012831     0.370552020135    12.000000000000
         C            0.109279707119    -1.092964012831    -0.399822979865    12.000000000000
         C           -0.343748292881     0.220306987169    -0.156986979865    12.000000000000
         C            2.165637707119     0.126248987169     1.159087020135    12.000000000000
         C           -1.681707292881     0.479140987169     0.197437020135    12.000000000000
         C            0.603084707119     1.370854987169    -0.347701979865    12.000000000000
         C           -0.790115292881    -2.154601012831    -0.258709979865    12.000000000000
         C           -2.547989292881    -0.611070012831     0.337667020135    12.000000000000
         C           -2.113826292881    -1.916943012831     0.107425020135    12.000000000000
         C           -2.184979292881     1.881435987169     0.428894020135    12.000000000000
         H            1.646168707119    -2.357316012831    -1.191555979865     1.007825032230
         H            1.817884707119    -0.659544012831    -1.609289979865     1.007825032230
         H            2.494110707119    -1.995232012831     1.052192020135     1.007825032230
         H            3.545264707119    -1.066974012831    -0.022662979865     1.007825032230
         H            1.322701707119    -0.083443012831     1.824572020135     1.007825032230
         H            3.000132707119     0.446983987169     1.789760020135     1.007825032230
         H            2.458695707119     1.997766987169     0.132995020135     1.007825032230
         H           -0.451455292881    -3.171383012831    -0.451644979865     1.007825032230
         H           -3.583270292881    -0.430751012831     0.621732020135     1.007825032230
         H           -2.807395292881    -2.747851012831     0.216179020135     1.007825032230
         H           -1.537868292881     2.432494987169     1.117548020135     1.007825032230
         H           -2.205308292881     2.446259987169    -0.505460979865     1.007825032230
         H           -3.193097292881     1.853217987169     0.851956020135     1.007825032230

  Basis Set: AUG-CC-PVTZ
    Blend: AUG-CC-PVTZ
  Basis Set: (AUG-CC-PVTZ AUX)
    Blend: AUG-CC-PVTZ-JKFIT
	 Reference Energy          =    -553.6170011139245162 [Eh]
	 Singles Energy            =      -0.0000000000000000 [Eh]
	 Same-Spin Energy          =      -0.6047963313381817 [Eh]
	 Opposite-Spin Energy      =      -1.9045354862898862 [Eh]
	 Correlation Energy        =      -2.5093318176280679 [Eh]
	 Total Energy              =    -556.1263329315526107 [Eh]

	 ================> DF-SCS-MP2 Energies <==================
	-----------------------------------------------------------
	 SCS Same-Spin Scale       =       0.3333333333333333 [-]
	 SCS Opposite-Spin Scale   =       1.2000000000000000 [-]
	 SCS Same-Spin Energy      =      -0.2015987771127272 [Eh]
	 SCS Opposite-Spin Energy  =      -2.2854425835478636 [Eh]
	 SCS Correlation Energy    =      -2.4870413606605908 [Eh]
	 SCS Total Energy          =    -556.1040424745850714 [Eh]
	-----------------------------------------------------------

  Dipole Moment: [D]
     X:     1.7172      Y:    -2.5862      Z:     2.2790     Total:     3.8511

*** Psi4 exiting successfully. Buy a developer a beer!
