                               Psi4 1.4a3.dev225

  ==> Input File <==

--------------------------------------------------------------------------
#psi4
#
memory 32 gb

molecule  {
0 1
  O        0.3910422     2.4017562    -1.0288444
  N        1.7883250     1.2487180     0.2800910
  C        1.5287440    -1.3320340    -0.8115580
  C        2.5082430    -1.1273300     0.3546920
  C        0.0936770    -1.0844130    -0.4156830
  C       -0.3593510     0.2288580    -0.1728470
  C        2.1500350     0.1348000     1.1432270
  C       -1.6973100     0.4876920     0.1815770
  C        0.5874820     1.3794060    -0.3635620
  C       -0.8057180    -2.1460500    -0.2745700
  C       -2.5635920    -0.6025190     0.3218070
  C       -2.1294290    -1.9083920     0.0915650
  C       -2.2005820     1.8899870     0.4130340
  H        1.6305660    -2.3487650    -1.2074160
  H        1.8022820    -0.6509930    -1.6251500
  H        2.4785080    -1.9866810     1.0363320
  H        3.5296620    -1.0584230    -0.0385230
  H        1.3070990    -0.0748920     1.8087120
  H        2.9845300     0.4555350     1.7739000
  H        2.4430930     2.0063180     0.1171350
  H       -0.4670580    -3.1628320    -0.4675050
  H       -3.5988730    -0.4222000     0.6058720
  H       -2.8229980    -2.7393000     0.2003190
  H       -1.5534710     2.4410460     1.1016880
  H       -2.2209110     2.4548110    -0.5213210
  H       -3.2087000     1.8617690     0.8360960
units angstrom
no_reorient  #important for SAPT in psi4, default
symmetry c1  #important for SAPT in psi4, default
}

set PROPERTIES_ORIGIN ["COM"]
properties('MP2/aug-cc-pvtz', properties = ['dipole'])
--------------------------------------------------------------------------

    Molecular point group: c1
  Charge       = 0
  Multiplicity = 1
  Basis Set: AUG-CC-PVTZ
    Blend: AUG-CC-PVTZ
  Basis Set: (AUG-CC-PVTZ AUX)
    Blend: AUG-CC-PVTZ-JKFIT

    Orbital Energies [Eh]
    ---------------------

    Doubly Occupied:

       1A    -20.510853     2A    -15.578208     3A    -11.349575
       4A    -11.272309     5A    -11.256632     6A    -11.255784
       7A    -11.246425     8A    -11.244956     9A    -11.238448
      10A    -11.236777    11A    -11.236649    12A    -11.234214
      13A    -11.217935    14A     -1.367921    15A     -1.230403
      16A     -1.165384    17A     -1.084846    18A     -1.046669
      19A     -1.029032    20A     -0.943708    21A     -0.933568
      22A     -0.874520    23A     -0.830159    24A     -0.785295
      25A     -0.770097    26A     -0.693384    27A     -0.682131
      28A     -0.660668    29A     -0.658403    30A     -0.619751
      31A     -0.614153    32A     -0.591317    33A     -0.583581
      34A     -0.571948    35A     -0.566884    36A     -0.553324
      37A     -0.532739    38A     -0.530495    39A     -0.514191
      40A     -0.505638    41A     -0.488847    42A     -0.480517
      43A     -0.474630    44A     -0.417237    45A     -0.382021
      46A     -0.339126    47A     -0.329092

  @DF-RHF Final Energy:  -553.64221307540868

   => Energetics <=

    Nuclear Repulsion Energy =            795.4786761157311048
    One-Electron Energy =               -2330.7808915613582030
    Two-Electron Energy =                 981.6600023702184217
    Total Energy =                       -553.6422130754086766
  Basis Set: (AUG-CC-PVTZ AUX)
    Blend: AUG-CC-PVTZ-RI
    Molecular point group: c1

    Geometry (in Angstrom), charge = 0, multiplicity = 1:

       Center              X                  Y                   Z               Mass
    ------------   -----------------  -----------------  -----------------  -----------------
         O            0.396953816312     2.380671092653    -1.010149380152    15.994914619570
         N            1.794236616312     1.227632892653     0.298786019848    14.003074004430
         C            1.534655616312    -1.353119107347    -0.792862980152    12.000000000000
         C            2.514154616312    -1.148415107347     0.373387019848    12.000000000000
         C            0.099588616312    -1.105498107347    -0.396987980152    12.000000000000
         C           -0.353439383688     0.207772892653    -0.154151980152    12.000000000000
         C            2.155946616312     0.113714892653     1.161922019848    12.000000000000
         C           -1.691398383688     0.466606892653     0.200272019848    12.000000000000
         C            0.593393616312     1.358320892653    -0.344866980152    12.000000000000
         C           -0.799806383688    -2.167135107347    -0.255874980152    12.000000000000
         C           -2.557680383688    -0.623604107347     0.340502019848    12.000000000000
         C           -2.123517383688    -1.929477107347     0.110260019848    12.000000000000
         C           -2.194670383688     1.868901892653     0.431729019848    12.000000000000
         H            1.636477616312    -2.369850107347    -1.188720980152     1.007825032230
         H            1.808193616312    -0.672078107347    -1.606454980152     1.007825032230
         H            2.484419616312    -2.007766107347     1.055027019848     1.007825032230
         H            3.535573616312    -1.079508107347    -0.019827980152     1.007825032230
         H            1.313010616312    -0.095977107347     1.827407019848     1.007825032230
         H            2.990441616312     0.434449892653     1.792595019848     1.007825032230
         H            2.449004616312     1.985232892653     0.135830019848     1.007825032230
         H           -0.461146383688    -3.183917107347    -0.448809980152     1.007825032230
         H           -3.592961383688    -0.443285107347     0.624567019848     1.007825032230
         H           -2.817086383688    -2.760385107347     0.219014019848     1.007825032230
         H           -1.547559383688     2.419960892653     1.120383019848     1.007825032230
         H           -2.214999383688     2.433725892653    -0.502625980152     1.007825032230
         H           -3.202788383688     1.840683892653     0.854791019848     1.007825032230

  Basis Set: AUG-CC-PVTZ
    Blend: AUG-CC-PVTZ
  Basis Set: (AUG-CC-PVTZ AUX)
    Blend: AUG-CC-PVTZ-JKFIT
	 Reference Energy          =    -553.6422130754086766 [Eh]
	 Singles Energy            =      -0.0000000000000000 [Eh]
	 Same-Spin Energy          =      -0.6040665858373091 [Eh]
	 Opposite-Spin Energy      =      -1.9028738224566717 [Eh]
	 Correlation Energy        =      -2.5069404082939810 [Eh]
	 Total Energy              =    -556.1491534837026620 [Eh]

	 ================> DF-SCS-MP2 Energies <==================
	-----------------------------------------------------------
	 SCS Same-Spin Scale       =       0.3333333333333333 [-]
	 SCS Opposite-Spin Scale   =       1.2000000000000000 [-]
	 SCS Same-Spin Energy      =      -0.2013555286124364 [Eh]
	 SCS Opposite-Spin Energy  =      -2.2834485869480061 [Eh]
	 SCS Correlation Energy    =      -2.4848041155604426 [Eh]
	 SCS Total Energy          =    -556.1270171909691271 [Eh]
	-----------------------------------------------------------

  Dipole Moment: [D]
     X:     1.4742      Y:    -2.6687      Z:     2.1719     Total:     3.7433

*** Psi4 exiting successfully. Buy a developer a beer!
