                               Psi4 1.4a3.dev225

  ==> Input File <==

--------------------------------------------------------------------------
#psi4
#
memory 32 gb

molecule  {
0 1
  O        0.3130990     2.3704440    -1.0483590
  N        1.7883250     1.2487180     0.2800910
  C        1.5287440    -1.3320340    -0.8115580
  C        2.5082430    -1.1273300     0.3546920
  C        0.0936770    -1.0844130    -0.4156830
  C       -0.3593510     0.2288580    -0.1728470
  C        2.1500350     0.1348000     1.1432270
  C       -1.6973100     0.4876920     0.1815770
  C        0.5874820     1.3794060    -0.3635620
  C       -0.9343377    -2.2978714    -0.2543899
  C       -2.5635920    -0.6025190     0.3218070
  C       -2.1294290    -1.9083920     0.0915650
  C       -2.2005820     1.8899870     0.4130340
  H        1.6305660    -2.3487650    -1.2074160
  H        1.8022820    -0.6509930    -1.6251500
  H        2.4785080    -1.9866810     1.0363320
  H        3.5296620    -1.0584230    -0.0385230
  H        1.3070990    -0.0748920     1.8087120
  H        2.9845300     0.4555350     1.7739000
  H        2.4430930     2.0063180     0.1171350
  H       -0.4670580    -3.1628320    -0.4675050
  H       -3.5988730    -0.4222000     0.6058720
  H       -2.8229980    -2.7393000     0.2003190
  H       -1.5534710     2.4410460     1.1016880
  H       -2.2209110     2.4548110    -0.5213210
  H       -3.2087000     1.8617690     0.8360960
units angstrom
no_reorient  #important for SAPT in psi4, default
symmetry c1  #important for SAPT in psi4, default
}

set PROPERTIES_ORIGIN ["COM"]
properties('MP2/aug-cc-pvtz', properties = ['dipole'])
--------------------------------------------------------------------------

    Molecular point group: c1
  Charge       = 0
  Multiplicity = 1
  Basis Set: AUG-CC-PVTZ
    Blend: AUG-CC-PVTZ
  Basis Set: (AUG-CC-PVTZ AUX)
    Blend: AUG-CC-PVTZ-JKFIT

    Orbital Energies [Eh]
    ---------------------

    Doubly Occupied:

       1A    -20.513123     2A    -15.583816     3A    -11.350950
       4A    -11.275329     5A    -11.271747     6A    -11.254237
       7A    -11.242214     8A    -11.241048     9A    -11.239320
      10A    -11.238249    11A    -11.234000    12A    -11.229559
      13A    -11.215815    14A     -1.368125    15A     -1.235668
      16A     -1.156442    17A     -1.082404    18A     -1.057398
      19A     -1.022920    20A     -0.943129    21A     -0.932421
      22A     -0.873100    23A     -0.828807    24A     -0.781028
      25A     -0.775194    26A     -0.702236    27A     -0.684170
      28A     -0.661806    29A     -0.656127    30A     -0.624825
      31A     -0.618578    32A     -0.593538    33A     -0.583792
      34A     -0.574834    35A     -0.564237    36A     -0.550704
      37A     -0.533240    38A     -0.529722    39A     -0.515289
      40A     -0.500152    41A     -0.485931    42A     -0.478688
      43A     -0.463745    44A     -0.412442    45A     -0.386785
      46A     -0.352841    47A     -0.310715

  @DF-RHF Final Energy:  -553.60242596755336

   => Energetics <=

    Nuclear Repulsion Energy =            792.8372652211653531
    One-Electron Energy =               -2325.4184973627830004
    Two-Electron Energy =                 978.9788061740642888
    Total Energy =                       -553.6024259675533585
  Basis Set: (AUG-CC-PVTZ AUX)
    Blend: AUG-CC-PVTZ-RI
    Molecular point group: c1

    Geometry (in Angstrom), charge = 0, multiplicity = 1:

       Center              X                  Y                   Z               Mass
    ------------   -----------------  -----------------  -----------------  -----------------
         O            0.334945143929     2.362623864434    -1.029264361219    15.994914619570
         N            1.810171143929     1.240897864434     0.299185638781    14.003074004430
         C            1.550590143929    -1.339854135566    -0.792463361219    12.000000000000
         C            2.530089143929    -1.135150135566     0.373786638781    12.000000000000
         C            0.115523143929    -1.092233135566    -0.396588361219    12.000000000000
         C           -0.337504856071     0.221037864434    -0.153752361219    12.000000000000
         C            2.171881143929     0.126979864434     1.162321638781    12.000000000000
         C           -1.675463856071     0.479871864434     0.200671638781    12.000000000000
         C            0.609328143929     1.371585864434    -0.344467361219    12.000000000000
         C           -0.912491556071    -2.305691535566    -0.235295261219    12.000000000000
         C           -2.541745856071    -0.610339135566     0.340901638781    12.000000000000
         C           -2.107582856071    -1.916212135566     0.110659638781    12.000000000000
         C           -2.178735856071     1.882166864434     0.432128638781    12.000000000000
         H            1.652412143929    -2.356585135566    -1.188321361219     1.007825032230
         H            1.824128143929    -0.658813135566    -1.606055361219     1.007825032230
         H            2.500354143929    -1.994501135566     1.055426638781     1.007825032230
         H            3.551508143929    -1.066243135566    -0.019428361219     1.007825032230
         H            1.328945143929    -0.082712135566     1.827806638781     1.007825032230
         H            3.006376143929     0.447714864434     1.792994638781     1.007825032230
         H            2.464939143929     1.998497864434     0.136229638781     1.007825032230
         H           -0.445211856071    -3.170652135566    -0.448410361219     1.007825032230
         H           -3.577026856071    -0.430020135566     0.624966638781     1.007825032230
         H           -2.801151856071    -2.747120135566     0.219413638781     1.007825032230
         H           -1.531624856071     2.433225864434     1.120782638781     1.007825032230
         H           -2.199064856071     2.446990864434    -0.502226361219     1.007825032230
         H           -3.186853856071     1.853948864434     0.855190638781     1.007825032230

  Basis Set: AUG-CC-PVTZ
    Blend: AUG-CC-PVTZ
  Basis Set: (AUG-CC-PVTZ AUX)
    Blend: AUG-CC-PVTZ-JKFIT
	 Reference Energy          =    -553.6024259675533585 [Eh]
	 Singles Energy            =      -0.0000000000000000 [Eh]
	 Same-Spin Energy          =      -0.6036300430672542 [Eh]
	 Opposite-Spin Energy      =      -1.9048513209775697 [Eh]
	 Correlation Energy        =      -2.5084813640448238 [Eh]
	 Total Energy              =    -556.1109073315981277 [Eh]

	 ================> DF-SCS-MP2 Energies <==================
	-----------------------------------------------------------
	 SCS Same-Spin Scale       =       0.3333333333333333 [-]
	 SCS Opposite-Spin Scale   =       1.2000000000000000 [-]
	 SCS Same-Spin Energy      =      -0.2012100143557514 [Eh]
	 SCS Opposite-Spin Energy  =      -2.2858215851730836 [Eh]
	 SCS Correlation Energy    =      -2.4870315995288350 [Eh]
	 SCS Total Energy          =    -556.0894575670821496 [Eh]
	-----------------------------------------------------------

  Dipole Moment: [D]
     X:     1.8127      Y:    -2.5514      Z:     2.1834     Total:     3.8161

*** Psi4 exiting successfully. Buy a developer a beer!
