                               Psi4 1.4a3.dev225

  ==> Input File <==

--------------------------------------------------------------------------
#psi4
#
memory 32 gb

molecule  {
0 1
  O        0.3130990     2.3704440    -1.0483590
  N        1.7883250     1.2487180     0.2800910
  C        1.5287440    -1.3320340    -0.8115580
  C        2.5082430    -1.1273300     0.3546920
  C        0.0936770    -1.0844130    -0.4156830
  C       -0.3593510     0.2288580    -0.1728470
  C        2.1500350     0.1348000     1.1432270
  C       -1.6973100     0.4876920     0.1815770
  C        0.5874820     1.3794060    -0.3635620
  C       -0.8057180    -2.1460500    -0.2745700
  C       -2.5635920    -0.6025190     0.3218070
  C       -2.1449872    -1.8615960     0.0998157
  C       -2.2005820     1.8899870     0.4130340
  H        1.6305660    -2.3487650    -1.2074160
  H        1.8022820    -0.6509930    -1.6251500
  H        2.4785080    -1.9866810     1.0363320
  H        3.5296620    -1.0584230    -0.0385230
  H        1.3070990    -0.0748920     1.8087120
  H        2.9845300     0.4555350     1.7739000
  H        2.4430930     2.0063180     0.1171350
  H       -0.4670580    -3.1628320    -0.4675050
  H       -3.5988730    -0.4222000     0.6058720
  H       -2.8229980    -2.7393000     0.2003190
  H       -1.5534710     2.4410460     1.1016880
  H       -2.2209110     2.4548110    -0.5213210
  H       -3.2087000     1.8617690     0.8360960
units angstrom
no_reorient  #important for SAPT in psi4, default
symmetry c1  #important for SAPT in psi4, default
}

set PROPERTIES_ORIGIN ["COM"]
properties('MP2/aug-cc-pvtz', properties = ['dipole'])
--------------------------------------------------------------------------

    Molecular point group: c1
  Charge       = 0
  Multiplicity = 1
  Basis Set: AUG-CC-PVTZ
    Blend: AUG-CC-PVTZ
  Basis Set: (AUG-CC-PVTZ AUX)
    Blend: AUG-CC-PVTZ-JKFIT

    Orbital Energies [Eh]
    ---------------------

    Doubly Occupied:

       1A    -20.512489     2A    -15.582833     3A    -11.350109
       4A    -11.274807     5A    -11.254666     6A    -11.253534
       7A    -11.243389     8A    -11.241176     9A    -11.237834
      10A    -11.237115    11A    -11.236736    12A    -11.227696
      13A    -11.216400    14A     -1.367387    15A     -1.235206
      16A     -1.165791    17A     -1.086027    18A     -1.043246
      19A     -1.031124    20A     -0.943283    21A     -0.935724
      22A     -0.870354    23A     -0.831487    24A     -0.783094
      25A     -0.770314    26A     -0.694508    27A     -0.683254
      28A     -0.660057    29A     -0.657852    30A     -0.619651
      31A     -0.613385    32A     -0.591485    33A     -0.584565
      34A     -0.569886    35A     -0.565404    36A     -0.553263
      37A     -0.531562    38A     -0.530363    39A     -0.515114
      40A     -0.503911    41A     -0.488926    42A     -0.481128
      43A     -0.471591    44A     -0.417188    45A     -0.385985
      46A     -0.340919    47A     -0.325253

  @DF-RHF Final Energy:  -553.64033686539904

   => Energetics <=

    Nuclear Repulsion Energy =            796.5156153422308307
    One-Electron Energy =               -2332.8777602568525253
    Two-Electron Energy =                 982.7218080492226591
    Total Energy =                       -553.6403368653990356
  Basis Set: (AUG-CC-PVTZ AUX)
    Blend: AUG-CC-PVTZ-RI
    Molecular point group: c1

    Geometry (in Angstrom), charge = 0, multiplicity = 1:

       Center              X                  Y                   Z               Mass
    ------------   -----------------  -----------------  -----------------  -----------------
         O            0.327196770338     2.349012141462    -1.028446811054    15.994914619570
         N            1.802422770338     1.227286141462     0.300003188946    14.003074004430
         C            1.542841770338    -1.353465858538    -0.791645811054    12.000000000000
         C            2.522340770338    -1.148761858538     0.374604188946    12.000000000000
         C            0.107774770338    -1.105844858538    -0.395770811054    12.000000000000
         C           -0.345253229662     0.207426141462    -0.152934811054    12.000000000000
         C            2.164132770338     0.113368141462     1.163139188946    12.000000000000
         C           -1.683212229662     0.466260141462     0.201489188946    12.000000000000
         C            0.601579770338     1.357974141462    -0.343649811054    12.000000000000
         C           -0.791620229662    -2.167481858538    -0.254657811054    12.000000000000
         C           -2.549494229662    -0.623950858538     0.341719188946    12.000000000000
         C           -2.130889429662    -1.883027858538     0.119727888946    12.000000000000
         C           -2.186484229662     1.868555141462     0.432946188946    12.000000000000
         H            1.644663770338    -2.370196858538    -1.187503811054     1.007825032230
         H            1.816379770338    -0.672424858538    -1.605237811054     1.007825032230
         H            2.492605770338    -2.008112858538     1.056244188946     1.007825032230
         H            3.543759770338    -1.079854858538    -0.018610811054     1.007825032230
         H            1.321196770338    -0.096323858538     1.828624188946     1.007825032230
         H            2.998627770338     0.434103141462     1.793812188946     1.007825032230
         H            2.457190770338     1.984886141462     0.137047188946     1.007825032230
         H           -0.452960229662    -3.184263858538    -0.447592811054     1.007825032230
         H           -3.584775229662    -0.443631858538     0.625784188946     1.007825032230
         H           -2.808900229662    -2.760731858538     0.220231188946     1.007825032230
         H           -1.539373229662     2.419614141462     1.121600188946     1.007825032230
         H           -2.206813229662     2.433379141462    -0.501408811054     1.007825032230
         H           -3.194602229662     1.840337141462     0.856008188946     1.007825032230

  Basis Set: AUG-CC-PVTZ
    Blend: AUG-CC-PVTZ
  Basis Set: (AUG-CC-PVTZ AUX)
    Blend: AUG-CC-PVTZ-JKFIT
	 Reference Energy          =    -553.6403368653990356 [Eh]
	 Singles Energy            =      -0.0000000000000000 [Eh]
	 Same-Spin Energy          =      -0.6040831468085329 [Eh]
	 Opposite-Spin Energy      =      -1.9029443516383082 [Eh]
	 Correlation Energy        =      -2.5070274984468410 [Eh]
	 Total Energy              =    -556.1473643638458952 [Eh]

	 ================> DF-SCS-MP2 Energies <==================
	-----------------------------------------------------------
	 SCS Same-Spin Scale       =       0.3333333333333333 [-]
	 SCS Opposite-Spin Scale   =       1.2000000000000000 [-]
	 SCS Same-Spin Energy      =      -0.2013610489361776 [Eh]
	 SCS Opposite-Spin Energy  =      -2.2835332219659699 [Eh]
	 SCS Correlation Energy    =      -2.4848942709021475 [Eh]
	 SCS Total Energy          =    -556.1252311363011813 [Eh]
	-----------------------------------------------------------

  Dipole Moment: [D]
     X:     1.7346      Y:    -2.5339      Z:     2.2024     Total:     3.7789

*** Psi4 exiting successfully. Buy a developer a beer!
