                               Psi4 1.4a3.dev225

  ==> Input File <==

--------------------------------------------------------------------------
#psi4
#
memory 32 gb

molecule  {
0 1
  O        0.3130990     2.3704440    -1.0483590
  N        1.7883250     1.2487180     0.2800910
  C        1.5287440    -1.3320340    -0.8115580
  C        2.4954950    -1.1299942     0.3395134
  C        0.0936770    -1.0844130    -0.4156830
  C       -0.3593510     0.2288580    -0.1728470
  C        2.1500350     0.1348000     1.1432270
  C       -1.6973100     0.4876920     0.1815770
  C        0.5874820     1.3794060    -0.3635620
  C       -0.8057180    -2.1460500    -0.2745700
  C       -2.5635920    -0.6025190     0.3218070
  C       -2.1294290    -1.9083920     0.0915650
  C       -2.2005820     1.8899870     0.4130340
  H        1.6305660    -2.3487650    -1.2074160
  H        1.8022820    -0.6509930    -1.6251500
  H        2.4785080    -1.9866810     1.0363320
  H        3.5296620    -1.0584230    -0.0385230
  H        1.3070990    -0.0748920     1.8087120
  H        2.9845300     0.4555350     1.7739000
  H        2.4430930     2.0063180     0.1171350
  H       -0.4670580    -3.1628320    -0.4675050
  H       -3.5988730    -0.4222000     0.6058720
  H       -2.8229980    -2.7393000     0.2003190
  H       -1.5534710     2.4410460     1.1016880
  H       -2.2209110     2.4548110    -0.5213210
  H       -3.2087000     1.8617690     0.8360960
units angstrom
no_reorient  #important for SAPT in psi4, default
symmetry c1  #important for SAPT in psi4, default
}

set PROPERTIES_ORIGIN ["COM"]
properties('MP2/aug-cc-pvtz', properties = ['dipole'])
--------------------------------------------------------------------------

    Molecular point group: c1
  Charge       = 0
  Multiplicity = 1
  Basis Set: AUG-CC-PVTZ
    Blend: AUG-CC-PVTZ
  Basis Set: (AUG-CC-PVTZ AUX)
    Blend: AUG-CC-PVTZ-JKFIT

    Orbital Energies [Eh]
    ---------------------

    Doubly Occupied:

       1A    -20.512654     2A    -15.582888     3A    -11.350295
       4A    -11.275178     5A    -11.254396     6A    -11.253555
       7A    -11.244470     8A    -11.242134     9A    -11.238156
      10A    -11.237322    11A    -11.235406    12A    -11.232803
      13A    -11.215942    14A     -1.367564    15A     -1.235353
      16A     -1.163931    17A     -1.086386    18A     -1.044943
      19A     -1.028167    20A     -0.943362    21A     -0.933915
      22A     -0.873467    23A     -0.829478    24A     -0.784915
      25A     -0.769765    26A     -0.694048    27A     -0.682873
      28A     -0.660164    29A     -0.658860    30A     -0.619644
      31A     -0.615298    32A     -0.590782    33A     -0.584387
      34A     -0.570113    35A     -0.566345    36A     -0.552717
      37A     -0.532432    38A     -0.530611    39A     -0.514302
      40A     -0.504856    41A     -0.488836    42A     -0.479855
      43A     -0.472974    44A     -0.417411    45A     -0.385328
      46A     -0.336612    47A     -0.327797

  @DF-RHF Final Energy:  -553.64266609517654

   => Energetics <=

    Nuclear Repulsion Energy =            796.2317573786890534
    One-Electron Energy =               -2332.3034657858306673
    Two-Electron Energy =                 982.4290423119650768
    Total Energy =                       -553.6426660951765371
  Basis Set: (AUG-CC-PVTZ AUX)
    Blend: AUG-CC-PVTZ-RI
    Molecular point group: c1

    Geometry (in Angstrom), charge = 0, multiplicity = 1:

       Center              X                  Y                   Z               Mass
    ------------   -----------------  -----------------  -----------------  -----------------
         O            0.327004180646     2.352401766643    -1.026841145383    15.994914619570
         N            1.802230180646     1.230675766643     0.301608854617    14.003074004430
         C            1.542649180646    -1.350076233357    -0.790040145383    12.000000000000
         C            2.509400180646    -1.148036433357     0.361031254617    12.000000000000
         C            0.107582180646    -1.102455233357    -0.394165145383    12.000000000000
         C           -0.345445819354     0.210815766643    -0.151329145383    12.000000000000
         C            2.163940180646     0.116757766643     1.164744854617    12.000000000000
         C           -1.683404819354     0.469649766643     0.203094854617    12.000000000000
         C            0.601387180646     1.361363766643    -0.342044145383    12.000000000000
         C           -0.791812819354    -2.164092233357    -0.253052145383    12.000000000000
         C           -2.549686819354    -0.620561233357     0.343324854617    12.000000000000
         C           -2.115523819354    -1.926434233357     0.113082854617    12.000000000000
         C           -2.186676819354     1.871944766643     0.434551854617    12.000000000000
         H            1.644471180646    -2.366807233357    -1.185898145383     1.007825032230
         H            1.816187180646    -0.669035233357    -1.603632145383     1.007825032230
         H            2.492413180646    -2.004723233357     1.057849854617     1.007825032230
         H            3.543567180646    -1.076465233357    -0.017005145383     1.007825032230
         H            1.321004180646    -0.092934233357     1.830229854617     1.007825032230
         H            2.998435180646     0.437492766643     1.795417854617     1.007825032230
         H            2.456998180646     1.988275766643     0.138652854617     1.007825032230
         H           -0.453152819354    -3.180874233357    -0.445987145383     1.007825032230
         H           -3.584967819354    -0.440242233357     0.627389854617     1.007825032230
         H           -2.809092819354    -2.757342233357     0.221836854617     1.007825032230
         H           -1.539565819354     2.423003766643     1.123205854617     1.007825032230
         H           -2.207005819354     2.436768766643    -0.499803145383     1.007825032230
         H           -3.194794819354     1.843726766643     0.857613854617     1.007825032230

  Basis Set: AUG-CC-PVTZ
    Blend: AUG-CC-PVTZ
  Basis Set: (AUG-CC-PVTZ AUX)
    Blend: AUG-CC-PVTZ-JKFIT
	 Reference Energy          =    -553.6426660951765371 [Eh]
	 Singles Energy            =      -0.0000000000000000 [Eh]
	 Same-Spin Energy          =      -0.6042759316648234 [Eh]
	 Opposite-Spin Energy      =      -1.9031974183252525 [Eh]
	 Correlation Energy        =      -2.5074733499900761 [Eh]
	 Total Energy              =    -556.1501394451665874 [Eh]

	 ================> DF-SCS-MP2 Energies <==================
	-----------------------------------------------------------
	 SCS Same-Spin Scale       =       0.3333333333333333 [-]
	 SCS Opposite-Spin Scale   =       1.2000000000000000 [-]
	 SCS Same-Spin Energy      =      -0.2014253105549411 [Eh]
	 SCS Opposite-Spin Energy  =      -2.2838369019903029 [Eh]
	 SCS Correlation Energy    =      -2.4852622125452442 [Eh]
	 SCS Total Energy          =    -556.1279283077217315 [Eh]
	-----------------------------------------------------------

  Dipole Moment: [D]
     X:     1.7190      Y:    -2.5350      Z:     2.2039     Total:     3.7733

*** Psi4 exiting successfully. Buy a developer a beer!
