                               Psi4 1.4a3.dev225

  ==> Input File <==

--------------------------------------------------------------------------
#psi4
#
memory 32 gb

molecule  {
0 1
  O        0.3130990     2.3704440    -1.0483590
  N        1.7883250     1.2487180     0.2800910
  C        1.5287440    -1.3320340    -0.8115580
  C        2.5082430    -1.1273300     0.3546920
  C        0.0936770    -1.0844130    -0.4156830
  C       -0.3593510     0.2288580    -0.1728470
  C        2.1500350     0.1348000     1.1432270
  C       -1.6973100     0.4876920     0.1815770
  C        0.5874820     1.3794060    -0.3635620
  C       -0.8057180    -2.1460500    -0.2745700
  C       -2.5635920    -0.6025190     0.3218070
  C       -2.1294290    -1.9083920     0.0915650
  C       -2.2005820     1.8899870     0.4130340
  H        1.6305660    -2.3487650    -1.2074160
  H        1.8022820    -0.6509930    -1.6251500
  H        2.4785080    -1.9866810     1.0363320
  H        3.5296620    -1.0584230    -0.0385230
  H        1.3520182    -0.0554613     1.8673485
  H        2.9845300     0.4555350     1.7739000
  H        2.4430930     2.0063180     0.1171350
  H       -0.4670580    -3.1628320    -0.4675050
  H       -3.5988730    -0.4222000     0.6058720
  H       -2.8229980    -2.7393000     0.2003190
  H       -1.5534710     2.4410460     1.1016880
  H       -2.2209110     2.4548110    -0.5213210
  H       -3.2087000     1.8617690     0.8360960
units angstrom
no_reorient  #important for SAPT in psi4, default
symmetry c1  #important for SAPT in psi4, default
}

set PROPERTIES_ORIGIN ["COM"]
properties('MP2/aug-cc-pvtz', properties = ['dipole'])
--------------------------------------------------------------------------

    Molecular point group: c1
  Charge       = 0
  Multiplicity = 1
  Basis Set: AUG-CC-PVTZ
    Blend: AUG-CC-PVTZ
  Basis Set: (AUG-CC-PVTZ AUX)
    Blend: AUG-CC-PVTZ-JKFIT

    Orbital Energies [Eh]
    ---------------------

    Doubly Occupied:

       1A    -20.512886     2A    -15.583548     3A    -11.350357
       4A    -11.274919     5A    -11.254089     6A    -11.253245
       7A    -11.244150     8A    -11.241842     9A    -11.238409
      10A    -11.237816    11A    -11.235058    12A    -11.232484
      13A    -11.215789    14A     -1.367701    15A     -1.235177
      16A     -1.163460    17A     -1.084438    18A     -1.044520
      19A     -1.028681    20A     -0.943122    21A     -0.933381
      22A     -0.873681    23A     -0.830093    24A     -0.784710
      25A     -0.769745    26A     -0.693047    27A     -0.685177
      28A     -0.659274    29A     -0.659004    30A     -0.620397
      31A     -0.614619    32A     -0.590822    33A     -0.583069
      34A     -0.569776    35A     -0.565687    36A     -0.552886
      37A     -0.531349    38A     -0.529357    39A     -0.514895
      40A     -0.504927    41A     -0.487683    42A     -0.479362
      43A     -0.473418    44A     -0.417478    45A     -0.387224
      46A     -0.336249    47A     -0.327305

  @DF-RHF Final Energy:  -553.64283618498291

   => Energetics <=

    Nuclear Repulsion Energy =            795.7517485482103439
    One-Electron Energy =               -2331.3565561273089770
    Two-Electron Energy =                 981.9619713941157215
    Total Energy =                       -553.6428361849829116
  Basis Set: (AUG-CC-PVTZ AUX)
    Blend: AUG-CC-PVTZ-RI
    Molecular point group: c1

    Geometry (in Angstrom), charge = 0, multiplicity = 1:

       Center              X                  Y                   Z               Mass
    ------------   -----------------  -----------------  -----------------  -----------------
         O            0.325871987511     2.352107344998    -1.028218866265    15.994914619570
         N            1.801097987511     1.230381344998     0.300231133735    14.003074004430
         C            1.541516987511    -1.350370655002    -0.791417866265    12.000000000000
         C            2.521015987511    -1.145666655002     0.374832133735    12.000000000000
         C            0.106449987511    -1.102749655002    -0.395542866265    12.000000000000
         C           -0.346578012489     0.210521344998    -0.152706866265    12.000000000000
         C            2.162807987511     0.116463344998     1.163367133735    12.000000000000
         C           -1.684537012489     0.469355344998     0.201717133735    12.000000000000
         C            0.600254987511     1.361069344998    -0.343421866265    12.000000000000
         C           -0.792945012489    -2.164386655002    -0.254429866265    12.000000000000
         C           -2.550819012489    -0.620855655002     0.341947133735    12.000000000000
         C           -2.116656012489    -1.926728655002     0.111705133735    12.000000000000
         C           -2.187809012489     1.871650344998     0.433174133735    12.000000000000
         H            1.643338987511    -2.367101655002    -1.187275866265     1.007825032230
         H            1.815054987511    -0.669329655002    -1.605009866265     1.007825032230
         H            2.491280987511    -2.005017655002     1.056472133735     1.007825032230
         H            3.542434987511    -1.076759655002    -0.018382866265     1.007825032230
         H            1.364791187511    -0.073797955002     1.887488633735     1.007825032230
         H            2.997302987511     0.437198344998     1.794040133735     1.007825032230
         H            2.455865987511     1.987981344998     0.137275133735     1.007825032230
         H           -0.454285012489    -3.181168655002    -0.447364866265     1.007825032230
         H           -3.586100012489    -0.440536655002     0.626012133735     1.007825032230
         H           -2.810225012489    -2.757636655002     0.220459133735     1.007825032230
         H           -1.540698012489     2.422709344998     1.121828133735     1.007825032230
         H           -2.208138012489     2.436474344998    -0.501180866265     1.007825032230
         H           -3.195927012489     1.843432344998     0.856236133735     1.007825032230

  Basis Set: AUG-CC-PVTZ
    Blend: AUG-CC-PVTZ
  Basis Set: (AUG-CC-PVTZ AUX)
    Blend: AUG-CC-PVTZ-JKFIT
	 Reference Energy          =    -553.6428361849829116 [Eh]
	 Singles Energy            =      -0.0000000000000000 [Eh]
	 Same-Spin Energy          =      -0.6040669364958682 [Eh]
	 Opposite-Spin Energy      =      -1.9029193048864634 [Eh]
	 Correlation Energy        =      -2.5069862413823314 [Eh]
	 Total Energy              =    -556.1498224263652901 [Eh]

	 ================> DF-SCS-MP2 Energies <==================
	-----------------------------------------------------------
	 SCS Same-Spin Scale       =       0.3333333333333333 [-]
	 SCS Opposite-Spin Scale   =       1.2000000000000000 [-]
	 SCS Same-Spin Energy      =      -0.2013556454986227 [Eh]
	 SCS Opposite-Spin Energy  =      -2.2835031658637561 [Eh]
	 SCS Correlation Energy    =      -2.4848588113623786 [Eh]
	 SCS Total Energy          =    -556.1276949963453262 [Eh]
	-----------------------------------------------------------

  Dipole Moment: [D]
     X:     1.7438      Y:    -2.5292      Z:     2.2292     Total:     3.7957

*** Psi4 exiting successfully. Buy a developer a beer!
