                               Psi4 1.4a3.dev225

  ==> Input File <==

--------------------------------------------------------------------------
#psi4
#
memory 32 gb

molecule  {
0 1
  O        0.3130990     2.3704440    -1.0483590
  N        1.7883250     1.2487180     0.2800910
  C        1.5287440    -1.3320340    -0.8115580
  C        2.5082430    -1.1273300     0.3546920
  C        0.0936770    -1.0844130    -0.4156830
  C       -0.3593510     0.2288580    -0.1728470
  C        2.1500350     0.1348000     1.1432270
  C       -1.6973100     0.4876920     0.1815770
  C        0.5874820     1.3794060    -0.3635620
  C       -0.8057180    -2.1460500    -0.2745700
  C       -2.5635920    -0.6025190     0.3218070
  C       -2.1294290    -1.9083920     0.0915650
  C       -2.2005820     1.8899870     0.4130340
  H        1.6305660    -2.3487650    -1.2074160
  H        1.8022820    -0.6509930    -1.6251500
  H        2.4785080    -1.9866810     1.0363320
  H        3.5296620    -1.0584230    -0.0385230
  H        1.3456156    -0.0653105     1.7783037
  H        2.9845300     0.4555350     1.7739000
  H        2.4430930     2.0063180     0.1171350
  H       -0.4670580    -3.1628320    -0.4675050
  H       -3.5988730    -0.4222000     0.6058720
  H       -2.8229980    -2.7393000     0.2003190
  H       -1.5534710     2.4410460     1.1016880
  H       -2.2209110     2.4548110    -0.5213210
  H       -3.2087000     1.8617690     0.8360960
units angstrom
no_reorient  #important for SAPT in psi4, default
symmetry c1  #important for SAPT in psi4, default
}

set PROPERTIES_ORIGIN ["COM"]
properties('MP2/aug-cc-pvtz', properties = ['dipole'])
--------------------------------------------------------------------------

    Molecular point group: c1
  Charge       = 0
  Multiplicity = 1
  Basis Set: AUG-CC-PVTZ
    Blend: AUG-CC-PVTZ
  Basis Set: (AUG-CC-PVTZ AUX)
    Blend: AUG-CC-PVTZ-JKFIT

    Orbital Energies [Eh]
    ---------------------

    Doubly Occupied:

       1A    -20.512489     2A    -15.582552     3A    -11.350184
       4A    -11.269005     5A    -11.254368     6A    -11.253557
       7A    -11.244465     8A    -11.242053     9A    -11.238137
      10A    -11.236996    11A    -11.235341    12A    -11.232750
      13A    -11.215927    14A     -1.367418    15A     -1.235605
      16A     -1.163735    17A     -1.084737    18A     -1.044801
      19A     -1.029555    20A     -0.944759    21A     -0.934144
      22A     -0.873657    23A     -0.831704    24A     -0.784841
      25A     -0.771069    26A     -0.694778    27A     -0.684959
      28A     -0.660082    29A     -0.658895    30A     -0.619856
      31A     -0.615524    32A     -0.591471    33A     -0.584214
      34A     -0.570380    35A     -0.567145    36A     -0.553188
      37A     -0.532945    38A     -0.531194    39A     -0.514290
      40A     -0.505717    41A     -0.488933    42A     -0.479529
      43A     -0.474146    44A     -0.417301    45A     -0.386231
      46A     -0.336682    47A     -0.327573

  @DF-RHF Final Energy:  -553.64247762853927

   => Energetics <=

    Nuclear Repulsion Energy =            796.1909273044688007
    One-Electron Energy =               -2332.2090437149477111
    Two-Electron Energy =                 982.3756387819395286
    Total Energy =                       -553.6424776285392682
  Basis Set: (AUG-CC-PVTZ AUX)
    Blend: AUG-CC-PVTZ-RI
    Molecular point group: c1

    Geometry (in Angstrom), charge = 0, multiplicity = 1:

       Center              X                  Y                   Z               Mass
    ------------   -----------------  -----------------  -----------------  -----------------
         O            0.325908839088     2.352164034242    -1.027706349275    15.994914619570
         N            1.801134839088     1.230438034242     0.300743650725    14.003074004430
         C            1.541553839088    -1.350313965758    -0.790905349275    12.000000000000
         C            2.521052839088    -1.145609965758     0.375344650725    12.000000000000
         C            0.106486839088    -1.102692965758    -0.395030349275    12.000000000000
         C           -0.346541160912     0.210578034242    -0.152194349275    12.000000000000
         C            2.162844839088     0.116520034242     1.163879650725    12.000000000000
         C           -1.684500160912     0.469412034242     0.202229650725    12.000000000000
         C            0.600291839088     1.361126034242    -0.342909349275    12.000000000000
         C           -0.792908160912    -2.164329965758    -0.253917349275    12.000000000000
         C           -2.550782160912    -0.620798965758     0.342459650725    12.000000000000
         C           -2.116619160912    -1.926671965758     0.112217650725    12.000000000000
         C           -2.187772160912     1.871707034242     0.433686650725    12.000000000000
         H            1.643375839088    -2.367044965758    -1.186763349275     1.007825032230
         H            1.815091839088    -0.669272965758    -1.604497349275     1.007825032230
         H            2.491317839088    -2.004960965758     1.056984650725     1.007825032230
         H            3.542471839088    -1.076702965758    -0.017870349275     1.007825032230
         H            1.358425439088    -0.083590465758     1.798956350725     1.007825032230
         H            2.997339839088     0.437255034242     1.794552650725     1.007825032230
         H            2.455902839088     1.988038034242     0.137787650725     1.007825032230
         H           -0.454248160912    -3.181111965758    -0.446852349275     1.007825032230
         H           -3.586063160912    -0.440479965758     0.626524650725     1.007825032230
         H           -2.810188160912    -2.757579965758     0.220971650725     1.007825032230
         H           -1.540661160912     2.422766034242     1.122340650725     1.007825032230
         H           -2.208101160912     2.436531034242    -0.500668349275     1.007825032230
         H           -3.195890160912     1.843489034242     0.856748650725     1.007825032230

  Basis Set: AUG-CC-PVTZ
    Blend: AUG-CC-PVTZ
  Basis Set: (AUG-CC-PVTZ AUX)
    Blend: AUG-CC-PVTZ-JKFIT
	 Reference Energy          =    -553.6424776285392682 [Eh]
	 Singles Energy            =      -0.0000000000000000 [Eh]
	 Same-Spin Energy          =      -0.6040658527582885 [Eh]
	 Opposite-Spin Energy      =      -1.9026715785981994 [Eh]
	 Correlation Energy        =      -2.5067374313564876 [Eh]
	 Total Energy              =    -556.1492150598957096 [Eh]

	 ================> DF-SCS-MP2 Energies <==================
	-----------------------------------------------------------
	 SCS Same-Spin Scale       =       0.3333333333333333 [-]
	 SCS Opposite-Spin Scale   =       1.2000000000000000 [-]
	 SCS Same-Spin Energy      =      -0.2013552842527628 [Eh]
	 SCS Opposite-Spin Energy  =      -2.2832058943178390 [Eh]
	 SCS Correlation Energy    =      -2.4845611785706017 [Eh]
	 SCS Total Energy          =    -556.1270388071098978 [Eh]
	-----------------------------------------------------------

  Dipole Moment: [D]
     X:     1.7210      Y:    -2.5449      Z:     2.2253     Total:     3.7935

*** Psi4 exiting successfully. Buy a developer a beer!
