                               Psi4 1.4a3.dev225

  ==> Input File <==

--------------------------------------------------------------------------
#psi4
#
memory 32 gb

molecule  {
0 1
  O        0.3130990     2.3704440    -1.0483590
  N        1.7883250     1.2487180     0.2800910
  C        1.5287440    -1.3320340    -0.8115580
  C        2.5082430    -1.1273300     0.3546920
  C        0.0936770    -1.0844130    -0.4156830
  C       -0.3593510     0.2288580    -0.1728470
  C        2.1500350     0.1348000     1.1432270
  C       -1.6973100     0.4876920     0.1815770
  C        0.5874820     1.3794060    -0.3635620
  C       -0.8057180    -2.1460500    -0.2745700
  C       -2.5635920    -0.6025190     0.3218070
  C       -2.2197412    -1.9384268     0.1122119
  C       -2.2005820     1.8899870     0.4130340
  H        1.6305660    -2.3487650    -1.2074160
  H        1.8022820    -0.6509930    -1.6251500
  H        2.4785080    -1.9866810     1.0363320
  H        3.5296620    -1.0584230    -0.0385230
  H        1.3070990    -0.0748920     1.8087120
  H        2.9845300     0.4555350     1.7739000
  H        2.4430930     2.0063180     0.1171350
  H       -0.4670580    -3.1628320    -0.4675050
  H       -3.5988730    -0.4222000     0.6058720
  H       -2.8229980    -2.7393000     0.2003190
  H       -1.5534710     2.4410460     1.1016880
  H       -2.2209110     2.4548110    -0.5213210
  H       -3.2087000     1.8617690     0.8360960
units angstrom
no_reorient  #important for SAPT in psi4, default
symmetry c1  #important for SAPT in psi4, default
}

set PROPERTIES_ORIGIN ["COM"]
properties('MP2/aug-cc-pvtz', properties = ['dipole'])
--------------------------------------------------------------------------

    Molecular point group: c1
  Charge       = 0
  Multiplicity = 1
  Basis Set: AUG-CC-PVTZ
    Blend: AUG-CC-PVTZ
  Basis Set: (AUG-CC-PVTZ AUX)
    Blend: AUG-CC-PVTZ-JKFIT

    Orbital Energies [Eh]
    ---------------------

    Doubly Occupied:

       1A    -20.513201     2A    -15.583238     3A    -11.350719
       4A    -11.274886     5A    -11.254739     6A    -11.253367
       7A    -11.247537     8A    -11.243707     9A    -11.243630
      10A    -11.237995    11A    -11.236945    12A    -11.235435
      13A    -11.216574    14A     -1.367997    15A     -1.235545
      16A     -1.158244    17A     -1.084527    18A     -1.037904
      19A     -1.029783    20A     -0.943080    21A     -0.930928
      22A     -0.875129    23A     -0.832579    24A     -0.786203
      25A     -0.771224    26A     -0.691641    27A     -0.682302
      28A     -0.671010    29A     -0.657390    30A     -0.618336
      31A     -0.615986    32A     -0.598561    33A     -0.583026
      34A     -0.569465    35A     -0.562210    36A     -0.552571
      37A     -0.531232    38A     -0.524846    39A     -0.517437
      40A     -0.510126    41A     -0.490348    42A     -0.474080
      43A     -0.466933    44A     -0.418320    45A     -0.386193
      46A     -0.337019    47A     -0.322403

  @DF-RHF Final Energy:  -553.62951652405593

   => Energetics <=

    Nuclear Repulsion Energy =            794.1232583357309522
    One-Electron Energy =               -2328.0524452089189253
    Two-Electron Energy =                 980.2996703491320432
    Total Energy =                       -553.6295165240559299
  Basis Set: (AUG-CC-PVTZ AUX)
    Blend: AUG-CC-PVTZ-RI
    Molecular point group: c1

    Geometry (in Angstrom), charge = 0, multiplicity = 1:

       Center              X                  Y                   Z               Mass
    ------------   -----------------  -----------------  -----------------  -----------------
         O            0.332319839813     2.354277538981    -1.029296352133    15.994914619570
         N            1.807545839813     1.232551538981     0.299153647867    14.003074004430
         C            1.547964839813    -1.348200461019    -0.792495352133    12.000000000000
         C            2.527463839813    -1.143496461019     0.373754647867    12.000000000000
         C            0.112897839813    -1.100579461019    -0.396620352133    12.000000000000
         C           -0.340130160187     0.212691538981    -0.153784352133    12.000000000000
         C            2.169255839813     0.118633538981     1.162289647867    12.000000000000
         C           -1.678089160187     0.471525538981     0.200639647867    12.000000000000
         C            0.606702839813     1.363239538981    -0.344499352133    12.000000000000
         C           -0.786497160187    -2.162216461019    -0.255507352133    12.000000000000
         C           -2.544371160187    -0.618685461019     0.340869647867    12.000000000000
         C           -2.200520360187    -1.954593261019     0.131274547867    12.000000000000
         C           -2.181361160187     1.873820538981     0.432096647867    12.000000000000
         H            1.649786839813    -2.364931461019    -1.188353352133     1.007825032230
         H            1.821502839813    -0.667159461019    -1.606087352133     1.007825032230
         H            2.497728839813    -2.002847461019     1.055394647867     1.007825032230
         H            3.548882839813    -1.074589461019    -0.019460352133     1.007825032230
         H            1.326319839813    -0.091058461019     1.827774647867     1.007825032230
         H            3.003750839813     0.439368538981     1.792962647867     1.007825032230
         H            2.462313839813     1.990151538981     0.136197647867     1.007825032230
         H           -0.447837160187    -3.178998461019    -0.448442352133     1.007825032230
         H           -3.579652160187    -0.438366461019     0.624934647867     1.007825032230
         H           -2.803777160187    -2.755466461019     0.219381647867     1.007825032230
         H           -1.534250160187     2.424879538981     1.120750647867     1.007825032230
         H           -2.201690160187     2.438644538981    -0.502258352133     1.007825032230
         H           -3.189479160187     1.845602538981     0.855158647867     1.007825032230

  Basis Set: AUG-CC-PVTZ
    Blend: AUG-CC-PVTZ
  Basis Set: (AUG-CC-PVTZ AUX)
    Blend: AUG-CC-PVTZ-JKFIT
	 Reference Energy          =    -553.6295165240559299 [Eh]
	 Singles Energy            =      -0.0000000000000000 [Eh]
	 Same-Spin Energy          =      -0.6043663105576620 [Eh]
	 Opposite-Spin Energy      =      -1.9045501440466401 [Eh]
	 Correlation Energy        =      -2.5089164546043019 [Eh]
	 Total Energy              =    -556.1384329786602621 [Eh]

	 ================> DF-SCS-MP2 Energies <==================
	-----------------------------------------------------------
	 SCS Same-Spin Scale       =       0.3333333333333333 [-]
	 SCS Opposite-Spin Scale   =       1.2000000000000000 [-]
	 SCS Same-Spin Energy      =      -0.2014554368525540 [Eh]
	 SCS Opposite-Spin Energy  =      -2.2854601728559683 [Eh]
	 SCS Correlation Energy    =      -2.4869156097085221 [Eh]
	 SCS Total Energy          =    -556.1164321337644196 [Eh]
	-----------------------------------------------------------

  Dipole Moment: [D]
     X:     1.7317      Y:    -2.5428      Z:     2.2066     Total:     3.7860

*** Psi4 exiting successfully. Buy a developer a beer!
