                               Psi4 1.4a3.dev225

  ==> Input File <==

--------------------------------------------------------------------------
#psi4
#
memory 32 gb

molecule  {
0 1
  O        0.3130990     2.3704440    -1.0483590
  N        1.7883250     1.2487180     0.2800910
  C        1.5287440    -1.3320340    -0.8115580
  C        2.5082430    -1.1273300     0.3546920
  C        0.0936770    -1.0844130    -0.4156830
  C       -0.3593510     0.2288580    -0.1728470
  C        2.1500350     0.1348000     1.1432270
  C       -1.6973100     0.4876920     0.1815770
  C        0.5874820     1.3794060    -0.3635620
  C       -0.8057180    -2.1460500    -0.2745700
  C       -2.5635920    -0.6025190     0.3218070
  C       -2.1294290    -1.9083920     0.0915650
  C       -2.2005820     1.8899870     0.4130340
  H        1.6305660    -2.3487650    -1.2074160
  H        1.8022820    -0.6509930    -1.6251500
  H        2.4771530    -2.0258396     1.0673927
  H        3.5296620    -1.0584230    -0.0385230
  H        1.3070990    -0.0748920     1.8087120
  H        2.9845300     0.4555350     1.7739000
  H        2.4430930     2.0063180     0.1171350
  H       -0.4670580    -3.1628320    -0.4675050
  H       -3.5988730    -0.4222000     0.6058720
  H       -2.8229980    -2.7393000     0.2003190
  H       -1.5534710     2.4410460     1.1016880
  H       -2.2209110     2.4548110    -0.5213210
  H       -3.2087000     1.8617690     0.8360960
units angstrom
no_reorient  #important for SAPT in psi4, default
symmetry c1  #important for SAPT in psi4, default
}

set PROPERTIES_ORIGIN ["COM"]
properties('MP2/aug-cc-pvtz', properties = ['dipole'])
--------------------------------------------------------------------------

    Molecular point group: c1
  Charge       = 0
  Multiplicity = 1
  Basis Set: AUG-CC-PVTZ
    Blend: AUG-CC-PVTZ
  Basis Set: (AUG-CC-PVTZ AUX)
    Blend: AUG-CC-PVTZ-JKFIT

    Orbital Energies [Eh]
    ---------------------

    Doubly Occupied:

       1A    -20.512994     2A    -15.583467     3A    -11.350593
       4A    -11.275356     5A    -11.254449     6A    -11.253580
       7A    -11.244470     8A    -11.243611     9A    -11.242167
      10A    -11.238665    11A    -11.235372    12A    -11.232798
      13A    -11.215995    14A     -1.367879    15A     -1.235701
      16A     -1.163811    17A     -1.083987    18A     -1.044719
      19A     -1.027944    20A     -0.943334    21A     -0.933391
      22A     -0.872888    23A     -0.828210    24A     -0.784252
      25A     -0.769884    26A     -0.694039    27A     -0.682418
      28A     -0.659414    29A     -0.658860    30A     -0.619315
      31A     -0.614525    32A     -0.591126    33A     -0.583234
      34A     -0.570166    35A     -0.566218    36A     -0.553299
      37A     -0.530695    38A     -0.529532    39A     -0.513580
      40A     -0.504243    41A     -0.487930    42A     -0.478570
      43A     -0.473915    44A     -0.417666    45A     -0.386418
      46A     -0.336575    47A     -0.327627

  @DF-RHF Final Energy:  -553.64107529783701

   => Energetics <=

    Nuclear Repulsion Energy =            795.7263170444964544
    One-Electron Energy =               -2331.2970185494573343
    Two-Electron Energy =                 981.9296262071238743
    Total Energy =                       -553.6410752978370056
  Basis Set: (AUG-CC-PVTZ AUX)
    Blend: AUG-CC-PVTZ-RI
    Molecular point group: c1

    Geometry (in Angstrom), charge = 0, multiplicity = 1:

       Center              X                  Y                   Z               Mass
    ------------   -----------------  -----------------  -----------------  -----------------
         O            0.326138328878     2.352444568640    -1.028060147664    15.994914619570
         N            1.801364328878     1.230718568640     0.300389852336    14.003074004430
         C            1.541783328878    -1.350033431360    -0.791259147664    12.000000000000
         C            2.521282328878    -1.145329431360     0.374990852336    12.000000000000
         C            0.106716328878    -1.102412431360    -0.395384147664    12.000000000000
         C           -0.346311671122     0.210858568640    -0.152548147664    12.000000000000
         C            2.163074328878     0.116800568640     1.163525852336    12.000000000000
         C           -1.684270671122     0.469692568640     0.201875852336    12.000000000000
         C            0.600521328878     1.361406568640    -0.343263147664    12.000000000000
         C           -0.792678671122    -2.164049431360    -0.254271147664    12.000000000000
         C           -2.550552671122    -0.620518431360     0.342105852336    12.000000000000
         C           -2.116389671122    -1.926391431360     0.111863852336    12.000000000000
         C           -2.187542671122     1.871987568640     0.433332852336    12.000000000000
         H            1.643605328878    -2.366764431360    -1.187117147664     1.007825032230
         H            1.815321328878    -0.668992431360    -1.604851147664     1.007825032230
         H            2.490192328878    -2.043839031360     1.087691552336     1.007825032230
         H            3.542701328878    -1.076422431360    -0.018224147664     1.007825032230
         H            1.320138328878    -0.092891431360     1.829010852336     1.007825032230
         H            2.997569328878     0.437535568640     1.794198852336     1.007825032230
         H            2.456132328878     1.988318568640     0.137433852336     1.007825032230
         H           -0.454018671122    -3.180831431360    -0.447206147664     1.007825032230
         H           -3.585833671122    -0.440199431360     0.626170852336     1.007825032230
         H           -2.809958671122    -2.757299431360     0.220617852336     1.007825032230
         H           -1.540431671122     2.423046568640     1.121986852336     1.007825032230
         H           -2.207871671122     2.436811568640    -0.501022147664     1.007825032230
         H           -3.195660671122     1.843769568640     0.856394852336     1.007825032230

  Basis Set: AUG-CC-PVTZ
    Blend: AUG-CC-PVTZ
  Basis Set: (AUG-CC-PVTZ AUX)
    Blend: AUG-CC-PVTZ-JKFIT
	 Reference Energy          =    -553.6410752978370056 [Eh]
	 Singles Energy            =      -0.0000000000000000 [Eh]
	 Same-Spin Energy          =      -0.6042061048222581 [Eh]
	 Opposite-Spin Energy      =      -1.9034501480070785 [Eh]
	 Correlation Energy        =      -2.5076562528293365 [Eh]
	 Total Energy              =    -556.1487315506662981 [Eh]

	 ================> DF-SCS-MP2 Energies <==================
	-----------------------------------------------------------
	 SCS Same-Spin Scale       =       0.3333333333333333 [-]
	 SCS Opposite-Spin Scale   =       1.2000000000000000 [-]
	 SCS Same-Spin Energy      =      -0.2014020349407527 [Eh]
	 SCS Opposite-Spin Energy  =      -2.2841401776084940 [Eh]
	 SCS Correlation Energy    =      -2.4855422125492468 [Eh]
	 SCS Total Energy          =    -556.1266175103862679 [Eh]
	-----------------------------------------------------------

  Dipole Moment: [D]
     X:     1.7122      Y:    -2.5125      Z:     2.1816     Total:     3.7422

*** Psi4 exiting successfully. Buy a developer a beer!
