                               Psi4 1.3.2 release

  ==> Input File <==

--------------------------------------------------------------------------
#psi4
#
memory 32 gb

molecule  {
0 1
  C        0.1738706    -0.9982863     0.1613122
  C       -1.0637980    -0.1288010    -0.1468870
  C        1.0637980     0.1288010    -0.1468870
  C       -0.0693991     1.0109354     0.1613122
  H        0.1617500    -1.3357820     1.2060290
  H        0.2387610    -1.9715140    -0.4526620
  H       -1.3357820    -0.1617500    -1.2060290
  H       -1.9715140    -0.2387610     0.4526620
  H        1.9715140     0.2387610     0.4526620
  H        1.3357820     0.1617500    -1.2060290
  H       -0.2387610     1.9715140    -0.4526620
  H       -0.1617500     1.3357820     1.2060290
units angstrom
no_reorient  #important for SAPT in psi4, default
symmetry c1  #important for SAPT in psi4, default
}

set PROPERTIES_ORIGIN ["COM"]
properties('MP2/aug-cc-pvtz', properties = ['dipole'])
--------------------------------------------------------------------------

    Molecular point group: c1
  Charge       = 0
  Multiplicity = 1
  Basis Set: AUG-CC-PVTZ
    Blend: AUG-CC-PVTZ
  Basis Set: (AUG-CC-PVTZ AUX)
    Blend: AUG-CC-PVTZ-JKFIT

    Orbital Energies [Eh]
    ---------------------

    Doubly Occupied:

       1A    -11.220636     2A    -11.220573     3A    -11.213386
       4A    -11.209407     5A     -1.152294     6A     -0.900586
       7A     -0.883064     8A     -0.747590     9A     -0.656947
      10A     -0.637280    11A     -0.536896    12A     -0.525161
      13A     -0.499479    14A     -0.458364    15A     -0.442432
      16A     -0.413927

  @DF-RHF Final Energy:  -156.13449203418003

   => Energetics <=

    Nuclear Repulsion Energy =            129.2092133033478660
    One-Electron Energy =                -465.2513667441646703
    Two-Electron Energy =                 179.9076614066368052
    Total Energy =                       -156.1344920341800275
  Basis Set: (AUG-CC-PVTZ AUX)
    Blend: AUG-CC-PVTZ-RI
    Molecular point group: c1

    Geometry (in Angstrom), charge = 0, multiplicity = 1:

       Center              X                  Y                   Z               Mass
    ------------   -----------------  -----------------  -----------------  -----------------
         C            0.151508847348    -1.000993794824     0.155136874589    12.000000000000
         C           -1.086159752652    -0.131508494824    -0.153062325411    12.000000000000
         C            1.041436247348     0.126093505176    -0.153062325411    12.000000000000
         C           -0.091760852652     1.008227905176     0.155136874589    12.000000000000
         H            0.139388247348    -1.338489494824     1.199853674589     1.007825032230
         H            0.216399247348    -1.974221494824    -0.458837325411     1.007825032230
         H           -1.358143752652    -0.164457494824    -1.212204325411     1.007825032230
         H           -1.993875752652    -0.241468494824     0.446486674589     1.007825032230
         H            1.949152247348     0.236053505176     0.446486674589     1.007825032230
         H            1.313420247348     0.159042505176    -1.212204325411     1.007825032230
         H           -0.261122752652     1.968806505176    -0.458837325411     1.007825032230
         H           -0.184111752652     1.333074505176     1.199853674589     1.007825032230

  Basis Set: AUG-CC-PVTZ
    Blend: AUG-CC-PVTZ
  Basis Set: (AUG-CC-PVTZ AUX)
    Blend: AUG-CC-PVTZ-JKFIT
	 Reference Energy          =    -156.1344920341800275 [Eh]
	 Singles Energy            =      -0.0000000000000000 [Eh]
	 Same-Spin Energy          =      -0.1674549408769403 [Eh]
	 Opposite-Spin Energy      =      -0.6124749288923828 [Eh]
	 Correlation Energy        =      -0.7799298697693230 [Eh]
	 Total Energy              =    -156.9144219039493464 [Eh]

	 ================> DF-SCS-MP2 Energies <==================
	-----------------------------------------------------------
	 SCS Same-Spin Scale       =       0.3333333333333333 [-]
	 SCS Opposite-Spin Scale   =       1.2000000000000000 [-]
	 SCS Same-Spin Energy      =      -0.0558183136256468 [Eh]
	 SCS Opposite-Spin Energy  =      -0.7349699146708593 [Eh]
	 SCS Correlation Energy    =      -0.7907882282965060 [Eh]
	 SCS Total Energy          =    -156.9252802624765195 [Eh]
	-----------------------------------------------------------

  Dipole Moment: [D]
     X:    -0.0054      Y:    -0.0007      Z:     0.0789     Total:     0.0791

*** Psi4 exiting successfully. Buy a developer a beer!
