                               Psi4 1.3.2 release

  ==> Input File <==

--------------------------------------------------------------------------
#psi4
#
memory 32 gb

molecule  {
0 1
  C        0.1288010    -1.0637980     0.1468870
  C       -1.0637980    -0.1288010    -0.1468870
  C        1.0637980     0.1288010    -0.1468870
  C       -0.1288010     1.0637980     0.1468870
  H        0.1572847    -1.2989211     1.2149453
  H        0.2361777    -1.9501889    -0.4842072
  H       -1.3357820    -0.1617500    -1.2060290
  H       -1.9715140    -0.2387610     0.4526620
  H        1.9715140     0.2387610     0.4526620
  H        1.3357820     0.1617500    -1.2060290
  H       -0.2387610     1.9715140    -0.4526620
  H       -0.1617500     1.3357820     1.2060290
units angstrom
no_reorient  #important for SAPT in psi4, default
symmetry c1  #important for SAPT in psi4, default
}

set PROPERTIES_ORIGIN ["COM"]
properties('MP2/aug-cc-pvtz', properties = ['dipole'])
--------------------------------------------------------------------------

    Molecular point group: c1
  Charge       = 0
  Multiplicity = 1
  Basis Set: AUG-CC-PVTZ
    Blend: AUG-CC-PVTZ
  Basis Set: (AUG-CC-PVTZ AUX)
    Blend: AUG-CC-PVTZ-JKFIT

    Orbital Energies [Eh]
    ---------------------

    Doubly Occupied:

       1A    -11.216608     2A    -11.216134     3A    -11.215613
       4A    -11.215253     5A     -1.126413     6A     -0.890005
       7A     -0.889719     8A     -0.748372     9A     -0.648173
      10A     -0.639578    11A     -0.535996    12A     -0.532723
      13A     -0.483738    14A     -0.452530    15A     -0.435658
      16A     -0.432554

  @DF-RHF Final Energy:  -156.15005197799383

   => Energetics <=

    Nuclear Repulsion Energy =            127.5921063287931219
    One-Electron Energy =                -462.1261822475226495
    Two-Electron Energy =                 178.3840239407356876
    Total Energy =                       -156.1500519779938259
  Basis Set: (AUG-CC-PVTZ AUX)
    Blend: AUG-CC-PVTZ-RI
    Molecular point group: c1

    Geometry (in Angstrom), charge = 0, multiplicity = 1:

       Center              X                  Y                   Z               Mass
    ------------   -----------------  -----------------  -----------------  -----------------
         C            0.128927711132    -1.064843996922     0.147293794757    12.000000000000
         C           -1.063671288868    -0.129846996922    -0.146480205243    12.000000000000
         C            1.063924711132     0.127755003078    -0.146480205243    12.000000000000
         C           -0.128674288868     1.062752003078     0.147293794757    12.000000000000
         H            0.157411411132    -1.299967096922     1.215352094757     1.007825032230
         H            0.236304411132    -1.951234896922    -0.483800405243     1.007825032230
         H           -1.335655288868    -0.162795996922    -1.205622205243     1.007825032230
         H           -1.971387288868    -0.239806996922     0.453068794757     1.007825032230
         H            1.971640711132     0.237715003078     0.453068794757     1.007825032230
         H            1.335908711132     0.160704003078    -1.205622205243     1.007825032230
         H           -0.238634288868     1.970468003078    -0.452255205243     1.007825032230
         H           -0.161623288868     1.334736003078     1.206435794757     1.007825032230

  Basis Set: AUG-CC-PVTZ
    Blend: AUG-CC-PVTZ
  Basis Set: (AUG-CC-PVTZ AUX)
    Blend: AUG-CC-PVTZ-JKFIT
	 Reference Energy          =    -156.1500519779938259 [Eh]
	 Singles Energy            =      -0.0000000000000000 [Eh]
	 Same-Spin Energy          =      -0.1662783673837728 [Eh]
	 Opposite-Spin Energy      =      -0.6117779919946174 [Eh]
	 Correlation Energy        =      -0.7780563593783901 [Eh]
	 Total Energy              =    -156.9281083373722083 [Eh]

	 ================> DF-SCS-MP2 Energies <==================
	-----------------------------------------------------------
	 SCS Same-Spin Scale       =       0.3333333333333333 [-]
	 SCS Opposite-Spin Scale   =       1.2000000000000000 [-]
	 SCS Same-Spin Energy      =      -0.0554261224612576 [Eh]
	 SCS Opposite-Spin Energy  =      -0.7341335903935408 [Eh]
	 SCS Correlation Energy    =      -0.7895597128547983 [Eh]
	 SCS Total Energy          =    -156.9396116908486363 [Eh]
	-----------------------------------------------------------

  Dipole Moment: [D]
     X:    -0.0008      Y:     0.0068      Z:    -0.0079     Total:     0.0105

*** Psi4 exiting successfully. Buy a developer a beer!
