                               Psi4 1.3.2 release

  ==> Input File <==

--------------------------------------------------------------------------
#psi4
#
memory 32 gb

molecule  {
0 1
  C        0.1288010    -1.0637980     0.1468870
  C       -1.0637980    -0.1288010    -0.1468870
  C        1.0637980     0.1288010    -0.1468870
  C       -0.1288010     1.0637980     0.1468870
  H        0.1617500    -1.3357820     1.2060290
  H        0.2186474    -1.8054768    -0.3429939
  H       -1.3357820    -0.1617500    -1.2060290
  H       -1.9715140    -0.2387610     0.4526620
  H        1.9715140     0.2387610     0.4526620
  H        1.3357820     0.1617500    -1.2060290
  H       -0.2387610     1.9715140    -0.4526620
  H       -0.1617500     1.3357820     1.2060290
units angstrom
no_reorient  #important for SAPT in psi4, default
symmetry c1  #important for SAPT in psi4, default
}

set PROPERTIES_ORIGIN ["COM"]
properties('MP2/aug-cc-pvtz', properties = ['dipole'])
--------------------------------------------------------------------------

    Molecular point group: c1
  Charge       = 0
  Multiplicity = 1
  Basis Set: AUG-CC-PVTZ
    Blend: AUG-CC-PVTZ
  Basis Set: (AUG-CC-PVTZ AUX)
    Blend: AUG-CC-PVTZ-JKFIT

    Orbital Energies [Eh]
    ---------------------

    Doubly Occupied:

       1A    -11.214812     2A    -11.214252     3A    -11.213970
       4A    -11.191018     5A     -1.127554     6A     -0.912389
       7A     -0.888565     8A     -0.758138     9A     -0.666547
      10A     -0.641517    11A     -0.540183    12A     -0.531484
      13A     -0.482440    14A     -0.455553    15A     -0.439157
      16A     -0.433715

  @DF-RHF Final Energy:  -156.11678137676486

   => Energetics <=

    Nuclear Repulsion Energy =            128.5246517550320391
    One-Electron Energy =                -463.8602749532174130
    Two-Electron Energy =                 179.2188418214205115
    Total Energy =                       -156.1167813767648624
  Basis Set: (AUG-CC-PVTZ AUX)
    Blend: AUG-CC-PVTZ-RI
    Molecular point group: c1

    Geometry (in Angstrom), charge = 0, multiplicity = 1:

       Center              X                  Y                   Z               Mass
    ------------   -----------------  -----------------  -----------------  -----------------
         C            0.129162577763    -1.066782814220     0.144915520691    12.000000000000
         C           -1.063436422237    -0.131785814220    -0.148858479309    12.000000000000
         C            1.064159577763     0.125816185780    -0.148858479309    12.000000000000
         C           -0.128439422237     1.060813185780     0.144915520691    12.000000000000
         H            0.162111577763    -1.338766814220     1.204057520691     1.007825032230
         H            0.219008977763    -1.808461614220    -0.344965379309     1.007825032230
         H           -1.335420422237    -0.164734814220    -1.208000479309     1.007825032230
         H           -1.971152422237    -0.241745814220     0.450690520691     1.007825032230
         H            1.971875577763     0.235776185780     0.450690520691     1.007825032230
         H            1.336143577763     0.158765185780    -1.208000479309     1.007825032230
         H           -0.238399422237     1.968529185780    -0.454633479309     1.007825032230
         H           -0.161388422237     1.332797185780     1.204057520691     1.007825032230

  Basis Set: AUG-CC-PVTZ
    Blend: AUG-CC-PVTZ
  Basis Set: (AUG-CC-PVTZ AUX)
    Blend: AUG-CC-PVTZ-JKFIT
	 Reference Energy          =    -156.1167813767648624 [Eh]
	 Singles Energy            =      -0.0000000000000000 [Eh]
	 Same-Spin Energy          =      -0.1663087126815790 [Eh]
	 Opposite-Spin Energy      =      -0.6111714169402072 [Eh]
	 Correlation Energy        =      -0.7774801296217861 [Eh]
	 Total Energy              =    -156.8942615063866413 [Eh]

	 ================> DF-SCS-MP2 Energies <==================
	-----------------------------------------------------------
	 SCS Same-Spin Scale       =       0.3333333333333333 [-]
	 SCS Opposite-Spin Scale   =       1.2000000000000000 [-]
	 SCS Same-Spin Energy      =      -0.0554362375605263 [Eh]
	 SCS Opposite-Spin Energy  =      -0.7334057003282486 [Eh]
	 SCS Correlation Energy    =      -0.7888419378887750 [Eh]
	 SCS Total Energy          =    -156.9056233146536385 [Eh]
	-----------------------------------------------------------

  Dipole Moment: [D]
     X:     0.0162      Y:    -0.1337      Z:    -0.0246     Total:     0.1369

*** Psi4 exiting successfully. Buy a developer a beer!
