                               Psi4 1.3.2 release

  ==> Input File <==

--------------------------------------------------------------------------
#psi4
#
memory 32 gb

molecule  {
0 1
  C        0.1288010    -1.0637980     0.1468870
  C       -1.0637980    -0.1288010    -0.1468870
  C        1.0637980     0.1288010    -0.1468870
  C       -0.1288010     1.0637980     0.1468870
  H        0.1606372    -1.3265961     1.2083795
  H        0.2381276    -1.9662854    -0.4606183
  H       -1.3357820    -0.1617500    -1.2060290
  H       -1.9715140    -0.2387610     0.4526620
  H        1.9715140     0.2387610     0.4526620
  H        1.3357820     0.1617500    -1.2060290
  H       -0.2387610     1.9715140    -0.4526620
  H       -0.1617500     1.3357820     1.2060290
units angstrom
no_reorient  #important for SAPT in psi4, default
symmetry c1  #important for SAPT in psi4, default
}

set PROPERTIES_ORIGIN ["COM"]
properties('MP2/aug-cc-pvtz', properties = ['dipole'])
--------------------------------------------------------------------------

    Molecular point group: c1
  Charge       = 0
  Multiplicity = 1
  Basis Set: AUG-CC-PVTZ
    Blend: AUG-CC-PVTZ
  Basis Set: (AUG-CC-PVTZ AUX)
    Blend: AUG-CC-PVTZ-JKFIT

    Orbital Energies [Eh]
    ---------------------

    Doubly Occupied:

       1A    -11.216685     2A    -11.216185     3A    -11.216041
       4A    -11.215539     5A     -1.126096     6A     -0.890108
       7A     -0.890028     8A     -0.749242     9A     -0.646622
      10A     -0.640950    11A     -0.533634    12A     -0.532787
      13A     -0.483731    14A     -0.451647    15A     -0.435784
      16A     -0.435035

  @DF-RHF Final Energy:  -156.15051952531991

   => Energetics <=

    Nuclear Repulsion Energy =            127.5424303575526324
    One-Electron Energy =                -462.0256716280700289
    Two-Electron Energy =                 178.3327217451974889
    Total Energy =                       -156.1505195253199076
  Basis Set: (AUG-CC-PVTZ AUX)
    Blend: AUG-CC-PVTZ-RI
    Molecular point group: c1

    Geometry (in Angstrom), charge = 0, multiplicity = 1:

       Center              X                  Y                   Z               Mass
    ------------   -----------------  -----------------  -----------------  -----------------
         C            0.128832391053    -1.064057126296     0.146987774233    12.000000000000
         C           -1.063766608947    -0.129060126296    -0.146786225767    12.000000000000
         C            1.063829391053     0.128541873704    -0.146786225767    12.000000000000
         C           -0.128769608947     1.063538873704     0.146987774233    12.000000000000
         H            0.160668591053    -1.326855226296     1.208480274233     1.007825032230
         H            0.238158991053    -1.966544526296    -0.460517525767     1.007825032230
         H           -1.335750608947    -0.162009126296    -1.205928225767     1.007825032230
         H           -1.971482608947    -0.239020126296     0.452762774233     1.007825032230
         H            1.971545391053     0.238501873704     0.452762774233     1.007825032230
         H            1.335813391053     0.161490873704    -1.205928225767     1.007825032230
         H           -0.238729608947     1.971254873704    -0.452561225767     1.007825032230
         H           -0.161718608947     1.335522873704     1.206129774233     1.007825032230

  Basis Set: AUG-CC-PVTZ
    Blend: AUG-CC-PVTZ
  Basis Set: (AUG-CC-PVTZ AUX)
    Blend: AUG-CC-PVTZ-JKFIT
	 Reference Energy          =    -156.1505195253199076 [Eh]
	 Singles Energy            =      -0.0000000000000000 [Eh]
	 Same-Spin Energy          =      -0.1662257539263998 [Eh]
	 Opposite-Spin Energy      =      -0.6116546406471508 [Eh]
	 Correlation Energy        =      -0.7778803945735506 [Eh]
	 Total Energy              =    -156.9283999198934509 [Eh]

	 ================> DF-SCS-MP2 Energies <==================
	-----------------------------------------------------------
	 SCS Same-Spin Scale       =       0.3333333333333333 [-]
	 SCS Opposite-Spin Scale   =       1.2000000000000000 [-]
	 SCS Same-Spin Energy      =      -0.0554085846421333 [Eh]
	 SCS Opposite-Spin Energy  =      -0.7339855687765809 [Eh]
	 SCS Correlation Energy    =      -0.7893941534187142 [Eh]
	 SCS Total Energy          =    -156.9399136787386340 [Eh]
	-----------------------------------------------------------

  Dipole Moment: [D]
     X:    -0.0002      Y:     0.0016      Z:    -0.0020     Total:     0.0026

*** Psi4 exiting successfully. Buy a developer a beer!
