                               Psi4 1.3.2 release

  ==> Input File <==

--------------------------------------------------------------------------
#psi4
#
memory 32 gb

molecule  {
0 1
  C        0.1209681    -1.0744722     0.1444034
  C       -1.0637980    -0.1288010    -0.1468870
  C        1.0637980     0.1288010    -0.1468870
  C       -0.1389550     1.0722944     0.1444034
  H        0.1617500    -1.3357820     1.2060290
  H        0.2387610    -1.9715140    -0.4526620
  H       -1.3357820    -0.1617500    -1.2060290
  H       -1.9715140    -0.2387610     0.4526620
  H        1.9715140     0.2387610     0.4526620
  H        1.3357820     0.1617500    -1.2060290
  H       -0.2387610     1.9715140    -0.4526620
  H       -0.1617500     1.3357820     1.2060290
units angstrom
no_reorient  #important for SAPT in psi4, default
symmetry c1  #important for SAPT in psi4, default
}

set PROPERTIES_ORIGIN ["COM"]
properties('MP2/aug-cc-pvtz', properties = ['dipole'])
--------------------------------------------------------------------------

    Molecular point group: c1
  Charge       = 0
  Multiplicity = 1
  Basis Set: AUG-CC-PVTZ
    Blend: AUG-CC-PVTZ
  Basis Set: (AUG-CC-PVTZ AUX)
    Blend: AUG-CC-PVTZ-JKFIT

    Orbital Energies [Eh]
    ---------------------

    Doubly Occupied:

       1A    -11.217450     2A    -11.216885     3A    -11.215799
       4A    -11.215579     5A     -1.122375     6A     -0.891402
       7A     -0.888616     8A     -0.750182     9A     -0.647143
      10A     -0.639679    11A     -0.534907    12A     -0.532281
      13A     -0.481866    14A     -0.452296    15A     -0.437613
      16A     -0.432310

  @DF-RHF Final Energy:  -156.15041213836670

   => Energetics <=

    Nuclear Repulsion Energy =            127.2630328154007913
    One-Electron Energy =                -461.4741261069968346
    Two-Electron Energy =                 178.0606811532293534
    Total Energy =                       -156.1504121383667041
  Basis Set: (AUG-CC-PVTZ AUX)
    Blend: AUG-CC-PVTZ-RI
    Molecular point group: c1

    Geometry (in Angstrom), charge = 0, multiplicity = 1:

       Center              X                  Y                   Z               Mass
    ------------   -----------------  -----------------  -----------------  -----------------
         C            0.124818131911    -1.074006049663     0.145466611477    12.000000000000
         C           -1.059947968089    -0.128334849663    -0.145823788523    12.000000000000
         C            1.067648031911     0.129267150337    -0.145823788523    12.000000000000
         C           -0.135104968089     1.072760550337     0.145466611477    12.000000000000
         H            0.165600031911    -1.335315849663     1.207092211477     1.007825032230
         H            0.242611031911    -1.971047849663    -0.451598788523     1.007825032230
         H           -1.331931968089    -0.161283849663    -1.204965788523     1.007825032230
         H           -1.967663968089    -0.238294849663     0.453725211477     1.007825032230
         H            1.975364031911     0.239227150337     0.453725211477     1.007825032230
         H            1.339632031911     0.162216150337    -1.204965788523     1.007825032230
         H           -0.234910968089     1.971980150337    -0.451598788523     1.007825032230
         H           -0.157899968089     1.336248150337     1.207092211477     1.007825032230

  Basis Set: AUG-CC-PVTZ
    Blend: AUG-CC-PVTZ
  Basis Set: (AUG-CC-PVTZ AUX)
    Blend: AUG-CC-PVTZ-JKFIT
	 Reference Energy          =    -156.1504121383667041 [Eh]
	 Singles Energy            =      -0.0000000000000000 [Eh]
	 Same-Spin Energy          =      -0.1661121971289345 [Eh]
	 Opposite-Spin Energy      =      -0.6116611387915125 [Eh]
	 Correlation Energy        =      -0.7777733359204470 [Eh]
	 Total Energy              =    -156.9281854742871474 [Eh]

	 ================> DF-SCS-MP2 Energies <==================
	-----------------------------------------------------------
	 SCS Same-Spin Scale       =       0.3333333333333333 [-]
	 SCS Opposite-Spin Scale   =       1.2000000000000000 [-]
	 SCS Same-Spin Energy      =      -0.0553707323763115 [Eh]
	 SCS Opposite-Spin Energy  =      -0.7339933665498150 [Eh]
	 SCS Correlation Energy    =      -0.7893640989261265 [Eh]
	 SCS Total Energy          =    -156.9397762372928185 [Eh]
	-----------------------------------------------------------

  Dipole Moment: [D]
     X:     0.0032      Y:     0.0004      Z:    -0.0113     Total:     0.0117

*** Psi4 exiting successfully. Buy a developer a beer!
