                               Psi4 1.3.2 release

  ==> Input File <==

--------------------------------------------------------------------------
#psi4
#
memory 32 gb

molecule  {
0 1
  C        0.1592184    -1.0203974     0.1565958
  C       -1.0637980    -0.1288010    -0.1468870
  C        1.0637980     0.1288010    -0.1468870
  C       -0.0889048     1.0289107     0.1565958
  H        0.1617500    -1.3357820     1.2060290
  H        0.2387610    -1.9715140    -0.4526620
  H       -1.3357820    -0.1617500    -1.2060290
  H       -1.9715140    -0.2387610     0.4526620
  H        1.9715140     0.2387610     0.4526620
  H        1.3357820     0.1617500    -1.2060290
  H       -0.2387610     1.9715140    -0.4526620
  H       -0.1617500     1.3357820     1.2060290
units angstrom
no_reorient  #important for SAPT in psi4, default
symmetry c1  #important for SAPT in psi4, default
}

set PROPERTIES_ORIGIN ["COM"]
properties('MP2/aug-cc-pvtz', properties = ['dipole'])
--------------------------------------------------------------------------

    Molecular point group: c1
  Charge       = 0
  Multiplicity = 1
  Basis Set: AUG-CC-PVTZ
    Blend: AUG-CC-PVTZ
  Basis Set: (AUG-CC-PVTZ AUX)
    Blend: AUG-CC-PVTZ-JKFIT

    Orbital Energies [Eh]
    ---------------------

    Doubly Occupied:

       1A    -11.218775     2A    -11.218698     3A    -11.214164
       4A    -11.211594     5A     -1.142602     6A     -0.896865
       7A     -0.885327     8A     -0.747893     9A     -0.651999
      10A     -0.639455    11A     -0.535362    12A     -0.526015
      13A     -0.494857    14A     -0.451897    15A     -0.444701
      16A     -0.422626

  @DF-RHF Final Energy:  -156.14321044906006

   => Energetics <=

    Nuclear Repulsion Energy =            128.6275831910639624
    One-Electron Energy =                -464.1359295336070545
    Two-Electron Energy =                 179.3651358934830000
    Total Energy =                       -156.1432104490600636
  Basis Set: (AUG-CC-PVTZ AUX)
    Blend: AUG-CC-PVTZ-RI
    Molecular point group: c1

    Geometry (in Angstrom), charge = 0, multiplicity = 1:

       Center              X                  Y                   Z               Mass
    ------------   -----------------  -----------------  -----------------  -----------------
         C            0.144168024239    -1.022219641557     0.152439531847    12.000000000000
         C           -1.078848375761    -0.130623241557    -0.151043268153    12.000000000000
         C            1.048747624239     0.126978758443    -0.151043268153    12.000000000000
         C           -0.103955175761     1.027088458443     0.152439531847    12.000000000000
         H            0.146699624239    -1.337604241557     1.201872731847     1.007825032230
         H            0.223710624239    -1.973336241557    -0.456818268153     1.007825032230
         H           -1.350832375761    -0.163572241557    -1.210185268153     1.007825032230
         H           -1.986564375761    -0.240583241557     0.448505731847     1.007825032230
         H            1.956463624239     0.236938758443     0.448505731847     1.007825032230
         H            1.320731624239     0.159927758443    -1.210185268153     1.007825032230
         H           -0.253811375761     1.969691758443    -0.456818268153     1.007825032230
         H           -0.176800375761     1.333959758443     1.201872731847     1.007825032230

  Basis Set: AUG-CC-PVTZ
    Blend: AUG-CC-PVTZ
  Basis Set: (AUG-CC-PVTZ AUX)
    Blend: AUG-CC-PVTZ-JKFIT
	 Reference Energy          =    -156.1432104490600636 [Eh]
	 Singles Energy            =      -0.0000000000000000 [Eh]
	 Same-Spin Energy          =      -0.1669159530504244 [Eh]
	 Opposite-Spin Energy      =      -0.6119795633592152 [Eh]
	 Correlation Energy        =      -0.7788955164096396 [Eh]
	 Total Energy              =    -156.9221059654697115 [Eh]

	 ================> DF-SCS-MP2 Energies <==================
	-----------------------------------------------------------
	 SCS Same-Spin Scale       =       0.3333333333333333 [-]
	 SCS Opposite-Spin Scale   =       1.2000000000000000 [-]
	 SCS Same-Spin Energy      =      -0.0556386510168081 [Eh]
	 SCS Opposite-Spin Energy  =      -0.7343754760310582 [Eh]
	 SCS Correlation Energy    =      -0.7900141270478663 [Eh]
	 SCS Total Energy          =    -156.9332245761079321 [Eh]
	-----------------------------------------------------------

  Dipole Moment: [D]
     X:    -0.0063      Y:    -0.0008      Z:     0.0502     Total:     0.0506

*** Psi4 exiting successfully. Buy a developer a beer!
