                               Psi4 1.3.2 release

  ==> Input File <==

--------------------------------------------------------------------------
#psi4
#
memory 32 gb

molecule  {
0 1
  C        0.1288010    -1.0637980     0.1468870
  C       -1.0637980    -0.1288010    -0.1468870
  C        1.0637980     0.1288010    -0.1468870
  C       -0.1288010     1.0637980     0.1468870
  H        0.1617500    -1.3357820     1.2060290
  H        0.2488178    -2.0545326    -0.5074960
  H       -1.3357820    -0.1617500    -1.2060290
  H       -1.9715140    -0.2387610     0.4526620
  H        1.9715140     0.2387610     0.4526620
  H        1.3357820     0.1617500    -1.2060290
  H       -0.2387610     1.9715140    -0.4526620
  H       -0.1617500     1.3357820     1.2060290
units angstrom
no_reorient  #important for SAPT in psi4, default
symmetry c1  #important for SAPT in psi4, default
}

set PROPERTIES_ORIGIN ["COM"]
properties('MP2/aug-cc-pvtz', properties = ['dipole'])
--------------------------------------------------------------------------

    Molecular point group: c1
  Charge       = 0
  Multiplicity = 1
  Basis Set: AUG-CC-PVTZ
    Blend: AUG-CC-PVTZ
  Basis Set: (AUG-CC-PVTZ AUX)
    Blend: AUG-CC-PVTZ-JKFIT

    Orbital Energies [Eh]
    ---------------------

    Doubly Occupied:

       1A    -11.228322     2A    -11.218008     3A    -11.217708
       4A    -11.217185     5A     -1.126571     6A     -0.891378
       7A     -0.884360     8A     -0.747628     9A     -0.645409
      10A     -0.633637    11A     -0.533859    12A     -0.528706
      13A     -0.484966    14A     -0.450635    15A     -0.437457
      16A     -0.431419

  @DF-RHF Final Energy:  -156.14401712051281

   => Energetics <=

    Nuclear Repulsion Energy =            127.1209761908050524
    One-Electron Energy =                -461.1754912178829500
    Two-Electron Energy =                 177.9104979065650980
    Total Energy =                       -156.1440171205128138
  Basis Set: (AUG-CC-PVTZ AUX)
    Blend: AUG-CC-PVTZ-RI
    Molecular point group: c1

    Geometry (in Angstrom), charge = 0, multiplicity = 1:

       Center              X                  Y                   Z               Mass
    ------------   -----------------  -----------------  -----------------  -----------------
         C            0.128620211119    -1.062305592890     0.147872738756    12.000000000000
         C           -1.063978788881    -0.127308592890    -0.145901261244    12.000000000000
         C            1.063617211119     0.130293407110    -0.145901261244    12.000000000000
         C           -0.128981788881     1.065290407110     0.147872738756    12.000000000000
         H            0.161569211119    -1.334289592890     1.207014738756     1.007825032230
         H            0.248637011119    -2.053040192890    -0.506510261244     1.007825032230
         H           -1.335962788881    -0.160257592890    -1.205043261244     1.007825032230
         H           -1.971694788881    -0.237268592890     0.453647738756     1.007825032230
         H            1.971333211119     0.240253407110     0.453647738756     1.007825032230
         H            1.335601211119     0.163242407110    -1.205043261244     1.007825032230
         H           -0.238941788881     1.973006407110    -0.451676261244     1.007825032230
         H           -0.161930788881     1.337274407110     1.207014738756     1.007825032230

  Basis Set: AUG-CC-PVTZ
    Blend: AUG-CC-PVTZ
  Basis Set: (AUG-CC-PVTZ AUX)
    Blend: AUG-CC-PVTZ-JKFIT
	 Reference Energy          =    -156.1440171205128138 [Eh]
	 Singles Energy            =      -0.0000000000000000 [Eh]
	 Same-Spin Energy          =      -0.1662249367247714 [Eh]
	 Opposite-Spin Energy      =      -0.6122678821542686 [Eh]
	 Correlation Energy        =      -0.7784928188790401 [Eh]
	 Total Energy              =    -156.9225099393918583 [Eh]

	 ================> DF-SCS-MP2 Energies <==================
	-----------------------------------------------------------
	 SCS Same-Spin Scale       =       0.3333333333333333 [-]
	 SCS Opposite-Spin Scale   =       1.2000000000000000 [-]
	 SCS Same-Spin Energy      =      -0.0554083122415905 [Eh]
	 SCS Opposite-Spin Energy  =      -0.7347214585851224 [Eh]
	 SCS Correlation Energy    =      -0.7901297708267129 [Eh]
	 SCS Total Energy          =    -156.9341468913395374 [Eh]
	-----------------------------------------------------------

  Dipole Moment: [D]
     X:    -0.0123      Y:     0.1019      Z:     0.0257     Total:     0.1058

*** Psi4 exiting successfully. Buy a developer a beer!
