                               Psi4 1.3.2 release

  ==> Input File <==

--------------------------------------------------------------------------
#psi4
#
memory 32 gb

molecule  {
0 1
  C        0.1288010    -1.0637980     0.1468870
  C       -1.0637980    -0.1288010    -0.1468870
  C        1.0637980     0.1288010    -0.1468870
  C       -0.1288010     1.0637980     0.1468870
  H        0.1617500    -1.3357820     1.2060290
  H        0.2387610    -1.9715140    -0.4526620
  H       -1.3357820    -0.1617500    -1.2060290
  H       -1.9715140    -0.2387610     0.4526620
  H        1.9715140     0.2387610     0.4526620
  H        1.3357820     0.1617500    -1.2060290
  H       -0.2387610     1.9715140    -0.4526620
  H       -0.1617500     1.3357820     1.2060290
units angstrom
no_reorient  #important for SAPT in psi4, default
symmetry c1  #important for SAPT in psi4, default
}

set PROPERTIES_ORIGIN ["COM"]
properties('MP2/aug-cc-pvtz', properties = ['dipole'])
--------------------------------------------------------------------------

    Molecular point group: c1
  Charge       = 0
  Multiplicity = 1
  Basis Set: AUG-CC-PVTZ
    Blend: AUG-CC-PVTZ
  Basis Set: (AUG-CC-PVTZ AUX)
    Blend: AUG-CC-PVTZ-JKFIT

    Orbital Energies [Eh]
    ---------------------

    Doubly Occupied:

       1A    -11.216751     2A    -11.216186     3A    -11.216186
       4A    -11.215619     5A     -1.125998     6A     -0.890144
       7A     -0.890144     8A     -0.749549     9A     -0.646129
      10A     -0.641412    11A     -0.532811    12A     -0.532811
      13A     -0.483732    14A     -0.451332    15A     -0.435829
      16A     -0.435829

  @DF-RHF Final Energy:  -156.15055900292376

   => Energetics <=

    Nuclear Repulsion Energy =            127.5263728016705329
    One-Electron Energy =                -461.9929396724488697
    Two-Electron Energy =                 178.3160078678546085
    Total Energy =                       -156.1505590029237567
  Basis Set: (AUG-CC-PVTZ AUX)
    Blend: AUG-CC-PVTZ-RI
    Molecular point group: c1

    Geometry (in Angstrom), charge = 0, multiplicity = 1:

       Center              X                  Y                   Z               Mass
    ------------   -----------------  -----------------  -----------------  -----------------
         C            0.128801000000    -1.063798000000     0.146887000000    12.000000000000
         C           -1.063798000000    -0.128801000000    -0.146887000000    12.000000000000
         C            1.063798000000     0.128801000000    -0.146887000000    12.000000000000
         C           -0.128801000000     1.063798000000     0.146887000000    12.000000000000
         H            0.161750000000    -1.335782000000     1.206029000000     1.007825032230
         H            0.238761000000    -1.971514000000    -0.452662000000     1.007825032230
         H           -1.335782000000    -0.161750000000    -1.206029000000     1.007825032230
         H           -1.971514000000    -0.238761000000     0.452662000000     1.007825032230
         H            1.971514000000     0.238761000000     0.452662000000     1.007825032230
         H            1.335782000000     0.161750000000    -1.206029000000     1.007825032230
         H           -0.238761000000     1.971514000000    -0.452662000000     1.007825032230
         H           -0.161750000000     1.335782000000     1.206029000000     1.007825032230

  Basis Set: AUG-CC-PVTZ
    Blend: AUG-CC-PVTZ
  Basis Set: (AUG-CC-PVTZ AUX)
    Blend: AUG-CC-PVTZ-JKFIT
	 Reference Energy          =    -156.1505590029237567 [Eh]
	 Singles Energy            =      -0.0000000000000000 [Eh]
	 Same-Spin Energy          =      -0.1662135212823757 [Eh]
	 Opposite-Spin Energy      =      -0.6116206248558704 [Eh]
	 Correlation Energy        =      -0.7778341461382461 [Eh]
	 Total Energy              =    -156.9283931490620034 [Eh]

	 ================> DF-SCS-MP2 Energies <==================
	-----------------------------------------------------------
	 SCS Same-Spin Scale       =       0.3333333333333333 [-]
	 SCS Opposite-Spin Scale   =       1.2000000000000000 [-]
	 SCS Same-Spin Energy      =      -0.0554045070941252 [Eh]
	 SCS Opposite-Spin Energy  =      -0.7339447498270445 [Eh]
	 SCS Correlation Energy    =      -0.7893492569211698 [Eh]
	 SCS Total Energy          =    -156.9399082598449127 [Eh]
	-----------------------------------------------------------

  Dipole Moment: [D]
     X:     0.0000      Y:    -0.0000      Z:     0.0000     Total:     0.0000

*** Psi4 exiting successfully. Buy a developer a beer!
