                               Psi4 1.3.2 release

  ==> Input File <==

--------------------------------------------------------------------------
#psi4
#
memory 32 gb

molecule  {
0 1
  C        0.1294283    -1.0707827     0.1208745
  C       -1.0637980    -0.1288010    -0.1468870
  C        1.0637980     0.1288010    -0.1468870
  C       -0.1288010     1.0637980     0.1468870
  H        0.1617500    -1.3357820     1.2060290
  H        0.2387610    -1.9715140    -0.4526620
  H       -1.3217624    -0.1743517    -1.2090651
  H       -1.9715140    -0.2387610     0.4526620
  H        1.9715140     0.2387610     0.4526620
  H        1.3357820     0.1617500    -1.2060290
  H       -0.2387610     1.9715140    -0.4526620
  H       -0.1617500     1.3357820     1.2060290
units angstrom
no_reorient  #important for SAPT in psi4, default
symmetry c1  #important for SAPT in psi4, default
}

set PROPERTIES_ORIGIN ["COM"]
properties('MP2/aug-cc-pvtz', properties = ['dipole'])
--------------------------------------------------------------------------

    Molecular point group: c1
  Charge       = 0
  Multiplicity = 1
  Basis Set: AUG-CC-PVTZ
    Blend: AUG-CC-PVTZ
  Basis Set: (AUG-CC-PVTZ AUX)
    Blend: AUG-CC-PVTZ-JKFIT

    Orbital Energies [Eh]
    ---------------------

    Doubly Occupied:

       1A    -11.216967     2A    -11.216476     3A    -11.216316
       4A    -11.215820     5A     -1.125668     6A     -0.890829
       7A     -0.890061     8A     -0.748199     9A     -0.648051
      10A     -0.641895    11A     -0.532917    12A     -0.530264
      13A     -0.484464    14A     -0.449948    15A     -0.437534
      16A     -0.435125

  @DF-RHF Final Energy:  -156.14962375569377

   => Energetics <=

    Nuclear Repulsion Energy =            127.5009868497187711
    One-Electron Energy =                -461.9401575423485156
    Two-Electron Energy =                 178.2895469369360057
    Total Energy =                       -156.1496237556937672
  Basis Set: (AUG-CC-PVTZ AUX)
    Blend: AUG-CC-PVTZ-RI
    Molecular point group: c1

    Geometry (in Angstrom), charge = 0, multiplicity = 1:

       Center              X                  Y                   Z               Mass
    ------------   -----------------  -----------------  -----------------  -----------------
         C            0.129042001403    -1.069061111842     0.126496962321    12.000000000000
         C           -1.064184298597    -0.127079411842    -0.141264537679    12.000000000000
         C            1.063411701403     0.130522588158    -0.141264537679    12.000000000000
         C           -0.129187298597     1.065519588158     0.152509462321    12.000000000000
         H            0.161363701403    -1.334060411842     1.211651462321     1.007825032230
         H            0.238374701403    -1.969792411842    -0.447039537679     1.007825032230
         H           -1.322148698597    -0.172630111842    -1.203442637679     1.007825032230
         H           -1.971900298597    -0.237039411842     0.458284462321     1.007825032230
         H            1.971127701403     0.240482588158     0.458284462321     1.007825032230
         H            1.335395701403     0.163471588158    -1.200406537679     1.007825032230
         H           -0.239147298597     1.973235588158    -0.447039537679     1.007825032230
         H           -0.162136298597     1.337503588158     1.211651462321     1.007825032230

  Basis Set: AUG-CC-PVTZ
    Blend: AUG-CC-PVTZ
  Basis Set: (AUG-CC-PVTZ AUX)
    Blend: AUG-CC-PVTZ-JKFIT
	 Reference Energy          =    -156.1496237556937672 [Eh]
	 Singles Energy            =      -0.0000000000000000 [Eh]
	 Same-Spin Energy          =      -0.1662458555358240 [Eh]
	 Opposite-Spin Energy      =      -0.6117403036982008 [Eh]
	 Correlation Energy        =      -0.7779861592340248 [Eh]
	 Total Energy              =    -156.9276099149277854 [Eh]

	 ================> DF-SCS-MP2 Energies <==================
	-----------------------------------------------------------
	 SCS Same-Spin Scale       =       0.3333333333333333 [-]
	 SCS Opposite-Spin Scale   =       1.2000000000000000 [-]
	 SCS Same-Spin Energy      =      -0.0554152851786080 [Eh]
	 SCS Opposite-Spin Energy  =      -0.7340883644378409 [Eh]
	 SCS Correlation Energy    =      -0.7895036496164489 [Eh]
	 SCS Total Energy          =    -156.9391274053102165 [Eh]
	-----------------------------------------------------------

  Dipole Moment: [D]
     X:     0.0028      Y:    -0.0077      Z:    -0.0190     Total:     0.0207

*** Psi4 exiting successfully. Buy a developer a beer!
