                               Psi4 1.3.2 release

  ==> Input File <==

--------------------------------------------------------------------------
#psi4
#
memory 32 gb

molecule  {
0 1
  C        0.1288010    -1.0637980     0.1468870
  C       -1.2183161    -0.0076589    -0.1849496
  C        1.0637980     0.1288010    -0.1468870
  C       -0.1288010     1.0637980     0.1468870
  H        0.1617500    -1.3357820     1.2060290
  H        0.2387610    -1.9715140    -0.4526620
  H       -1.3357820    -0.1617500    -1.2060290
  H       -1.9715140    -0.2387610     0.4526620
  H        1.9715140     0.2387610     0.4526620
  H        1.3357820     0.1617500    -1.2060290
  H       -0.2387610     1.9715140    -0.4526620
  H       -0.1617500     1.3357820     1.2060290
units angstrom
no_reorient  #important for SAPT in psi4, default
symmetry c1  #important for SAPT in psi4, default
}

set PROPERTIES_ORIGIN ["COM"]
properties('MP2/aug-cc-pvtz', properties = ['dipole'])
--------------------------------------------------------------------------

    Molecular point group: c1
  Charge       = 0
  Multiplicity = 1
  Basis Set: AUG-CC-PVTZ
    Blend: AUG-CC-PVTZ
  Basis Set: (AUG-CC-PVTZ AUX)
    Blend: AUG-CC-PVTZ-JKFIT

    Orbital Energies [Eh]
    ---------------------

    Doubly Occupied:

       1A    -11.224485     2A    -11.222751     3A    -11.216410
       4A    -11.215398     5A     -1.102835     6A     -0.904352
       7A     -0.876929     8A     -0.758069     9A     -0.653623
      10A     -0.625341    11A     -0.559547    12A     -0.530548
      13A     -0.482319    14A     -0.463684    15A     -0.446054
      16A     -0.382363

  @DF-RHF Final Energy:  -156.12246425219678

   => Energetics <=

    Nuclear Repulsion Energy =            125.4896290065678812
    One-Electron Energy =                -457.8947685764181870
    Two-Electron Energy =                 176.2826753176535135
    Total Energy =                       -156.1224642521967780
  Basis Set: (AUG-CC-PVTZ AUX)
    Blend: AUG-CC-PVTZ-RI
    Molecular point group: c1

    Geometry (in Angstrom), charge = 0, multiplicity = 1:

       Center              X                  Y                   Z               Mass
    ------------   -----------------  -----------------  -----------------  -----------------
         C            0.161875049214    -1.089728035234     0.155034164026    12.000000000000
         C           -1.185242050786    -0.033588935234    -0.176802435974    12.000000000000
         C            1.096872049214     0.102870964766    -0.138739835974    12.000000000000
         C           -0.095726950786     1.037867964766     0.155034164026    12.000000000000
         H            0.194824049214    -1.361712035234     1.214176164026     1.007825032230
         H            0.271835049214    -1.997444035234    -0.444514835974     1.007825032230
         H           -1.302707950786    -0.187680035234    -1.197881835974     1.007825032230
         H           -1.938439950786    -0.264691035234     0.460809164026     1.007825032230
         H            2.004588049214     0.212830964766     0.460809164026     1.007825032230
         H            1.368856049214     0.135819964766    -1.197881835974     1.007825032230
         H           -0.205686950786     1.945583964766    -0.444514835974     1.007825032230
         H           -0.128675950786     1.309851964766     1.214176164026     1.007825032230

  Basis Set: AUG-CC-PVTZ
    Blend: AUG-CC-PVTZ
  Basis Set: (AUG-CC-PVTZ AUX)
    Blend: AUG-CC-PVTZ-JKFIT
	 Reference Energy          =    -156.1224642521967780 [Eh]
	 Singles Energy            =      -0.0000000000000000 [Eh]
	 Same-Spin Energy          =      -0.1664829925976819 [Eh]
	 Opposite-Spin Energy      =      -0.6140875482694638 [Eh]
	 Correlation Energy        =      -0.7805705408671457 [Eh]
	 Total Energy              =    -156.9030347930639095 [Eh]

	 ================> DF-SCS-MP2 Energies <==================
	-----------------------------------------------------------
	 SCS Same-Spin Scale       =       0.3333333333333333 [-]
	 SCS Opposite-Spin Scale   =       1.2000000000000000 [-]
	 SCS Same-Spin Energy      =      -0.0554943308658940 [Eh]
	 SCS Opposite-Spin Energy  =      -0.7369050579233565 [Eh]
	 SCS Correlation Energy    =      -0.7923993887892504 [Eh]
	 SCS Total Energy          =    -156.9148636409860273 [Eh]
	-----------------------------------------------------------

  Dipole Moment: [D]
     X:     0.0357      Y:    -0.0441      Z:     0.0442     Total:     0.0719

*** Psi4 exiting successfully. Buy a developer a beer!
