                               Psi4 1.3.2 release

  ==> Input File <==

--------------------------------------------------------------------------
#psi4
#
memory 32 gb

molecule  {
0 1
  C        0.1288010    -1.0637980     0.1468870
  C       -1.0637980    -0.1288010    -0.1468870
  C        1.0637980     0.1288010    -0.1468870
  C       -0.1288010     1.0637980     0.1468870
  H        0.1639679    -1.3540910     1.2010862
  H        0.2400026    -1.9817634    -0.4366130
  H       -1.3357820    -0.1617500    -1.2060290
  H       -1.9715140    -0.2387610     0.4526620
  H        1.9715140     0.2387610     0.4526620
  H        1.3357820     0.1617500    -1.2060290
  H       -0.2387610     1.9715140    -0.4526620
  H       -0.1617500     1.3357820     1.2060290
units angstrom
no_reorient  #important for SAPT in psi4, default
symmetry c1  #important for SAPT in psi4, default
}

set PROPERTIES_ORIGIN ["COM"]
properties('MP2/aug-cc-pvtz', properties = ['dipole'])
--------------------------------------------------------------------------

    Molecular point group: c1
  Charge       = 0
  Multiplicity = 1
  Basis Set: AUG-CC-PVTZ
    Blend: AUG-CC-PVTZ
  Basis Set: (AUG-CC-PVTZ AUX)
    Blend: AUG-CC-PVTZ-JKFIT

    Orbital Energies [Eh]
    ---------------------

    Doubly Occupied:

       1A    -11.216923     2A    -11.216481     3A    -11.216199
       4A    -11.215737     5A     -1.125816     6A     -0.890400
       7A     -0.890220     8A     -0.750191     9A     -0.645183
      10A     -0.642340    11A     -0.532861    12A     -0.531116
      13A     -0.483736    14A     -0.450684    15A     -0.437345
      16A     -0.435921

  @DF-RHF Final Energy:  -156.15046114192455

   => Energetics <=

    Nuclear Repulsion Energy =            127.4950090512952414
    One-Electron Energy =                -461.9286340961181736
    Two-Electron Energy =                 178.2831639028983659
    Total Energy =                       -156.1504611419245521
  Basis Set: (AUG-CC-PVTZ AUX)
    Blend: AUG-CC-PVTZ-RI
    Molecular point group: c1

    Geometry (in Angstrom), charge = 0, multiplicity = 1:

       Center              X                  Y                   Z               Mass
    ------------   -----------------  -----------------  -----------------  -----------------
         C            0.128738809330    -1.063284611925     0.146687346286    12.000000000000
         C           -1.063860190670    -0.128287611925    -0.147086653714    12.000000000000
         C            1.063735809330     0.129314388075    -0.147086653714    12.000000000000
         C           -0.128863190670     1.064311388075     0.146687346286    12.000000000000
         H            0.163905709330    -1.353577611925     1.200886546286     1.007825032230
         H            0.239940409330    -1.981250011925    -0.436812653714     1.007825032230
         H           -1.335844190670    -0.161236611925    -1.206228653714     1.007825032230
         H           -1.971576190670    -0.238247611925     0.452462346286     1.007825032230
         H            1.971451809330     0.239274388075     0.452462346286     1.007825032230
         H            1.335719809330     0.162263388075    -1.206228653714     1.007825032230
         H           -0.238823190670     1.972027388075    -0.452861653714     1.007825032230
         H           -0.161812190670     1.336295388075     1.205829346286     1.007825032230

  Basis Set: AUG-CC-PVTZ
    Blend: AUG-CC-PVTZ
  Basis Set: (AUG-CC-PVTZ AUX)
    Blend: AUG-CC-PVTZ-JKFIT
	 Reference Energy          =    -156.1504611419245521 [Eh]
	 Singles Energy            =      -0.0000000000000000 [Eh]
	 Same-Spin Energy          =      -0.1661971440035956 [Eh]
	 Opposite-Spin Energy      =      -0.6115635469300795 [Eh]
	 Correlation Energy        =      -0.7777606909336752 [Eh]
	 Total Energy              =    -156.9282218328582132 [Eh]

	 ================> DF-SCS-MP2 Energies <==================
	-----------------------------------------------------------
	 SCS Same-Spin Scale       =       0.3333333333333333 [-]
	 SCS Opposite-Spin Scale   =       1.2000000000000000 [-]
	 SCS Same-Spin Energy      =      -0.0553990480011985 [Eh]
	 SCS Opposite-Spin Energy  =      -0.7338762563160954 [Eh]
	 SCS Correlation Energy    =      -0.7892753043172940 [Eh]
	 SCS Total Energy          =    -156.9397364462418523 [Eh]
	-----------------------------------------------------------

  Dipole Moment: [D]
     X:     0.0004      Y:    -0.0032      Z:     0.0040     Total:     0.0052

*** Psi4 exiting successfully. Buy a developer a beer!
