                               Psi4 1.3.2 release

  ==> Input File <==

--------------------------------------------------------------------------
#psi4
#
memory 32 gb

molecule  {
0 1
  C        0.1295925    -1.0838894     0.0686129
  C       -1.0637980    -0.1288010    -0.1468870
  C        1.0637980     0.1288010    -0.1468870
  C       -0.1288010     1.0637980     0.1468870
  H        0.1617500    -1.3357820     1.2060290
  H        0.2387610    -1.9715140    -0.4526620
  H       -1.2934916    -0.1995095    -1.2141657
  H       -1.9715140    -0.2387610     0.4526620
  H        1.9715140     0.2387610     0.4526620
  H        1.3357820     0.1617500    -1.2060290
  H       -0.2387610     1.9715140    -0.4526620
  H       -0.1617500     1.3357820     1.2060290
units angstrom
no_reorient  #important for SAPT in psi4, default
symmetry c1  #important for SAPT in psi4, default
}

set PROPERTIES_ORIGIN ["COM"]
properties('MP2/aug-cc-pvtz', properties = ['dipole'])
--------------------------------------------------------------------------

    Molecular point group: c1
  Charge       = 0
  Multiplicity = 1
  Basis Set: AUG-CC-PVTZ
    Blend: AUG-CC-PVTZ
  Basis Set: (AUG-CC-PVTZ AUX)
    Blend: AUG-CC-PVTZ-JKFIT

    Orbital Energies [Eh]
    ---------------------

    Doubly Occupied:

       1A    -11.217881     2A    -11.217496     3A    -11.217062
       4A    -11.216615     5A     -1.125266     6A     -0.893079
       7A     -0.890129     8A     -0.747040     9A     -0.652486
      10A     -0.642681    11A     -0.534222    12A     -0.525293
      13A     -0.485320    14A     -0.455615    15A     -0.434066
      16A     -0.430220

  @DF-RHF Final Energy:  -156.14231524311583

   => Energetics <=

    Nuclear Repulsion Energy =            127.4498886994901738
    One-Electron Energy =                -461.8154700854375960
    Two-Electron Energy =                 178.2232661428315623
    Total Energy =                       -156.1423152431158314
  Basis Set: (AUG-CC-PVTZ AUX)
    Blend: AUG-CC-PVTZ-RI
    Molecular point group: c1

    Geometry (in Angstrom), charge = 0, multiplicity = 1:

       Center              X                  Y                   Z               Mass
    ------------   -----------------  -----------------  -----------------  -----------------
         C            0.128662837025    -1.078910113131     0.085513464112    12.000000000000
         C           -1.064727662975    -0.123821713131    -0.129986435888    12.000000000000
         C            1.062868337025     0.133780286869    -0.129986435888    12.000000000000
         C           -0.129730662975     1.068777286869     0.163787564112    12.000000000000
         H            0.160820337025    -1.330802713131     1.222929564112     1.007825032230
         H            0.237831337025    -1.966534713131    -0.435761435888     1.007825032230
         H           -1.294421262975    -0.194530213131    -1.197265135888     1.007825032230
         H           -1.972443662975    -0.233781713131     0.469562564112     1.007825032230
         H            1.970584337025     0.243740286869     0.469562564112     1.007825032230
         H            1.334852337025     0.166729286869    -1.189128435888     1.007825032230
         H           -0.239690662975     1.976493286869    -0.435761435888     1.007825032230
         H           -0.162679662975     1.340761286869     1.222929564112     1.007825032230

  Basis Set: AUG-CC-PVTZ
    Blend: AUG-CC-PVTZ
  Basis Set: (AUG-CC-PVTZ AUX)
    Blend: AUG-CC-PVTZ-JKFIT
	 Reference Energy          =    -156.1423152431158314 [Eh]
	 Singles Energy            =      -0.0000000000000000 [Eh]
	 Same-Spin Energy          =      -0.1664052667169292 [Eh]
	 Opposite-Spin Energy      =      -0.6122409937927162 [Eh]
	 Correlation Energy        =      -0.7786462605096454 [Eh]
	 Total Energy              =    -156.9209615036254775 [Eh]

	 ================> DF-SCS-MP2 Energies <==================
	-----------------------------------------------------------
	 SCS Same-Spin Scale       =       0.3333333333333333 [-]
	 SCS Opposite-Spin Scale   =       1.2000000000000000 [-]
	 SCS Same-Spin Energy      =      -0.0554684222389764 [Eh]
	 SCS Opposite-Spin Energy  =      -0.7346891925512594 [Eh]
	 SCS Correlation Energy    =      -0.7901576147902358 [Eh]
	 SCS Total Energy          =    -156.9324728579060775 [Eh]
	-----------------------------------------------------------

  Dipole Moment: [D]
     X:     0.0076      Y:    -0.0116      Z:    -0.0617     Total:     0.0633

*** Psi4 exiting successfully. Buy a developer a beer!
