                               Psi4 1.3.2 release

  ==> Input File <==

--------------------------------------------------------------------------
#psi4
#
memory 32 gb

molecule  {
0 1
  C        0.1288010    -1.0637980     0.1468870
  C       -1.0637980    -0.1288010    -0.1468870
  C        1.0637980     0.1288010    -0.1468870
  C       -0.1288010     1.0637980     0.1468870
  H        0.1617500    -1.3357820     1.2060290
  H        0.2588746    -2.1375512    -0.5623301
  H       -1.3357820    -0.1617500    -1.2060290
  H       -1.9715140    -0.2387610     0.4526620
  H        1.9715140     0.2387610     0.4526620
  H        1.3357820     0.1617500    -1.2060290
  H       -0.2387610     1.9715140    -0.4526620
  H       -0.1617500     1.3357820     1.2060290
units angstrom
no_reorient  #important for SAPT in psi4, default
symmetry c1  #important for SAPT in psi4, default
}

set PROPERTIES_ORIGIN ["COM"]
properties('MP2/aug-cc-pvtz', properties = ['dipole'])
--------------------------------------------------------------------------

    Molecular point group: c1
  Charge       = 0
  Multiplicity = 1
  Basis Set: AUG-CC-PVTZ
    Blend: AUG-CC-PVTZ
  Basis Set: (AUG-CC-PVTZ AUX)
    Blend: AUG-CC-PVTZ-JKFIT

    Orbital Energies [Eh]
    ---------------------

    Doubly Occupied:

       1A    -11.239707     2A    -11.219827     3A    -11.219596
       4A    -11.218921     5A     -1.127840     6A     -0.892927
       7A     -0.881051     8A     -0.747005     9A     -0.646924
      10A     -0.626119    11A     -0.535187    12A     -0.524791
      13A     -0.486603    14A     -0.451164    15A     -0.439454
      16A     -0.424567

  @DF-RHF Final Energy:  -156.13057022211302

   => Energetics <=

    Nuclear Repulsion Energy =            126.7609130912933466
    One-Electron Energy =                -460.4196021285670213
    Two-Electron Energy =                 177.5281188151606671
    Total Energy =                       -156.1305702221130218
  Basis Set: (AUG-CC-PVTZ AUX)
    Blend: AUG-CC-PVTZ-RI
    Molecular point group: c1

    Geometry (in Angstrom), charge = 0, multiplicity = 1:

       Center              X                  Y                   Z               Mass
    ------------   -----------------  -----------------  -----------------  -----------------
         C            0.128439422237    -1.060813185780     0.148858479309    12.000000000000
         C           -1.064159577763    -0.125816185780    -0.144915520691    12.000000000000
         C            1.063436422237     0.131785814220    -0.144915520691    12.000000000000
         C           -0.129162577763     1.066782814220     0.148858479309    12.000000000000
         H            0.161388422237    -1.332797185780     1.208000479309     1.007825032230
         H            0.258513022237    -2.134566385780    -0.560358620691     1.007825032230
         H           -1.336143577763    -0.158765185780    -1.204057520691     1.007825032230
         H           -1.971875577763    -0.235776185780     0.454633479309     1.007825032230
         H            1.971152422237     0.241745814220     0.454633479309     1.007825032230
         H            1.335420422237     0.164734814220    -1.204057520691     1.007825032230
         H           -0.239122577763     1.974498814220    -0.450690520691     1.007825032230
         H           -0.162111577763     1.338766814220     1.208000479309     1.007825032230

  Basis Set: AUG-CC-PVTZ
    Blend: AUG-CC-PVTZ
  Basis Set: (AUG-CC-PVTZ AUX)
    Blend: AUG-CC-PVTZ-JKFIT
	 Reference Energy          =    -156.1305702221130218 [Eh]
	 Singles Energy            =      -0.0000000000000000 [Eh]
	 Same-Spin Energy          =      -0.1662371601120858 [Eh]
	 Opposite-Spin Energy      =      -0.6130752014055019 [Eh]
	 Correlation Energy        =      -0.7793123615175876 [Eh]
	 Total Energy              =    -156.9098825836306048 [Eh]

	 ================> DF-SCS-MP2 Energies <==================
	-----------------------------------------------------------
	 SCS Same-Spin Scale       =       0.3333333333333333 [-]
	 SCS Opposite-Spin Scale   =       1.2000000000000000 [-]
	 SCS Same-Spin Energy      =      -0.0554123867040286 [Eh]
	 SCS Opposite-Spin Energy  =      -0.7356902416866022 [Eh]
	 SCS Correlation Energy    =      -0.7911026283906308 [Eh]
	 SCS Total Energy          =    -156.9216728505036542 [Eh]
	-----------------------------------------------------------

  Dipole Moment: [D]
     X:    -0.0273      Y:     0.2258      Z:     0.0603     Total:     0.2353

*** Psi4 exiting successfully. Buy a developer a beer!
