                               Psi4 1.3.2 release

  ==> Input File <==

--------------------------------------------------------------------------
#psi4
#
memory 32 gb

molecule  {
0 1
  C        0.1441937    -1.0422368     0.1517869
  C       -1.0637980    -0.1288010    -0.1468870
  C        1.0637980     0.1288010    -0.1468870
  C       -0.1087074     1.0465334     0.1517869
  H        0.1617500    -1.3357820     1.2060290
  H        0.2387610    -1.9715140    -0.4526620
  H       -1.3357820    -0.1617500    -1.2060290
  H       -1.9715140    -0.2387610     0.4526620
  H        1.9715140     0.2387610     0.4526620
  H        1.3357820     0.1617500    -1.2060290
  H       -0.2387610     1.9715140    -0.4526620
  H       -0.1617500     1.3357820     1.2060290
units angstrom
no_reorient  #important for SAPT in psi4, default
symmetry c1  #important for SAPT in psi4, default
}

set PROPERTIES_ORIGIN ["COM"]
properties('MP2/aug-cc-pvtz', properties = ['dipole'])
--------------------------------------------------------------------------

    Molecular point group: c1
  Charge       = 0
  Multiplicity = 1
  Basis Set: AUG-CC-PVTZ
    Blend: AUG-CC-PVTZ
  Basis Set: (AUG-CC-PVTZ AUX)
    Blend: AUG-CC-PVTZ-JKFIT

    Orbital Energies [Eh]
    ---------------------

    Doubly Occupied:

       1A    -11.217374     2A    -11.217244     3A    -11.215055
       4A    -11.213826     5A     -1.133861     6A     -0.893384
       7A     -0.887690     8A     -0.748547     9A     -0.647599
      10A     -0.641664    11A     -0.534000    12A     -0.528958
      13A     -0.488976    14A     -0.449623    15A     -0.442421
      16A     -0.430163

  @DF-RHF Final Energy:  -156.14851162595104

   => Energetics <=

    Nuclear Repulsion Energy =            128.0670835609492997
    One-Electron Energy =                -463.0504231645108462
    Two-Electron Energy =                 178.8348279776105016
    Total Energy =                       -156.1485116259510448
  Basis Set: (AUG-CC-PVTZ AUX)
    Blend: AUG-CC-PVTZ-RI
    Molecular point group: c1

    Geometry (in Angstrom), charge = 0, multiplicity = 1:

       Center              X                  Y                   Z               Mass
    ------------   -----------------  -----------------  -----------------  -----------------
         C            0.136597983818    -1.043156471934     0.149689287698    12.000000000000
         C           -1.071393716182    -0.129720671934    -0.148984612302    12.000000000000
         C            1.056202283818     0.127881328066    -0.148984612302    12.000000000000
         C           -0.116303116182     1.045613728066     0.149689287698    12.000000000000
         H            0.154154283818    -1.336701671934     1.203931387698     1.007825032230
         H            0.231165283818    -1.972433671934    -0.454759612302     1.007825032230
         H           -1.343377716182    -0.162669671934    -1.208126612302     1.007825032230
         H           -1.979109716182    -0.239680671934     0.450564387698     1.007825032230
         H            1.963918283818     0.237841328066     0.450564387698     1.007825032230
         H            1.328186283818     0.160830328066    -1.208126612302     1.007825032230
         H           -0.246356716182     1.970594328066    -0.454759612302     1.007825032230
         H           -0.169345716182     1.334862328066     1.203931387698     1.007825032230

  Basis Set: AUG-CC-PVTZ
    Blend: AUG-CC-PVTZ
  Basis Set: (AUG-CC-PVTZ AUX)
    Blend: AUG-CC-PVTZ-JKFIT
	 Reference Energy          =    -156.1485116259510448 [Eh]
	 Singles Energy            =      -0.0000000000000000 [Eh]
	 Same-Spin Energy          =      -0.1665040208359718 [Eh]
	 Opposite-Spin Energy      =      -0.6116954533506203 [Eh]
	 Correlation Energy        =      -0.7781994741865921 [Eh]
	 Total Energy              =    -156.9267111001376236 [Eh]

	 ================> DF-SCS-MP2 Energies <==================
	-----------------------------------------------------------
	 SCS Same-Spin Scale       =       0.3333333333333333 [-]
	 SCS Opposite-Spin Scale   =       1.2000000000000000 [-]
	 SCS Same-Spin Energy      =      -0.0555013402786573 [Eh]
	 SCS Opposite-Spin Energy  =      -0.7340345440207443 [Eh]
	 SCS Correlation Energy    =      -0.7895358842994016 [Eh]
	 SCS Total Energy          =    -156.9380475102504420 [Eh]
	-----------------------------------------------------------

  Dipole Moment: [D]
     X:    -0.0045      Y:    -0.0005      Z:     0.0240     Total:     0.0244

*** Psi4 exiting successfully. Buy a developer a beer!
