                               Psi4 1.3.2 release

  ==> Input File <==

--------------------------------------------------------------------------
#psi4
#
memory 32 gb

molecule  {
0 1
  C        0.1130450    -1.0850744     0.1418976
  C       -1.0637980    -0.1288010    -0.1468870
  C        1.0637980     0.1288010    -0.1468870
  C       -0.1491794     1.0806994     0.1418976
  H        0.1617500    -1.3357820     1.2060290
  H        0.2387610    -1.9715140    -0.4526620
  H       -1.3357820    -0.1617500    -1.2060290
  H       -1.9715140    -0.2387610     0.4526620
  H        1.9715140     0.2387610     0.4526620
  H        1.3357820     0.1617500    -1.2060290
  H       -0.2387610     1.9715140    -0.4526620
  H       -0.1617500     1.3357820     1.2060290
units angstrom
no_reorient  #important for SAPT in psi4, default
symmetry c1  #important for SAPT in psi4, default
}

set PROPERTIES_ORIGIN ["COM"]
properties('MP2/aug-cc-pvtz', properties = ['dipole'])
--------------------------------------------------------------------------

    Molecular point group: c1
  Charge       = 0
  Multiplicity = 1
  Basis Set: AUG-CC-PVTZ
    Blend: AUG-CC-PVTZ
  Basis Set: (AUG-CC-PVTZ AUX)
    Blend: AUG-CC-PVTZ-JKFIT

    Orbital Energies [Eh]
    ---------------------

    Doubly Occupied:

       1A    -11.218560     2A    -11.217468     3A    -11.215502
       4A    -11.215376     5A     -1.118946     6A     -0.892679
       7A     -0.887148     8A     -0.750903     9A     -0.648442
      10A     -0.637737    11A     -0.537072    12A     -0.531794
      13A     -0.480753    14A     -0.453220    15A     -0.438494
      16A     -0.428761

  @DF-RHF Final Energy:  -156.14951090160673

   => Energetics <=

    Nuclear Repulsion Energy =            127.0041582361600945
    One-Electron Energy =                -460.9616266582013964
    Two-Electron Energy =                 177.8079575204345701
    Total Energy =                       -156.1495109016067317
  Basis Set: (AUG-CC-PVTZ AUX)
    Blend: AUG-CC-PVTZ-RI
    Molecular point group: c1

    Geometry (in Angstrom), charge = 0, multiplicity = 1:

       Center              X                  Y                   Z               Mass
    ------------   -----------------  -----------------  -----------------  -----------------
         C            0.120779439680    -1.084137946825     0.144033526615    12.000000000000
         C           -1.056063560320    -0.127864546825    -0.144751073385    12.000000000000
         C            1.071532439680     0.129737453175    -0.144751073385    12.000000000000
         C           -0.141444960320     1.081635853175     0.144033526615    12.000000000000
         H            0.169484439680    -1.334845546825     1.208164926615     1.007825032230
         H            0.246495439680    -1.970577546825    -0.450526073385     1.007825032230
         H           -1.328047560320    -0.160813546825    -1.203893073385     1.007825032230
         H           -1.963779560320    -0.237824546825     0.454797926615     1.007825032230
         H            1.979248439680     0.239697453175     0.454797926615     1.007825032230
         H            1.343516439680     0.162686453175    -1.203893073385     1.007825032230
         H           -0.231026560320     1.972450453175    -0.450526073385     1.007825032230
         H           -0.154015560320     1.336718453175     1.208164926615     1.007825032230

  Basis Set: AUG-CC-PVTZ
    Blend: AUG-CC-PVTZ
  Basis Set: (AUG-CC-PVTZ AUX)
    Blend: AUG-CC-PVTZ-JKFIT
	 Reference Energy          =    -156.1495109016067317 [Eh]
	 Singles Energy            =      -0.0000000000000000 [Eh]
	 Same-Spin Energy          =      -0.1660393576841047 [Eh]
	 Opposite-Spin Energy      =      -0.6117533477986499 [Eh]
	 Correlation Energy        =      -0.7777927054827545 [Eh]
	 Total Energy              =    -156.9273036070894989 [Eh]

	 ================> DF-SCS-MP2 Energies <==================
	-----------------------------------------------------------
	 SCS Same-Spin Scale       =       0.3333333333333333 [-]
	 SCS Opposite-Spin Scale   =       1.2000000000000000 [-]
	 SCS Same-Spin Energy      =      -0.0553464525613682 [Eh]
	 SCS Opposite-Spin Energy  =      -0.7341040173583798 [Eh]
	 SCS Correlation Energy    =      -0.7894504699197480 [Eh]
	 SCS Total Energy          =    -156.9389613715264886 [Eh]
	-----------------------------------------------------------

  Dipole Moment: [D]
     X:     0.0070      Y:     0.0009      Z:    -0.0221     Total:     0.0233

*** Psi4 exiting successfully. Buy a developer a beer!
