                               Psi4 1.3.2 release

  ==> Input File <==

--------------------------------------------------------------------------
#psi4
#
memory 32 gb

molecule  {
0 1
  C        0.1288010    -1.0637980     0.1468870
  C       -1.1410570    -0.0682300    -0.1659183
  C        1.0637980     0.1288010    -0.1468870
  C       -0.1288010     1.0637980     0.1468870
  H        0.1617500    -1.3357820     1.2060290
  H        0.2387610    -1.9715140    -0.4526620
  H       -1.3357820    -0.1617500    -1.2060290
  H       -1.9715140    -0.2387610     0.4526620
  H        1.9715140     0.2387610     0.4526620
  H        1.3357820     0.1617500    -1.2060290
  H       -0.2387610     1.9715140    -0.4526620
  H       -0.1617500     1.3357820     1.2060290
units angstrom
no_reorient  #important for SAPT in psi4, default
symmetry c1  #important for SAPT in psi4, default
}

set PROPERTIES_ORIGIN ["COM"]
properties('MP2/aug-cc-pvtz', properties = ['dipole'])
--------------------------------------------------------------------------

    Molecular point group: c1
  Charge       = 0
  Multiplicity = 1
  Basis Set: AUG-CC-PVTZ
    Blend: AUG-CC-PVTZ
  Basis Set: (AUG-CC-PVTZ AUX)
    Blend: AUG-CC-PVTZ-JKFIT

    Orbital Energies [Eh]
    ---------------------

    Doubly Occupied:

       1A    -11.220425     2A    -11.218954     3A    -11.215779
       4A    -11.214462     5A     -1.112983     6A     -0.897493
       7A     -0.882157     8A     -0.754018     9A     -0.648985
      10A     -0.633170    11A     -0.546528    12A     -0.531141
      13A     -0.479496    14A     -0.458508    15A     -0.443649
      16A     -0.410511

  @DF-RHF Final Energy:  -156.14312040505519

   => Energetics <=

    Nuclear Repulsion Energy =            126.5008373524999428
    One-Electron Energy =                -459.9513976738691667
    Two-Electron Energy =                 177.3074399163140242
    Total Energy =                       -156.1431204050551855
  Basis Set: (AUG-CC-PVTZ AUX)
    Blend: AUG-CC-PVTZ-RI
    Molecular point group: c1

    Geometry (in Angstrom), charge = 0, multiplicity = 1:

       Center              X                  Y                   Z               Mass
    ------------   -----------------  -----------------  -----------------  -----------------
         C            0.145338013905    -1.076763006915     0.150960582013    12.000000000000
         C           -1.124519986095    -0.081195006915    -0.161844717987    12.000000000000
         C            1.080335013905     0.115835993085    -0.142813417987    12.000000000000
         C           -0.112263986095     1.050832993085     0.150960582013    12.000000000000
         H            0.178287013905    -1.348747006915     1.210102582013     1.007825032230
         H            0.255298013905    -1.984479006915    -0.448588417987     1.007825032230
         H           -1.319244986095    -0.174715006915    -1.201955417987     1.007825032230
         H           -1.954976986095    -0.251726006915     0.456735582013     1.007825032230
         H            1.988051013905     0.225795993085     0.456735582013     1.007825032230
         H            1.352319013905     0.148784993085    -1.201955417987     1.007825032230
         H           -0.222223986095     1.958548993085    -0.448588417987     1.007825032230
         H           -0.145212986095     1.322816993085     1.210102582013     1.007825032230

  Basis Set: AUG-CC-PVTZ
    Blend: AUG-CC-PVTZ
  Basis Set: (AUG-CC-PVTZ AUX)
    Blend: AUG-CC-PVTZ-JKFIT
	 Reference Energy          =    -156.1431204050551855 [Eh]
	 Singles Energy            =      -0.0000000000000000 [Eh]
	 Same-Spin Energy          =      -0.1660560689315987 [Eh]
	 Opposite-Spin Energy      =      -0.6122451615476188 [Eh]
	 Correlation Energy        =      -0.7783012304792175 [Eh]
	 Total Energy              =    -156.9214216355344149 [Eh]

	 ================> DF-SCS-MP2 Energies <==================
	-----------------------------------------------------------
	 SCS Same-Spin Scale       =       0.3333333333333333 [-]
	 SCS Opposite-Spin Scale   =       1.2000000000000000 [-]
	 SCS Same-Spin Energy      =      -0.0553520229771996 [Eh]
	 SCS Opposite-Spin Energy  =      -0.7346941938571425 [Eh]
	 SCS Correlation Energy    =      -0.7900462168343421 [Eh]
	 SCS Total Energy          =    -156.9331666218895407 [Eh]
	-----------------------------------------------------------

  Dipole Moment: [D]
     X:    -0.0080      Y:    -0.0173      Z:     0.0201     Total:     0.0277

*** Psi4 exiting successfully. Buy a developer a beer!
