                               Psi4 1.3.2 release

  ==> Input File <==

--------------------------------------------------------------------------
#psi4
#
memory 32 gb

molecule  {
0 1
  C        0.1288010    -1.0637980     0.1468870
  C       -0.9092799    -0.2499431    -0.1088244
  C        1.0637980     0.1288010    -0.1468870
  C       -0.1288010     1.0637980     0.1468870
  H        0.1617500    -1.3357820     1.2060290
  H        0.2387610    -1.9715140    -0.4526620
  H       -1.3357820    -0.1617500    -1.2060290
  H       -1.9715140    -0.2387610     0.4526620
  H        1.9715140     0.2387610     0.4526620
  H        1.3357820     0.1617500    -1.2060290
  H       -0.2387610     1.9715140    -0.4526620
  H       -0.1617500     1.3357820     1.2060290
units angstrom
no_reorient  #important for SAPT in psi4, default
symmetry c1  #important for SAPT in psi4, default
}

set PROPERTIES_ORIGIN ["COM"]
properties('MP2/aug-cc-pvtz', properties = ['dipole'])
--------------------------------------------------------------------------

    Molecular point group: c1
  Charge       = 0
  Multiplicity = 1
  Basis Set: AUG-CC-PVTZ
    Blend: AUG-CC-PVTZ
  Basis Set: (AUG-CC-PVTZ AUX)
    Blend: AUG-CC-PVTZ-JKFIT

    Orbital Energies [Eh]
    ---------------------

    Doubly Occupied:

       1A    -11.227352     2A    -11.220788     3A    -11.214076
       4A    -11.206566     5A     -1.163952     6A     -0.916455
       7A     -0.875179     8A     -0.740489     9A     -0.660517
      10A     -0.644416    11A     -0.540509    12A     -0.530946
      13A     -0.510632    14A     -0.460424    15A     -0.424348
      16A     -0.402509

  @DF-RHF Final Energy:  -156.10251316313125

   => Energetics <=

    Nuclear Repulsion Energy =            129.7363578743742778
    One-Electron Energy =                -466.1994244332590256
    Two-Electron Energy =                 180.3605533957534988
    Total Energy =                       -156.1025131631312490
  Basis Set: (AUG-CC-PVTZ AUX)
    Blend: AUG-CC-PVTZ-RI
    Molecular point group: c1

    Geometry (in Angstrom), charge = 0, multiplicity = 1:

       Center              X                  Y                   Z               Mass
    ------------   -----------------  -----------------  -----------------  -----------------
         C            0.095726950786    -1.037867964766     0.138739835974    12.000000000000
         C           -0.942353949214    -0.224013064766    -0.116971564026    12.000000000000
         C            1.030723950786     0.154731035234    -0.155034164026    12.000000000000
         C           -0.161875049214     1.089728035234     0.138739835974    12.000000000000
         H            0.128675950786    -1.309851964766     1.197881835974     1.007825032230
         H            0.205686950786    -1.945583964766    -0.460809164026     1.007825032230
         H           -1.368856049214    -0.135819964766    -1.214176164026     1.007825032230
         H           -2.004588049214    -0.212830964766     0.444514835974     1.007825032230
         H            1.938439950786     0.264691035234     0.444514835974     1.007825032230
         H            1.302707950786     0.187680035234    -1.214176164026     1.007825032230
         H           -0.271835049214     1.997444035234    -0.460809164026     1.007825032230
         H           -0.194824049214     1.361712035234     1.197881835974     1.007825032230

  Basis Set: AUG-CC-PVTZ
    Blend: AUG-CC-PVTZ
  Basis Set: (AUG-CC-PVTZ AUX)
    Blend: AUG-CC-PVTZ-JKFIT
	 Reference Energy          =    -156.1025131631312490 [Eh]
	 Singles Energy            =      -0.0000000000000000 [Eh]
	 Same-Spin Energy          =      -0.1686974815142136 [Eh]
	 Opposite-Spin Energy      =      -0.6144411892711463 [Eh]
	 Correlation Energy        =      -0.7831386707853599 [Eh]
	 Total Energy              =    -156.8856518339165973 [Eh]

	 ================> DF-SCS-MP2 Energies <==================
	-----------------------------------------------------------
	 SCS Same-Spin Scale       =       0.3333333333333333 [-]
	 SCS Opposite-Spin Scale   =       1.2000000000000000 [-]
	 SCS Same-Spin Energy      =      -0.0562324938380712 [Eh]
	 SCS Opposite-Spin Energy  =      -0.7373294271253755 [Eh]
	 SCS Correlation Energy    =      -0.7935619209634467 [Eh]
	 SCS Total Energy          =    -156.8960750840946901 [Eh]
	-----------------------------------------------------------

  Dipole Moment: [D]
     X:     0.1721      Y:     0.0198      Z:    -0.0353     Total:     0.1768

*** Psi4 exiting successfully. Buy a developer a beer!
