                               Psi4 1.3.2 release

  ==> Input File <==

--------------------------------------------------------------------------
#psi4
#
memory 32 gb

molecule  {
0 1
  C        0.1264568    -1.0489763     0.1986356
  C       -1.0637980    -0.1288010    -0.1468870
  C        1.0637980     0.1288010    -0.1468870
  C       -0.1288010     1.0637980     0.1468870
  H        0.1617500    -1.3357820     1.2060290
  H        0.2387610    -1.9715140    -0.4526620
  H       -1.3635685    -0.1365204    -1.1989900
  H       -1.9715140    -0.2387610     0.4526620
  H        1.9715140     0.2387610     0.4526620
  H        1.3357820     0.1617500    -1.2060290
  H       -0.2387610     1.9715140    -0.4526620
  H       -0.1617500     1.3357820     1.2060290
units angstrom
no_reorient  #important for SAPT in psi4, default
symmetry c1  #important for SAPT in psi4, default
}

set PROPERTIES_ORIGIN ["COM"]
properties('MP2/aug-cc-pvtz', properties = ['dipole'])
--------------------------------------------------------------------------

    Molecular point group: c1
  Charge       = 0
  Multiplicity = 1
  Basis Set: AUG-CC-PVTZ
    Blend: AUG-CC-PVTZ
  Basis Set: (AUG-CC-PVTZ AUX)
    Blend: AUG-CC-PVTZ-JKFIT

    Orbital Energies [Eh]
    ---------------------

    Doubly Occupied:

       1A    -11.216930     2A    -11.216310     3A    -11.216052
       4A    -11.215572     5A     -1.126903     6A     -0.890560
       7A     -0.889714     8A     -0.753525     9A     -0.645358
      10A     -0.638415    11A     -0.537622    12A     -0.533589
      13A     -0.481752    14A     -0.457860    15A     -0.436962
      16A     -0.426989

  @DF-RHF Final Energy:  -156.14679307271786

   => Energetics <=

    Nuclear Repulsion Energy =            127.5772499660763657
    One-Electron Energy =                -462.0798598060491145
    Two-Electron Energy =                 178.3558167672549075
    Total Energy =                       -156.1467930727178555
  Basis Set: (AUG-CC-PVTZ AUX)
    Blend: AUG-CC-PVTZ-RI
    Molecular point group: c1

    Geometry (in Angstrom), charge = 0, multiplicity = 1:

       Center              X                  Y                   Z               Mass
    ------------   -----------------  -----------------  -----------------  -----------------
         C            0.127458079463    -1.052602379088     0.187432457843    12.000000000000
         C           -1.062796720537    -0.132427079088    -0.158090142157    12.000000000000
         C            1.064799279463     0.125174920912    -0.158090142157    12.000000000000
         C           -0.127799720537     1.060171920912     0.135683857843    12.000000000000
         H            0.162751279463    -1.339408079088     1.194825857843     1.007825032230
         H            0.239762279463    -1.975140079088    -0.463865142157     1.007825032230
         H           -1.362567220537    -0.140146479088    -1.210193142157     1.007825032230
         H           -1.970512720537    -0.242387079088     0.441458857843     1.007825032230
         H            1.972515279463     0.235134920912     0.441458857843     1.007825032230
         H            1.336783279463     0.158123920912    -1.217232142157     1.007825032230
         H           -0.237759720537     1.967887920912    -0.463865142157     1.007825032230
         H           -0.160748720537     1.332155920912     1.194825857843     1.007825032230

  Basis Set: AUG-CC-PVTZ
    Blend: AUG-CC-PVTZ
  Basis Set: (AUG-CC-PVTZ AUX)
    Blend: AUG-CC-PVTZ-JKFIT
	 Reference Energy          =    -156.1467930727178555 [Eh]
	 Singles Energy            =      -0.0000000000000000 [Eh]
	 Same-Spin Energy          =      -0.1662437152748154 [Eh]
	 Opposite-Spin Energy      =      -0.6116489411280017 [Eh]
	 Correlation Energy        =      -0.7778926564028171 [Eh]
	 Total Energy              =    -156.9246857291206823 [Eh]

	 ================> DF-SCS-MP2 Energies <==================
	-----------------------------------------------------------
	 SCS Same-Spin Scale       =       0.3333333333333333 [-]
	 SCS Opposite-Spin Scale   =       1.2000000000000000 [-]
	 SCS Same-Spin Energy      =      -0.0554145717582718 [Eh]
	 SCS Opposite-Spin Energy  =      -0.7339787293536021 [Eh]
	 SCS Correlation Energy    =      -0.7893933011118739 [Eh]
	 SCS Total Energy          =    -156.9361863738297416 [Eh]
	-----------------------------------------------------------

  Dipole Moment: [D]
     X:    -0.0067      Y:     0.0273      Z:     0.0333     Total:     0.0436

*** Psi4 exiting successfully. Buy a developer a beer!
