                               Psi4 1.3.2 release

  ==> Input File <==

--------------------------------------------------------------------------
#psi4
#
memory 32 gb

molecule  {
0 1
  C        0.1288010    -1.0637980     0.1468870
  C       -1.0637980    -0.1288010    -0.1468870
  C        1.0637980     0.1288010    -0.1468870
  C       -0.1288010     1.0637980     0.1468870
  H        0.1661752    -1.3723116     1.1958223
  H        0.2412104    -1.9917331    -0.4203863
  H       -1.3357820    -0.1617500    -1.2060290
  H       -1.9715140    -0.2387610     0.4526620
  H        1.9715140     0.2387610     0.4526620
  H        1.3357820     0.1617500    -1.2060290
  H       -0.2387610     1.9715140    -0.4526620
  H       -0.1617500     1.3357820     1.2060290
units angstrom
no_reorient  #important for SAPT in psi4, default
symmetry c1  #important for SAPT in psi4, default
}

set PROPERTIES_ORIGIN ["COM"]
properties('MP2/aug-cc-pvtz', properties = ['dipole'])
--------------------------------------------------------------------------

    Molecular point group: c1
  Charge       = 0
  Multiplicity = 1
  Basis Set: AUG-CC-PVTZ
    Blend: AUG-CC-PVTZ
  Basis Set: (AUG-CC-PVTZ AUX)
    Blend: AUG-CC-PVTZ-JKFIT

    Orbital Energies [Eh]
    ---------------------

    Doubly Occupied:

       1A    -11.217135     2A    -11.216781     3A    -11.216255
       4A    -11.215786     5A     -1.125649     6A     -0.890687
       7A     -0.890299     8A     -0.750869     9A     -0.644302
      10A     -0.643259    11A     -0.532915    12A     -0.529366
      13A     -0.483745    14A     -0.450046    15A     -0.438725
      16A     -0.436017

  @DF-RHF Final Energy:  -156.15012497886062

   => Energetics <=

    Nuclear Repulsion Energy =            127.4646470640212073
    One-Electron Energy =                -461.8658739944237368
    Two-Electron Energy =                 178.2511019515418980
    Total Energy =                       -156.1501249788606174
  Basis Set: (AUG-CC-PVTZ AUX)
    Blend: AUG-CC-PVTZ-RI
    Molecular point group: c1

    Geometry (in Angstrom), charge = 0, multiplicity = 1:

       Center              X                  Y                   Z               Mass
    ------------   -----------------  -----------------  -----------------  -----------------
         C            0.128677416828    -1.062777841104     0.146490270442    12.000000000000
         C           -1.063921583172    -0.127780841104    -0.147283729558    12.000000000000
         C            1.063674416828     0.129821158896    -0.147283729558    12.000000000000
         C           -0.128924583172     1.064818158896     0.146490270442    12.000000000000
         H            0.166051616828    -1.371291441104     1.195425570442     1.007825032230
         H            0.241086816828    -1.990712941104    -0.420783029558     1.007825032230
         H           -1.335905583172    -0.160729841104    -1.206425729558     1.007825032230
         H           -1.971637583172    -0.237740841104     0.452265270442     1.007825032230
         H            1.971390416828     0.239781158896     0.452265270442     1.007825032230
         H            1.335658416828     0.162770158896    -1.206425729558     1.007825032230
         H           -0.238884583172     1.972534158896    -0.453058729558     1.007825032230
         H           -0.161873583172     1.336802158896     1.205632270442     1.007825032230

  Basis Set: AUG-CC-PVTZ
    Blend: AUG-CC-PVTZ
  Basis Set: (AUG-CC-PVTZ AUX)
    Blend: AUG-CC-PVTZ-JKFIT
	 Reference Energy          =    -156.1501249788606174 [Eh]
	 Singles Energy            =      -0.0000000000000000 [Eh]
	 Same-Spin Energy          =      -0.1661917168092800 [Eh]
	 Opposite-Spin Energy      =      -0.6115214397965956 [Eh]
	 Correlation Energy        =      -0.7777131566058756 [Eh]
	 Total Energy              =    -156.9278381354664873 [Eh]

	 ================> DF-SCS-MP2 Energies <==================
	-----------------------------------------------------------
	 SCS Same-Spin Scale       =       0.3333333333333333 [-]
	 SCS Opposite-Spin Scale   =       1.2000000000000000 [-]
	 SCS Same-Spin Energy      =      -0.0553972389364267 [Eh]
	 SCS Opposite-Spin Energy  =      -0.7338257277559147 [Eh]
	 SCS Correlation Energy    =      -0.7892229666923414 [Eh]
	 SCS Total Energy          =    -156.9393479455529530 [Eh]
	-----------------------------------------------------------

  Dipole Moment: [D]
     X:     0.0008      Y:    -0.0064      Z:     0.0081     Total:     0.0103

*** Psi4 exiting successfully. Buy a developer a beer!
