                               Psi4 1.3.2 release

  ==> Input File <==

--------------------------------------------------------------------------
#psi4
#
memory 32 gb

molecule  {
0 1
  C        0.1278104    -1.0565284     0.1728100
  C       -1.0637980    -0.1288010    -0.1468870
  C        1.0637980     0.1288010    -0.1468870
  C       -0.1288010     1.0637980     0.1468870
  H        0.1617500    -1.3357820     1.2060290
  H        0.2387610    -1.9715140    -0.4526620
  H       -1.3497188    -0.1491383    -1.2026703
  H       -1.9715140    -0.2387610     0.4526620
  H        1.9715140     0.2387610     0.4526620
  H        1.3357820     0.1617500    -1.2060290
  H       -0.2387610     1.9715140    -0.4526620
  H       -0.1617500     1.3357820     1.2060290
units angstrom
no_reorient  #important for SAPT in psi4, default
symmetry c1  #important for SAPT in psi4, default
}

set PROPERTIES_ORIGIN ["COM"]
properties('MP2/aug-cc-pvtz', properties = ['dipole'])
--------------------------------------------------------------------------

    Molecular point group: c1
  Charge       = 0
  Multiplicity = 1
  Basis Set: AUG-CC-PVTZ
    Blend: AUG-CC-PVTZ
  Basis Set: (AUG-CC-PVTZ AUX)
    Blend: AUG-CC-PVTZ-JKFIT

    Orbital Energies [Eh]
    ---------------------

    Doubly Occupied:

       1A    -11.216714     2A    -11.216202     3A    -11.216044
       4A    -11.215543     5A     -1.126412     6A     -0.890308
       7A     -0.889770     8A     -0.751344     9A     -0.645167
      10A     -0.640276    11A     -0.535295    12A     -0.533046
      13A     -0.482815    14A     -0.454471    15A     -0.436431
      16A     -0.431820

  @DF-RHF Final Energy:  -156.14962689706394

   => Energetics <=

    Nuclear Repulsion Energy =            127.5517746355668294
    One-Electron Energy =                -462.0394851081789511
    Two-Electron Energy =                 178.3380835755481542
    Total Energy =                       -156.1496268970639392
  Basis Set: (AUG-CC-PVTZ AUX)
    Blend: AUG-CC-PVTZ-RI
    Molecular point group: c1

    Geometry (in Angstrom), charge = 0, multiplicity = 1:

       Center              X                  Y                   Z               Mass
    ------------   -----------------  -----------------  -----------------  -----------------
         C            0.128272973191    -1.058311149757     0.167200895526    12.000000000000
         C           -1.063335426809    -0.130583749757    -0.152496104474    12.000000000000
         C            1.064260573191     0.127018250243    -0.152496104474    12.000000000000
         C           -0.128338426809     1.062015250243     0.141277895526    12.000000000000
         H            0.162212573191    -1.337564749757     1.200419895526     1.007825032230
         H            0.239223573191    -1.973296749757    -0.458271104474     1.007825032230
         H           -1.349256226809    -0.150921049757    -1.208279404474     1.007825032230
         H           -1.971051426809    -0.240543749757     0.447052895526     1.007825032230
         H            1.971976573191     0.236978250243     0.447052895526     1.007825032230
         H            1.336244573191     0.159967250243    -1.211638104474     1.007825032230
         H           -0.238298426809     1.969731250243    -0.458271104474     1.007825032230
         H           -0.161287426809     1.333999250243     1.200419895526     1.007825032230

  Basis Set: AUG-CC-PVTZ
    Blend: AUG-CC-PVTZ
  Basis Set: (AUG-CC-PVTZ AUX)
    Blend: AUG-CC-PVTZ-JKFIT
	 Reference Energy          =    -156.1496268970639392 [Eh]
	 Singles Energy            =      -0.0000000000000000 [Eh]
	 Same-Spin Energy          =      -0.1662127788491808 [Eh]
	 Opposite-Spin Energy      =      -0.6115895471138046 [Eh]
	 Correlation Energy        =      -0.7778023259629854 [Eh]
	 Total Energy              =    -156.9274292230269339 [Eh]

	 ================> DF-SCS-MP2 Energies <==================
	-----------------------------------------------------------
	 SCS Same-Spin Scale       =       0.3333333333333333 [-]
	 SCS Opposite-Spin Scale   =       1.2000000000000000 [-]
	 SCS Same-Spin Energy      =      -0.0554042596163936 [Eh]
	 SCS Opposite-Spin Energy  =      -0.7339074565365655 [Eh]
	 SCS Correlation Energy    =      -0.7893117161529591 [Eh]
	 SCS Total Energy          =    -156.9389386132168909 [Eh]
	-----------------------------------------------------------

  Dipole Moment: [D]
     X:    -0.0032      Y:     0.0117      Z:     0.0174     Total:     0.0212

*** Psi4 exiting successfully. Buy a developer a beer!
