                               Psi4 1.3.2 release

  ==> Input File <==

--------------------------------------------------------------------------
#psi4
#
memory 32 gb

molecule  {
0 1
  C        0.1247407    -1.0411439     0.2243559
  C       -1.0637980    -0.1288010    -0.1468870
  C        1.0637980     0.1288010    -0.1468870
  C       -0.1288010     1.0637980     0.1468870
  H        0.1617500    -1.3357820     1.2060290
  H        0.2387610    -1.9715140    -0.4526620
  H       -1.3773269    -0.1239002    -1.1949893
  H       -1.9715140    -0.2387610     0.4526620
  H        1.9715140     0.2387610     0.4526620
  H        1.3357820     0.1617500    -1.2060290
  H       -0.2387610     1.9715140    -0.4526620
  H       -0.1617500     1.3357820     1.2060290
units angstrom
no_reorient  #important for SAPT in psi4, default
symmetry c1  #important for SAPT in psi4, default
}

set PROPERTIES_ORIGIN ["COM"]
properties('MP2/aug-cc-pvtz', properties = ['dipole'])
--------------------------------------------------------------------------

    Molecular point group: c1
  Charge       = 0
  Multiplicity = 1
  Basis Set: AUG-CC-PVTZ
    Blend: AUG-CC-PVTZ
  Basis Set: (AUG-CC-PVTZ AUX)
    Blend: AUG-CC-PVTZ-JKFIT

    Orbital Energies [Eh]
    ---------------------

    Doubly Occupied:

       1A    -11.217442     2A    -11.216483     3A    -11.216200
       4A    -11.215694     5A     -1.127470     6A     -0.890918
       7A     -0.889972     8A     -0.756031     9A     -0.646309
      10A     -0.636335    11A     -0.539693    12A     -0.534398
      13A     -0.480600    14A     -0.461039    15A     -0.437426
      16A     -0.421797

  @DF-RHF Final Energy:  -156.14202839445775

   => Energetics <=

    Nuclear Repulsion Energy =            127.6028325900395259
    One-Electron Energy =                -462.1141094047099500
    Two-Electron Energy =                 178.3692484202126423
    Total Energy =                       -156.1420283944577534
  Basis Set: (AUG-CC-PVTZ AUX)
    Blend: AUG-CC-PVTZ-RI
    Molecular point group: c1

    Geometry (in Angstrom), charge = 0, multiplicity = 1:

       Center              X                  Y                   Z               Mass
    ------------   -----------------  -----------------  -----------------  -----------------
         C            0.126356636288    -1.046673346984     0.207575499489    12.000000000000
         C           -1.062182063712    -0.134330446984    -0.163667400511    12.000000000000
         C            1.065413936288     0.123271553016    -0.163667400511    12.000000000000
         C           -0.127185063712     1.058268553016     0.130106599489    12.000000000000
         H            0.163365936288    -1.341311446984     1.189248599489     1.007825032230
         H            0.240376936288    -1.977043446984    -0.469442400511     1.007825032230
         H           -1.375710963712    -0.129429646984    -1.211769700511     1.007825032230
         H           -1.969898063712    -0.244290446984     0.435881599489     1.007825032230
         H            1.973129936288     0.233231553016     0.435881599489     1.007825032230
         H            1.337397936288     0.156220553016    -1.222809400511     1.007825032230
         H           -0.237145063712     1.965984553016    -0.469442400511     1.007825032230
         H           -0.160134063712     1.330252553016     1.189248599489     1.007825032230

  Basis Set: AUG-CC-PVTZ
    Blend: AUG-CC-PVTZ
  Basis Set: (AUG-CC-PVTZ AUX)
    Blend: AUG-CC-PVTZ-JKFIT
	 Reference Energy          =    -156.1420283944577534 [Eh]
	 Singles Energy            =      -0.0000000000000000 [Eh]
	 Same-Spin Energy          =      -0.1663064509418796 [Eh]
	 Opposite-Spin Energy      =      -0.6118010642982854 [Eh]
	 Correlation Energy        =      -0.7781075152401650 [Eh]
	 Total Energy              =    -156.9201359096979047 [Eh]

	 ================> DF-SCS-MP2 Energies <==================
	-----------------------------------------------------------
	 SCS Same-Spin Scale       =       0.3333333333333333 [-]
	 SCS Opposite-Spin Scale   =       1.2000000000000000 [-]
	 SCS Same-Spin Energy      =      -0.0554354836472932 [Eh]
	 SCS Opposite-Spin Energy  =      -0.7341612771579424 [Eh]
	 SCS Correlation Energy    =      -0.7895967608052357 [Eh]
	 SCS Total Energy          =    -156.9316251552629922 [Eh]
	-----------------------------------------------------------

  Dipole Moment: [D]
     X:    -0.0107      Y:     0.0467      Z:     0.0478     Total:     0.0677

*** Psi4 exiting successfully. Buy a developer a beer!
