                               Psi4 1.3.2 release

  ==> Input File <==

--------------------------------------------------------------------------
#psi4
#
memory 32 gb

molecule  {
0 1
  C        0.1296922    -1.0774805     0.0947805
  C       -1.0637980    -0.1288010    -0.1468870
  C        1.0637980     0.1288010    -0.1468870
  C       -0.1288010     1.0637980     0.1468870
  H        0.1617500    -1.3357820     1.2060290
  H        0.2387610    -1.9715140    -0.4526620
  H       -1.3076641    -0.1869394    -1.2117776
  H       -1.9715140    -0.2387610     0.4526620
  H        1.9715140     0.2387610     0.4526620
  H        1.3357820     0.1617500    -1.2060290
  H       -0.2387610     1.9715140    -0.4526620
  H       -0.1617500     1.3357820     1.2060290
units angstrom
no_reorient  #important for SAPT in psi4, default
symmetry c1  #important for SAPT in psi4, default
}

set PROPERTIES_ORIGIN ["COM"]
properties('MP2/aug-cc-pvtz', properties = ['dipole'])
--------------------------------------------------------------------------

    Molecular point group: c1
  Charge       = 0
  Multiplicity = 1
  Basis Set: AUG-CC-PVTZ
    Blend: AUG-CC-PVTZ
  Basis Set: (AUG-CC-PVTZ AUX)
    Blend: AUG-CC-PVTZ-JKFIT

    Orbital Energies [Eh]
    ---------------------

    Doubly Occupied:

       1A    -11.217341     2A    -11.216913     3A    -11.216597
       4A    -11.216165     5A     -1.125422     6A     -0.891811
       7A     -0.890056     8A     -0.747347     9A     -0.650287
      10A     -0.642241    11A     -0.533385    12A     -0.527736
      13A     -0.484993    14A     -0.451885    15A     -0.435690
      16A     -0.433999

  @DF-RHF Final Energy:  -156.14686076060076

   => Energetics <=

    Nuclear Repulsion Energy =            127.4755293857776337
    One-Electron Energy =                -461.8810404730095343
    Two-Electron Energy =                 178.2586503266311411
    Total Energy =                       -156.1468607606007595
  Basis Set: (AUG-CC-PVTZ AUX)
    Blend: AUG-CC-PVTZ-RI
    Molecular point group: c1

    Geometry (in Angstrom), charge = 0, multiplicity = 1:

       Center              X                  Y                   Z               Mass
    ------------   -----------------  -----------------  -----------------  -----------------
         C            0.128995972510    -1.074098985283     0.106037052141    12.000000000000
         C           -1.064494227490    -0.125419485283    -0.135630447859    12.000000000000
         C            1.063101772510     0.132182514717    -0.135630447859    12.000000000000
         C           -0.129497227490     1.067179514717     0.158143552141    12.000000000000
         H            0.161053772510    -1.332400485283     1.217285552141     1.007825032230
         H            0.238064772510    -1.968132485283    -0.441405447859     1.007825032230
         H           -1.308360327490    -0.183557885283    -1.200521047859     1.007825032230
         H           -1.972210227490    -0.235379485283     0.463918552141     1.007825032230
         H            1.970817772510     0.242142514717     0.463918552141     1.007825032230
         H            1.335085772510     0.165131514717    -1.194772447859     1.007825032230
         H           -0.239457227490     1.974895514717    -0.441405447859     1.007825032230
         H           -0.162446227490     1.339163514717     1.217285552141     1.007825032230

  Basis Set: AUG-CC-PVTZ
    Blend: AUG-CC-PVTZ
  Basis Set: (AUG-CC-PVTZ AUX)
    Blend: AUG-CC-PVTZ-JKFIT
	 Reference Energy          =    -156.1468607606007595 [Eh]
	 Singles Energy            =      -0.0000000000000000 [Eh]
	 Same-Spin Energy          =      -0.1663097505151817 [Eh]
	 Opposite-Spin Energy      =      -0.6119472927699522 [Eh]
	 Correlation Energy        =      -0.7782570432851339 [Eh]
	 Total Energy              =    -156.9251178038858825 [Eh]

	 ================> DF-SCS-MP2 Energies <==================
	-----------------------------------------------------------
	 SCS Same-Spin Scale       =       0.3333333333333333 [-]
	 SCS Opposite-Spin Scale   =       1.2000000000000000 [-]
	 SCS Same-Spin Energy      =      -0.0554365835050606 [Eh]
	 SCS Opposite-Spin Energy  =      -0.7343367513239426 [Eh]
	 SCS Correlation Energy    =      -0.7897733348290031 [Eh]
	 SCS Total Energy          =    -156.9366340954297527 [Eh]
	-----------------------------------------------------------

  Dipole Moment: [D]
     X:     0.0053      Y:    -0.0116      Z:    -0.0396     Total:     0.0416

*** Psi4 exiting successfully. Buy a developer a beer!
