                               Psi4 1.3.2 release

  ==> Input File <==

--------------------------------------------------------------------------
#psi4
#
memory 32 gb

molecule  {
0 1
  C        0.1283511    -1.0601987     0.1598602
  C       -1.0637980    -0.1288010    -0.1468870
  C        1.0637980     0.1288010    -0.1468870
  C       -0.1288010     1.0637980     0.1468870
  H        0.1617500    -1.3357820     1.2060290
  H        0.2387610    -1.9715140    -0.4526620
  H       -1.3427610    -0.1554452    -1.2043899
  H       -1.9715140    -0.2387610     0.4526620
  H        1.9715140     0.2387610     0.4526620
  H        1.3357820     0.1617500    -1.2060290
  H       -0.2387610     1.9715140    -0.4526620
  H       -0.1617500     1.3357820     1.2060290
units angstrom
no_reorient  #important for SAPT in psi4, default
symmetry c1  #important for SAPT in psi4, default
}

set PROPERTIES_ORIGIN ["COM"]
properties('MP2/aug-cc-pvtz', properties = ['dipole'])
--------------------------------------------------------------------------

    Molecular point group: c1
  Charge       = 0
  Multiplicity = 1
  Basis Set: AUG-CC-PVTZ
    Blend: AUG-CC-PVTZ
  Basis Set: (AUG-CC-PVTZ AUX)
    Blend: AUG-CC-PVTZ-JKFIT

    Orbital Energies [Eh]
    ---------------------

    Doubly Occupied:

       1A    -11.216707     2A    -11.216178     3A    -11.216097
       4A    -11.215567     5A     -1.126195     6A     -0.890216
       7A     -0.889918     8A     -0.750395     9A     -0.645491
      10A     -0.640955    11A     -0.534067    12A     -0.532888
      13A     -0.483294    14A     -0.452813    15A     -0.436140
      16A     -0.433983

  @DF-RHF Final Energy:  -156.15032863875314

   => Energetics <=

    Nuclear Repulsion Energy =            127.5390670431476536
    One-Electron Energy =                -462.0169863342761687
    Two-Electron Energy =                 178.3275906523753633
    Total Energy =                       -156.1503286387531375
  Basis Set: (AUG-CC-PVTZ AUX)
    Blend: AUG-CC-PVTZ-RI
    Molecular point group: c1

    Geometry (in Angstrom), charge = 0, multiplicity = 1:

       Center              X                  Y                   Z               Mass
    ------------   -----------------  -----------------  -----------------  -----------------
         C            0.128572859441    -1.061082457354     0.157053866985    12.000000000000
         C           -1.063576240559    -0.129684757354    -0.149693333015    12.000000000000
         C            1.064019759441     0.127917242646    -0.149693333015    12.000000000000
         C           -0.128579240559     1.062914242646     0.144080666985    12.000000000000
         H            0.161971759441    -1.336665757354     1.203222666985     1.007825032230
         H            0.238982759441    -1.972397757354    -0.455468333015     1.007825032230
         H           -1.342539240559    -0.156328957354    -1.207196233015     1.007825032230
         H           -1.971292240559    -0.239644757354     0.449855666985     1.007825032230
         H            1.971735759441     0.237877242646     0.449855666985     1.007825032230
         H            1.336003759441     0.160866242646    -1.208835333015     1.007825032230
         H           -0.238539240559     1.970630242646    -0.455468333015     1.007825032230
         H           -0.161528240559     1.334898242646     1.203222666985     1.007825032230

  Basis Set: AUG-CC-PVTZ
    Blend: AUG-CC-PVTZ
  Basis Set: (AUG-CC-PVTZ AUX)
    Blend: AUG-CC-PVTZ-JKFIT
	 Reference Energy          =    -156.1503286387531375 [Eh]
	 Singles Energy            =      -0.0000000000000000 [Eh]
	 Same-Spin Energy          =      -0.1662091963245551 [Eh]
	 Opposite-Spin Energy      =      -0.6115939054554070 [Eh]
	 Correlation Energy        =      -0.7778031017799620 [Eh]
	 Total Energy              =    -156.9281317405331038 [Eh]

	 ================> DF-SCS-MP2 Energies <==================
	-----------------------------------------------------------
	 SCS Same-Spin Scale       =       0.3333333333333333 [-]
	 SCS Opposite-Spin Scale   =       1.2000000000000000 [-]
	 SCS Same-Spin Energy      =      -0.0554030654415184 [Eh]
	 SCS Opposite-Spin Energy  =      -0.7339126865464884 [Eh]
	 SCS Correlation Energy    =      -0.7893157519880067 [Eh]
	 SCS Total Energy          =    -156.9396443907411367 [Eh]
	-----------------------------------------------------------

  Dipole Moment: [D]
     X:    -0.0015      Y:     0.0054      Z:     0.0089     Total:     0.0105

*** Psi4 exiting successfully. Buy a developer a beer!
