                               Psi4 1.3.2 release

  ==> Input File <==

--------------------------------------------------------------------------
#psi4
#
memory 32 gb

molecule  {
0 1
  C        0.1288010    -1.0637980     0.1468870
  C       -1.0637980    -0.1288010    -0.1468870
  C        1.0637980     0.1288010    -0.1468870
  C       -0.1288010     1.0637980     0.1468870
  H        0.1550387    -1.2803803     1.2189161
  H        0.2348367    -1.9391198    -0.4996938
  H       -1.3357820    -0.1617500    -1.2060290
  H       -1.9715140    -0.2387610     0.4526620
  H        1.9715140     0.2387610     0.4526620
  H        1.3357820     0.1617500    -1.2060290
  H       -0.2387610     1.9715140    -0.4526620
  H       -0.1617500     1.3357820     1.2060290
units angstrom
no_reorient  #important for SAPT in psi4, default
symmetry c1  #important for SAPT in psi4, default
}

set PROPERTIES_ORIGIN ["COM"]
properties('MP2/aug-cc-pvtz', properties = ['dipole'])
--------------------------------------------------------------------------

    Molecular point group: c1
  Charge       = 0
  Multiplicity = 1
  Basis Set: AUG-CC-PVTZ
    Blend: AUG-CC-PVTZ
  Basis Set: (AUG-CC-PVTZ AUX)
    Blend: AUG-CC-PVTZ-JKFIT

    Orbital Energies [Eh]
    ---------------------

    Doubly Occupied:

       1A    -11.216646     2A    -11.216054     3A    -11.215336
       4A    -11.215039     5A     -1.126647     6A     -0.889943
       7A     -0.889546     8A     -0.747836     9A     -0.649265
      10A     -0.638674    11A     -0.537473    12A     -0.532688
      13A     -0.483749    14A     -0.453057    15A     -0.435580
      16A     -0.430837

  @DF-RHF Final Energy:  -156.14945301635618

   => Energetics <=

    Nuclear Repulsion Energy =            127.6264785327661997
    One-Electron Energy =                -462.1951192717633035
    Two-Electron Energy =                 178.4191877226409133
    Total Energy =                       -156.1494530163561762
  Basis Set: (AUG-CC-PVTZ AUX)
    Blend: AUG-CC-PVTZ-RI
    Molecular point group: c1

    Geometry (in Angstrom), charge = 0, multiplicity = 1:

       Center              X                  Y                   Z               Mass
    ------------   -----------------  -----------------  -----------------  -----------------
         C            0.128992193842    -1.065376287581     0.147500811761    12.000000000000
         C           -1.063606806158    -0.130379287581    -0.146273188239    12.000000000000
         C            1.063989193842     0.127222712419    -0.146273188239    12.000000000000
         C           -0.128609806158     1.062219712419     0.147500811761    12.000000000000
         H            0.155229893842    -1.281958587581     1.219529911761     1.007825032230
         H            0.235027893842    -1.940698087581    -0.499079988239     1.007825032230
         H           -1.335590806158    -0.163328287581    -1.205415188239     1.007825032230
         H           -1.971322806158    -0.240339287581     0.453275811761     1.007825032230
         H            1.971705193842     0.237182712419     0.453275811761     1.007825032230
         H            1.335973193842     0.160171712419    -1.205415188239     1.007825032230
         H           -0.238569806158     1.969935712419    -0.452048188239     1.007825032230
         H           -0.161558806158     1.334203712419     1.206642811761     1.007825032230

  Basis Set: AUG-CC-PVTZ
    Blend: AUG-CC-PVTZ
  Basis Set: (AUG-CC-PVTZ AUX)
    Blend: AUG-CC-PVTZ-JKFIT
	 Reference Energy          =    -156.1494530163561762 [Eh]
	 Singles Energy            =      -0.0000000000000000 [Eh]
	 Same-Spin Energy          =      -0.1663265202722775 [Eh]
	 Opposite-Spin Energy      =      -0.6118775149774076 [Eh]
	 Correlation Energy        =      -0.7782040352496851 [Eh]
	 Total Energy              =    -156.9276570516058484 [Eh]

	 ================> DF-SCS-MP2 Energies <==================
	-----------------------------------------------------------
	 SCS Same-Spin Scale       =       0.3333333333333333 [-]
	 SCS Opposite-Spin Scale   =       1.2000000000000000 [-]
	 SCS Same-Spin Energy      =      -0.0554421734240925 [Eh]
	 SCS Opposite-Spin Energy  =      -0.7342530179728891 [Eh]
	 SCS Correlation Energy    =      -0.7896951913969816 [Eh]
	 SCS Total Energy          =    -156.9391482077531634 [Eh]
	-----------------------------------------------------------

  Dipole Moment: [D]
     X:    -0.0013      Y:     0.0106      Z:    -0.0119     Total:     0.0159

*** Psi4 exiting successfully. Buy a developer a beer!
