                               Psi4 1.3.2 release

  ==> Input File <==

--------------------------------------------------------------------------
#psi4
#
memory 32 gb

molecule  {
0 1
  C        0.1288010    -1.0637980     0.1468870
  C       -1.0637980    -0.1288010    -0.1468870
  C        1.0637980     0.1288010    -0.1468870
  C       -0.1288010     1.0637980     0.1468870
  H        0.1683710    -1.3904382     1.1902389
  H        0.2423839    -2.0014202    -0.4039869
  H       -1.3357820    -0.1617500    -1.2060290
  H       -1.9715140    -0.2387610     0.4526620
  H        1.9715140     0.2387610     0.4526620
  H        1.3357820     0.1617500    -1.2060290
  H       -0.2387610     1.9715140    -0.4526620
  H       -0.1617500     1.3357820     1.2060290
units angstrom
no_reorient  #important for SAPT in psi4, default
symmetry c1  #important for SAPT in psi4, default
}

set PROPERTIES_ORIGIN ["COM"]
properties('MP2/aug-cc-pvtz', properties = ['dipole'])
--------------------------------------------------------------------------

    Molecular point group: c1
  Charge       = 0
  Multiplicity = 1
  Basis Set: AUG-CC-PVTZ
    Blend: AUG-CC-PVTZ
  Basis Set: (AUG-CC-PVTZ AUX)
    Blend: AUG-CC-PVTZ-JKFIT

    Orbital Energies [Eh]
    ---------------------

    Doubly Occupied:

       1A    -11.217375     2A    -11.217085     3A    -11.216354
       4A    -11.215776     5A     -1.125497     6A     -0.891008
       7A     -0.890380     8A     -0.751585     9A     -0.644279
      10A     -0.643377    11A     -0.532971    12A     -0.527568
      13A     -0.483758    14A     -0.449496    15A     -0.439880
      16A     -0.436115

  @DF-RHF Final Energy:  -156.14954738752536

   => Energetics <=

    Nuclear Repulsion Energy =            127.4352875108564263
    One-Electron Energy =                -461.8046615175158536
    Two-Electron Energy =                 178.2198266191340679
    Total Energy =                       -156.1495473875253595
  Basis Set: (AUG-CC-PVTZ AUX)
    Blend: AUG-CC-PVTZ-RI
    Molecular point group: c1

    Geometry (in Angstrom), charge = 0, multiplicity = 1:

       Center              X                  Y                   Z               Mass
    ------------   -----------------  -----------------  -----------------  -----------------
         C            0.128616847663    -1.062277840337     0.146295833589    12.000000000000
         C           -1.063982152337    -0.127280840337    -0.147478166411    12.000000000000
         C            1.063613847663     0.130321159663    -0.147478166411    12.000000000000
         C           -0.128985152337     1.065318159663     0.146295833589    12.000000000000
         H            0.168186847663    -1.388918040337     1.189647733589     1.007825032230
         H            0.242199747663    -1.999900040337    -0.404578066411     1.007825032230
         H           -1.335966152337    -0.160229840337    -1.206620166411     1.007825032230
         H           -1.971698152337    -0.237240840337     0.452070833589     1.007825032230
         H            1.971329847663     0.240281159663     0.452070833589     1.007825032230
         H            1.335597847663     0.163270159663    -1.206620166411     1.007825032230
         H           -0.238945152337     1.973034159663    -0.453253166411     1.007825032230
         H           -0.161934152337     1.337302159663     1.205437833589     1.007825032230

  Basis Set: AUG-CC-PVTZ
    Blend: AUG-CC-PVTZ
  Basis Set: (AUG-CC-PVTZ AUX)
    Blend: AUG-CC-PVTZ-JKFIT
	 Reference Energy          =    -156.1495473875253595 [Eh]
	 Singles Energy            =      -0.0000000000000000 [Eh]
	 Same-Spin Energy          =      -0.1661974606639293 [Eh]
	 Opposite-Spin Energy      =      -0.6114947868455752 [Eh]
	 Correlation Energy        =      -0.7776922475095045 [Eh]
	 Total Energy              =    -156.9272396350348515 [Eh]

	 ================> DF-SCS-MP2 Energies <==================
	-----------------------------------------------------------
	 SCS Same-Spin Scale       =       0.3333333333333333 [-]
	 SCS Opposite-Spin Scale   =       1.2000000000000000 [-]
	 SCS Same-Spin Energy      =      -0.0553991535546431 [Eh]
	 SCS Opposite-Spin Energy  =      -0.7337937442146902 [Eh]
	 SCS Correlation Energy    =      -0.7891928977693333 [Eh]
	 SCS Total Energy          =    -156.9387402852946991 [Eh]
	-----------------------------------------------------------

  Dipole Moment: [D]
     X:     0.0012      Y:    -0.0097      Z:     0.0122     Total:     0.0156

*** Psi4 exiting successfully. Buy a developer a beer!
