                               Psi4 1.3.2 release

  ==> Input File <==

--------------------------------------------------------------------------
#psi4
#
memory 32 gb

molecule  {
0 1
  C        0.1288010    -1.0637980     0.1468870
  C       -1.0637980    -0.1288010    -0.1468870
  C        1.0637980     0.1288010    -0.1468870
  C       -0.1288010     1.0637980     0.1468870
  H        0.1617500    -1.3357820     1.2060290
  H        0.2287042    -1.8884954    -0.3978280
  H       -1.3357820    -0.1617500    -1.2060290
  H       -1.9715140    -0.2387610     0.4526620
  H        1.9715140     0.2387610     0.4526620
  H        1.3357820     0.1617500    -1.2060290
  H       -0.2387610     1.9715140    -0.4526620
  H       -0.1617500     1.3357820     1.2060290
units angstrom
no_reorient  #important for SAPT in psi4, default
symmetry c1  #important for SAPT in psi4, default
}

set PROPERTIES_ORIGIN ["COM"]
properties('MP2/aug-cc-pvtz', properties = ['dipole'])
--------------------------------------------------------------------------

    Molecular point group: c1
  Charge       = 0
  Multiplicity = 1
  Basis Set: AUG-CC-PVTZ
    Blend: AUG-CC-PVTZ
  Basis Set: (AUG-CC-PVTZ AUX)
    Blend: AUG-CC-PVTZ-JKFIT

    Orbital Energies [Eh]
    ---------------------

    Doubly Occupied:

       1A    -11.215531     2A    -11.215034     3A    -11.214717
       4A    -11.203526     5A     -1.126263     6A     -0.899212
       7A     -0.889214     8A     -0.753030     9A     -0.655618
      10A     -0.642051    11A     -0.536703    12A     -0.532027
      13A     -0.482895    14A     -0.453178    15A     -0.438096
      16A     -0.434580

  @DF-RHF Final Energy:  -156.14462164669473

   => Energetics <=

    Nuclear Repulsion Energy =            127.9887200645140126
    One-Electron Energy =                -462.8833328595522971
    Two-Electron Energy =                 178.7499911483435255
    Total Energy =                       -156.1446216466947305
  Basis Set: (AUG-CC-PVTZ AUX)
    Blend: AUG-CC-PVTZ-RI
    Molecular point group: c1

    Geometry (in Angstrom), charge = 0, multiplicity = 1:

       Center              X                  Y                   Z               Mass
    ------------   -----------------  -----------------  -----------------  -----------------
         C            0.128981788881    -1.065290407110     0.145901261244    12.000000000000
         C           -1.063617211119    -0.130293407110    -0.147872738756    12.000000000000
         C            1.063978788881     0.127308592890    -0.147872738756    12.000000000000
         C           -0.128620211119     1.062305592890     0.145901261244    12.000000000000
         H            0.161930788881    -1.337274407110     1.205043261244     1.007825032230
         H            0.228884988881    -1.889987807110    -0.398813738756     1.007825032230
         H           -1.335601211119    -0.163242407110    -1.207014738756     1.007825032230
         H           -1.971333211119    -0.240253407110     0.451676261244     1.007825032230
         H            1.971694788881     0.237268592890     0.451676261244     1.007825032230
         H            1.335962788881     0.160257592890    -1.207014738756     1.007825032230
         H           -0.238580211119     1.970021592890    -0.453647738756     1.007825032230
         H           -0.161569211119     1.334289592890     1.205043261244     1.007825032230

  Basis Set: AUG-CC-PVTZ
    Blend: AUG-CC-PVTZ
  Basis Set: (AUG-CC-PVTZ AUX)
    Blend: AUG-CC-PVTZ-JKFIT
	 Reference Energy          =    -156.1446216466947305 [Eh]
	 Singles Energy            =      -0.0000000000000000 [Eh]
	 Same-Spin Energy          =      -0.1662304907835100 [Eh]
	 Opposite-Spin Energy      =      -0.6112195564426337 [Eh]
	 Correlation Energy        =      -0.7774500472261437 [Eh]
	 Total Energy              =    -156.9220716939208842 [Eh]

	 ================> DF-SCS-MP2 Energies <==================
	-----------------------------------------------------------
	 SCS Same-Spin Scale       =       0.3333333333333333 [-]
	 SCS Opposite-Spin Scale   =       1.2000000000000000 [-]
	 SCS Same-Spin Energy      =      -0.0554101635945033 [Eh]
	 SCS Opposite-Spin Energy  =      -0.7334634677311604 [Eh]
	 SCS Correlation Energy    =      -0.7888736313256638 [Eh]
	 SCS Total Energy          =    -156.9334952780203878 [Eh]
	-----------------------------------------------------------

  Dipole Moment: [D]
     X:     0.0095      Y:    -0.0786      Z:    -0.0167     Total:     0.0809

*** Psi4 exiting successfully. Buy a developer a beer!
