                               Psi4 1.3.2 release

  ==> Input File <==

--------------------------------------------------------------------------
#psi4
#
memory 32 gb

molecule  {
0 1
  C        0.1288010    -1.0637980     0.1468870
  C       -0.9865390    -0.1893720    -0.1278557
  C        1.0637980     0.1288010    -0.1468870
  C       -0.1288010     1.0637980     0.1468870
  H        0.1617500    -1.3357820     1.2060290
  H        0.2387610    -1.9715140    -0.4526620
  H       -1.3357820    -0.1617500    -1.2060290
  H       -1.9715140    -0.2387610     0.4526620
  H        1.9715140     0.2387610     0.4526620
  H        1.3357820     0.1617500    -1.2060290
  H       -0.2387610     1.9715140    -0.4526620
  H       -0.1617500     1.3357820     1.2060290
units angstrom
no_reorient  #important for SAPT in psi4, default
symmetry c1  #important for SAPT in psi4, default
}

set PROPERTIES_ORIGIN ["COM"]
properties('MP2/aug-cc-pvtz', properties = ['dipole'])
--------------------------------------------------------------------------

    Molecular point group: c1
  Charge       = 0
  Multiplicity = 1
  Basis Set: AUG-CC-PVTZ
    Blend: AUG-CC-PVTZ
  Basis Set: (AUG-CC-PVTZ AUX)
    Blend: AUG-CC-PVTZ-JKFIT

    Orbital Energies [Eh]
    ---------------------

    Doubly Occupied:

       1A    -11.220594     2A    -11.217758     3A    -11.214582
       4A    -11.211507     5A     -1.142669     6A     -0.901495
       7A     -0.882594     8A     -0.744873     9A     -0.651325
      10A     -0.643837    11A     -0.535784    12A     -0.521869
      13A     -0.500716    14A     -0.452396    15A     -0.439662
      16A     -0.421717

  @DF-RHF Final Energy:  -156.13921905858857

   => Energetics <=

    Nuclear Repulsion Energy =            128.5938157139254656
    One-Electron Energy =                -464.0593121138962829
    Two-Electron Energy =                 179.3262773413822231
    Total Energy =                       -156.1392190585885658
  Basis Set: (AUG-CC-PVTZ AUX)
    Blend: AUG-CC-PVTZ-RI
    Molecular point group: c1

    Geometry (in Angstrom), charge = 0, multiplicity = 1:

       Center              X                  Y                   Z               Mass
    ------------   -----------------  -----------------  -----------------  -----------------
         C            0.112263986095    -1.050832993085     0.142813417987    12.000000000000
         C           -1.003076013905    -0.176406993085    -0.131929282013    12.000000000000
         C            1.047260986095     0.141766006915    -0.150960582013    12.000000000000
         C           -0.145338013905     1.076763006915     0.142813417987    12.000000000000
         H            0.145212986095    -1.322816993085     1.201955417987     1.007825032230
         H            0.222223986095    -1.958548993085    -0.456735582013     1.007825032230
         H           -1.352319013905    -0.148784993085    -1.210102582013     1.007825032230
         H           -1.988051013905    -0.225795993085     0.448588417987     1.007825032230
         H            1.954976986095     0.251726006915     0.448588417987     1.007825032230
         H            1.319244986095     0.174715006915    -1.210102582013     1.007825032230
         H           -0.255298013905     1.984479006915    -0.456735582013     1.007825032230
         H           -0.178287013905     1.348747006915     1.201955417987     1.007825032230

  Basis Set: AUG-CC-PVTZ
    Blend: AUG-CC-PVTZ
  Basis Set: (AUG-CC-PVTZ AUX)
    Blend: AUG-CC-PVTZ-JKFIT
	 Reference Energy          =    -156.1392190585885658 [Eh]
	 Singles Energy            =      -0.0000000000000000 [Eh]
	 Same-Spin Energy          =      -0.1670544490380463 [Eh]
	 Opposite-Spin Energy      =      -0.6123110279600137 [Eh]
	 Correlation Energy        =      -0.7793654769980600 [Eh]
	 Total Energy              =    -156.9185845355866320 [Eh]

	 ================> DF-SCS-MP2 Energies <==================
	-----------------------------------------------------------
	 SCS Same-Spin Scale       =       0.3333333333333333 [-]
	 SCS Opposite-Spin Scale   =       1.2000000000000000 [-]
	 SCS Same-Spin Energy      =      -0.0556848163460154 [Eh]
	 SCS Opposite-Spin Energy  =      -0.7347732335520164 [Eh]
	 SCS Correlation Energy    =      -0.7904580498980318 [Eh]
	 SCS Total Energy          =    -156.9296771084866009 [Eh]
	-----------------------------------------------------------

  Dipole Moment: [D]
     X:     0.0572      Y:     0.0134      Z:    -0.0184     Total:     0.0616

*** Psi4 exiting successfully. Buy a developer a beer!
