                               Psi4 1.3.2 release

  ==> Input File <==

--------------------------------------------------------------------------
#psi4
#
memory 32 gb

molecule  {
0 1
  C        0.1288010    -1.0637980     0.1468870
  C       -1.0637980    -0.1288010    -0.1468870
  C        1.0637980     0.1288010    -0.1468870
  C       -0.1288010     1.0637980     0.1468870
  H        0.1595220    -1.3173902     1.2106492
  H        0.2374859    -1.9609881    -0.4685283
  H       -1.3357820    -0.1617500    -1.2060290
  H       -1.9715140    -0.2387610     0.4526620
  H        1.9715140     0.2387610     0.4526620
  H        1.3357820     0.1617500    -1.2060290
  H       -0.2387610     1.9715140    -0.4526620
  H       -0.1617500     1.3357820     1.2060290
units angstrom
no_reorient  #important for SAPT in psi4, default
symmetry c1  #important for SAPT in psi4, default
}

set PROPERTIES_ORIGIN ["COM"]
properties('MP2/aug-cc-pvtz', properties = ['dipole'])
--------------------------------------------------------------------------

    Molecular point group: c1
  Charge       = 0
  Multiplicity = 1
  Basis Set: AUG-CC-PVTZ
    Blend: AUG-CC-PVTZ
  Basis Set: (AUG-CC-PVTZ AUX)
    Blend: AUG-CC-PVTZ-JKFIT

    Orbital Energies [Eh]
    ---------------------

    Doubly Occupied:

       1A    -11.216638     2A    -11.216178     3A    -11.215897
       4A    -11.215451     5A     -1.126197     6A     -0.890073
       7A     -0.889918     8A     -0.748943     9A     -0.647127
      10A     -0.640491    11A     -0.534440    12A     -0.532765
      13A     -0.483732    14A     -0.451953    15A     -0.435741
      16A     -0.434223

  @DF-RHF Final Energy:  -156.15042161582377

   => Energetics <=

    Nuclear Repulsion Energy =            127.5587381658084922
    One-Electron Energy =                -462.0587889791977432
    Two-Electron Energy =                 178.3496291975654628
    Total Energy =                       -156.1504216158237739
  Basis Set: (AUG-CC-PVTZ AUX)
    Blend: AUG-CC-PVTZ-RI
    Molecular point group: c1

    Geometry (in Angstrom), charge = 0, multiplicity = 1:

       Center              X                  Y                   Z               Mass
    ------------   -----------------  -----------------  -----------------  -----------------
         C            0.128863974458    -1.064317847132     0.147089168666    12.000000000000
         C           -1.063735025542    -0.129320847132    -0.146684831334    12.000000000000
         C            1.063860974458     0.128281152868    -0.146684831334    12.000000000000
         C           -0.128738025542     1.063278152868     0.147089168666    12.000000000000
         H            0.159584974458    -1.317910047132     1.210851368666     1.007825032230
         H            0.237548874458    -1.961507947132    -0.468326131334     1.007825032230
         H           -1.335719025542    -0.162269847132    -1.205826831334     1.007825032230
         H           -1.971451025542    -0.239280847132     0.452864168666     1.007825032230
         H            1.971576974458     0.238241152868     0.452864168666     1.007825032230
         H            1.335844974458     0.161230152868    -1.205826831334     1.007825032230
         H           -0.238698025542     1.970994152868    -0.452459831334     1.007825032230
         H           -0.161687025542     1.335262152868     1.206231168666     1.007825032230

  Basis Set: AUG-CC-PVTZ
    Blend: AUG-CC-PVTZ
  Basis Set: (AUG-CC-PVTZ AUX)
    Blend: AUG-CC-PVTZ-JKFIT
	 Reference Energy          =    -156.1504216158237739 [Eh]
	 Singles Energy            =      -0.0000000000000000 [Eh]
	 Same-Spin Energy          =      -0.1662406526448991 [Eh]
	 Opposite-Spin Energy      =      -0.6116922396902296 [Eh]
	 Correlation Energy        =      -0.7779328923351286 [Eh]
	 Total Energy              =    -156.9283545081588898 [Eh]

	 ================> DF-SCS-MP2 Energies <==================
	-----------------------------------------------------------
	 SCS Same-Spin Scale       =       0.3333333333333333 [-]
	 SCS Opposite-Spin Scale   =       1.2000000000000000 [-]
	 SCS Same-Spin Energy      =      -0.0554135508816330 [Eh]
	 SCS Opposite-Spin Energy  =      -0.7340306876282755 [Eh]
	 SCS Correlation Energy    =      -0.7894442385099085 [Eh]
	 SCS Total Energy          =    -156.9398658543336751 [Eh]
	-----------------------------------------------------------

  Dipole Moment: [D]
     X:    -0.0004      Y:     0.0033      Z:    -0.0040     Total:     0.0052

*** Psi4 exiting successfully. Buy a developer a beer!
