                               Psi4 1.3.2 release

  ==> Input File <==

--------------------------------------------------------------------------
#psi4
#
memory 32 gb

molecule  {
0 1
  C        0.1291601    -1.0673261     0.1338915
  C       -1.0637980    -0.1288010    -0.1468870
  C        1.0637980     0.1288010    -0.1468870
  C       -0.1288010     1.0637980     0.1468870
  H        0.1617500    -1.3357820     1.2060290
  H        0.2387610    -1.9715140    -0.4526620
  H       -1.3287823    -0.1680523    -1.2075874
  H       -1.9715140    -0.2387610     0.4526620
  H        1.9715140     0.2387610     0.4526620
  H        1.3357820     0.1617500    -1.2060290
  H       -0.2387610     1.9715140    -0.4526620
  H       -0.1617500     1.3357820     1.2060290
units angstrom
no_reorient  #important for SAPT in psi4, default
symmetry c1  #important for SAPT in psi4, default
}

set PROPERTIES_ORIGIN ["COM"]
properties('MP2/aug-cc-pvtz', properties = ['dipole'])
--------------------------------------------------------------------------

    Molecular point group: c1
  Charge       = 0
  Multiplicity = 1
  Basis Set: AUG-CC-PVTZ
    Blend: AUG-CC-PVTZ
  Basis Set: (AUG-CC-PVTZ AUX)
    Blend: AUG-CC-PVTZ-JKFIT

    Orbital Energies [Eh]
    ---------------------

    Doubly Occupied:

       1A    -11.216839     2A    -11.216313     3A    -11.216232
       4A    -11.215702     5A     -1.125823     6A     -0.890448
       7A     -0.890093     8A     -0.748815     9A     -0.647016
      10A     -0.641698    11A     -0.532819    12A     -0.531539
      13A     -0.484122    14A     -0.450265    15A     -0.437120
      16A     -0.435494

  @DF-RHF Final Energy:  -156.15032245003152

   => Energetics <=

    Nuclear Repulsion Energy =            127.5136825217973211
    One-Electron Energy =                -461.9673334413737393
    Two-Electron Energy =                 178.3033284695449083
    Total Energy =                       -156.1503224500315241
  Basis Set: (AUG-CC-PVTZ AUX)
    Blend: AUG-CC-PVTZ-RI
    Molecular point group: c1

    Geometry (in Angstrom), charge = 0, multiplicity = 1:

       Center              X                  Y                   Z               Mass
    ------------   -----------------  -----------------  -----------------  -----------------
         C            0.128957403856    -1.066457627694     0.136701155524    12.000000000000
         C           -1.064000696144    -0.127932527694    -0.144077344476    12.000000000000
         C            1.063595303856     0.129669472306    -0.144077344476    12.000000000000
         C           -0.129003696144     1.064666472306     0.149696655524    12.000000000000
         H            0.161547303856    -1.334913527694     1.208838655524     1.007825032230
         H            0.238558303856    -1.970645527694    -0.449852344476     1.007825032230
         H           -1.328984996144    -0.167183827694    -1.204777744476     1.007825032230
         H           -1.971716696144    -0.237892527694     0.455471655524     1.007825032230
         H            1.971311303856     0.239629472306     0.455471655524     1.007825032230
         H            1.335579303856     0.162618472306    -1.203219344476     1.007825032230
         H           -0.238963696144     1.972382472306    -0.449852344476     1.007825032230
         H           -0.161952696144     1.336650472306     1.208838655524     1.007825032230

  Basis Set: AUG-CC-PVTZ
    Blend: AUG-CC-PVTZ
  Basis Set: (AUG-CC-PVTZ AUX)
    Blend: AUG-CC-PVTZ-JKFIT
	 Reference Energy          =    -156.1503224500315241 [Eh]
	 Singles Energy            =      -0.0000000000000000 [Eh]
	 Same-Spin Energy          =      -0.1662257428162237 [Eh]
	 Opposite-Spin Energy      =      -0.6116694846120447 [Eh]
	 Correlation Energy        =      -0.7778952274282684 [Eh]
	 Total Energy              =    -156.9282176774597986 [Eh]

	 ================> DF-SCS-MP2 Energies <==================
	-----------------------------------------------------------
	 SCS Same-Spin Scale       =       0.3333333333333333 [-]
	 SCS Opposite-Spin Scale   =       1.2000000000000000 [-]
	 SCS Same-Spin Energy      =      -0.0554085809387412 [Eh]
	 SCS Opposite-Spin Energy  =      -0.7340033815344537 [Eh]
	 SCS Correlation Energy    =      -0.7894119624731949 [Eh]
	 SCS Total Energy          =    -156.9397344125047198 [Eh]
	-----------------------------------------------------------

  Dipole Moment: [D]
     X:     0.0015      Y:    -0.0044      Z:    -0.0093     Total:     0.0104

*** Psi4 exiting successfully. Buy a developer a beer!
