                               Psi4 1.3.2 release

  ==> Input File <==

--------------------------------------------------------------------------
#psi4
#
memory 32 gb

molecule  {
0 1
  C        0.0969306    -1.1060595     0.1368203
  C       -1.0637980    -0.1288010    -0.1468870
  C        1.0637980     0.1288010    -0.1468870
  C       -0.1698364     1.0972323     0.1368203
  H        0.1617500    -1.3357820     1.2060290
  H        0.2387610    -1.9715140    -0.4526620
  H       -1.3357820    -0.1617500    -1.2060290
  H       -1.9715140    -0.2387610     0.4526620
  H        1.9715140     0.2387610     0.4526620
  H        1.3357820     0.1617500    -1.2060290
  H       -0.2387610     1.9715140    -0.4526620
  H       -0.1617500     1.3357820     1.2060290
units angstrom
no_reorient  #important for SAPT in psi4, default
symmetry c1  #important for SAPT in psi4, default
}

set PROPERTIES_ORIGIN ["COM"]
properties('MP2/aug-cc-pvtz', properties = ['dipole'])
--------------------------------------------------------------------------

    Molecular point group: c1
  Charge       = 0
  Multiplicity = 1
  Basis Set: AUG-CC-PVTZ
    Blend: AUG-CC-PVTZ
  Basis Set: (AUG-CC-PVTZ AUX)
    Blend: AUG-CC-PVTZ-JKFIT

    Orbital Energies [Eh]
    ---------------------

    Doubly Occupied:

       1A    -11.220883     2A    -11.218789     3A    -11.215170
       4A    -11.215100     5A     -1.112639     6A     -0.895286
       7A     -0.884395     8A     -0.752615     9A     -0.651237
      10A     -0.633833    11A     -0.541542    12A     -0.530947
      13A     -0.481076    14A     -0.454874    15A     -0.437317
      16A     -0.421666

  @DF-RHF Final Energy:  -156.14552264810931

   => Energetics <=

    Nuclear Repulsion Energy =            126.4991942440773300
    One-Electron Energy =                -459.9546923518839776
    Two-Electron Energy =                 177.3099754596973412
    Total Energy =                       -156.1455226481093064
  Basis Set: (AUG-CC-PVTZ AUX)
    Blend: AUG-CC-PVTZ-RI
    Molecular point group: c1

    Geometry (in Angstrom), charge = 0, multiplicity = 1:

       Center              X                  Y                   Z               Mass
    ------------   -----------------  -----------------  -----------------  -----------------
         C            0.112535826942    -1.104170069265     0.141129782594    12.000000000000
         C           -1.048192773058    -0.126911569265    -0.142577517406    12.000000000000
         C            1.079403226942     0.130690430735    -0.142577517406    12.000000000000
         C           -0.154231173058     1.099121730735     0.141129782594    12.000000000000
         H            0.177355226942    -1.333892569265     1.210338482594     1.007825032230
         H            0.254366226942    -1.969624569265    -0.448352517406     1.007825032230
         H           -1.320176773058    -0.159860569265    -1.201719517406     1.007825032230
         H           -1.955908773058    -0.236871569265     0.456971482594     1.007825032230
         H            1.987119226942     0.240650430735     0.456971482594     1.007825032230
         H            1.351387226942     0.163639430735    -1.201719517406     1.007825032230
         H           -0.223155773058     1.973403430735    -0.448352517406     1.007825032230
         H           -0.146144773058     1.337671430735     1.210338482594     1.007825032230

  Basis Set: AUG-CC-PVTZ
    Blend: AUG-CC-PVTZ
  Basis Set: (AUG-CC-PVTZ AUX)
    Blend: AUG-CC-PVTZ-JKFIT
	 Reference Energy          =    -156.1455226481093064 [Eh]
	 Singles Energy            =      -0.0000000000000000 [Eh]
	 Same-Spin Energy          =      -0.1659769060785161 [Eh]
	 Opposite-Spin Energy      =      -0.6120921994168864 [Eh]
	 Correlation Energy        =      -0.7780691054954025 [Eh]
	 Total Energy              =    -156.9235917536047111 [Eh]

	 ================> DF-SCS-MP2 Energies <==================
	-----------------------------------------------------------
	 SCS Same-Spin Scale       =       0.3333333333333333 [-]
	 SCS Opposite-Spin Scale   =       1.2000000000000000 [-]
	 SCS Same-Spin Energy      =      -0.0553256353595054 [Eh]
	 SCS Opposite-Spin Energy  =      -0.7345106393002637 [Eh]
	 SCS Correlation Energy    =      -0.7898362746597691 [Eh]
	 SCS Total Energy          =    -156.9353589227690691 [Eh]
	-----------------------------------------------------------

  Dipole Moment: [D]
     X:     0.0166      Y:     0.0020      Z:    -0.0428     Total:     0.0460

*** Psi4 exiting successfully. Buy a developer a beer!
