                               Psi4 1.3.2 release

  ==> Input File <==

--------------------------------------------------------------------------
#psi4
#
memory 32 gb

molecule  {
0 1
  C        0.1288010    -1.0637980     0.1468870
  C       -1.0637980    -0.1288010    -0.1468870
  C        1.0637980     0.1288010    -0.1468870
  C       -0.1288010     1.0637980     0.1468870
  H        0.1628603    -1.3449472     1.2035978
  H        0.2393860    -1.9766734    -0.4446600
  H       -1.3357820    -0.1617500    -1.2060290
  H       -1.9715140    -0.2387610     0.4526620
  H        1.9715140     0.2387610     0.4526620
  H        1.3357820     0.1617500    -1.2060290
  H       -0.2387610     1.9715140    -0.4526620
  H       -0.1617500     1.3357820     1.2060290
units angstrom
no_reorient  #important for SAPT in psi4, default
symmetry c1  #important for SAPT in psi4, default
}

set PROPERTIES_ORIGIN ["COM"]
properties('MP2/aug-cc-pvtz', properties = ['dipole'])
--------------------------------------------------------------------------

    Molecular point group: c1
  Charge       = 0
  Multiplicity = 1
  Basis Set: AUG-CC-PVTZ
    Blend: AUG-CC-PVTZ
  Basis Set: (AUG-CC-PVTZ AUX)
    Blend: AUG-CC-PVTZ-JKFIT

    Orbital Energies [Eh]
    ---------------------

    Doubly Occupied:

       1A    -11.216831     2A    -11.216333     3A    -11.216189
       4A    -11.215685     5A     -1.125905     6A     -0.890268
       7A     -0.890182     8A     -0.749865     9A     -0.645650
      10A     -0.641875    11A     -0.532835    12A     -0.531971
      13A     -0.483733    14A     -0.451009    15A     -0.436601
      16A     -0.435874

  @DF-RHF Final Energy:  -156.15053966860677

   => Energetics <=

    Nuclear Repulsion Energy =            127.5105661601219822
    One-Electron Energy =                -461.9605946720300835
    Two-Electron Energy =                 178.2994888433013330
    Total Energy =                       -156.1505396686067684
  Basis Set: (AUG-CC-PVTZ AUX)
    Blend: AUG-CC-PVTZ-RI
    Molecular point group: c1

    Geometry (in Angstrom), charge = 0, multiplicity = 1:

       Center              X                  Y                   Z               Mass
    ------------   -----------------  -----------------  -----------------  -----------------
         C            0.128769804894    -1.063540489817     0.146786854954    12.000000000000
         C           -1.063829195106    -0.128543489817    -0.146987145046    12.000000000000
         C            1.063766804894     0.129058510183    -0.146987145046    12.000000000000
         C           -0.128832195106     1.064055510183     0.146786854954    12.000000000000
         H            0.162829104894    -1.344689689817     1.203497654954     1.007825032230
         H            0.239354804894    -1.976415889817    -0.444760145046     1.007825032230
         H           -1.335813195106    -0.161492489817    -1.206129145046     1.007825032230
         H           -1.971545195106    -0.238503489817     0.452561854954     1.007825032230
         H            1.971482804894     0.239018510183     0.452561854954     1.007825032230
         H            1.335750804894     0.162007510183    -1.206129145046     1.007825032230
         H           -0.238792195106     1.971771510183    -0.452762145046     1.007825032230
         H           -0.161781195106     1.336039510183     1.205928854954     1.007825032230

  Basis Set: AUG-CC-PVTZ
    Blend: AUG-CC-PVTZ
  Basis Set: (AUG-CC-PVTZ AUX)
    Blend: AUG-CC-PVTZ-JKFIT
	 Reference Energy          =    -156.1505396686067684 [Eh]
	 Singles Energy            =      -0.0000000000000000 [Eh]
	 Same-Spin Energy          =      -0.1662039766357352 [Eh]
	 Opposite-Spin Energy      =      -0.6115902418092533 [Eh]
	 Correlation Energy        =      -0.7777942184449884 [Eh]
	 Total Energy              =    -156.9283338870517639 [Eh]

	 ================> DF-SCS-MP2 Energies <==================
	-----------------------------------------------------------
	 SCS Same-Spin Scale       =       0.3333333333333333 [-]
	 SCS Opposite-Spin Scale   =       1.2000000000000000 [-]
	 SCS Same-Spin Energy      =      -0.0554013255452451 [Eh]
	 SCS Opposite-Spin Energy  =      -0.7339082901711039 [Eh]
	 SCS Correlation Energy    =      -0.7893096157163491 [Eh]
	 SCS Total Energy          =    -156.9398492843231168 [Eh]
	-----------------------------------------------------------

  Dipole Moment: [D]
     X:     0.0002      Y:    -0.0016      Z:     0.0020     Total:     0.0026

*** Psi4 exiting successfully. Buy a developer a beer!
