                               Psi4 1.3.2 release

  ==> Input File <==

--------------------------------------------------------------------------
#psi4
#
memory 32 gb

molecule  {
0 1
  C        0.1365430    -1.0530526     0.1493482
  C       -1.0637980    -0.1288010    -0.1468870
  C        1.0637980     0.1288010    -0.1468870
  C       -0.1187182     1.0552108     0.1493482
  H        0.1617500    -1.3357820     1.2060290
  H        0.2387610    -1.9715140    -0.4526620
  H       -1.3357820    -0.1617500    -1.2060290
  H       -1.9715140    -0.2387610     0.4526620
  H        1.9715140     0.2387610     0.4526620
  H        1.3357820     0.1617500    -1.2060290
  H       -0.2387610     1.9715140    -0.4526620
  H       -0.1617500     1.3357820     1.2060290
units angstrom
no_reorient  #important for SAPT in psi4, default
symmetry c1  #important for SAPT in psi4, default
}

set PROPERTIES_ORIGIN ["COM"]
properties('MP2/aug-cc-pvtz', properties = ['dipole'])
--------------------------------------------------------------------------

    Molecular point group: c1
  Charge       = 0
  Multiplicity = 1
  Basis Set: AUG-CC-PVTZ
    Blend: AUG-CC-PVTZ
  Basis Set: (AUG-CC-PVTZ AUX)
    Blend: AUG-CC-PVTZ-JKFIT

    Orbital Energies [Eh]
    ---------------------

    Doubly Occupied:

       1A    -11.216890     2A    -11.216667     3A    -11.215529
       4A    -11.214915     5A     -1.129824     6A     -0.891734
       7A     -0.888907     8A     -0.749004     9A     -0.646125
      10A     -0.642226    11A     -0.533383    12A     -0.530813
      13A     -0.486170    14A     -0.450380    15A     -0.439261
      16A     -0.433293

  @DF-RHF Final Energy:  -156.14993204813874

   => Energetics <=

    Nuclear Repulsion Energy =            127.7943363596255182
    One-Electron Energy =                -462.5182954322570481
    Two-Electron Energy =                 178.5740270244928070
    Total Energy =                       -156.1499320481387372
  Basis Set: (AUG-CC-PVTZ AUX)
    Blend: AUG-CC-PVTZ-RI
    Molecular point group: c1

    Geometry (in Angstrom), charge = 0, multiplicity = 1:

       Center              X                  Y                   Z               Mass
    ------------   -----------------  -----------------  -----------------  -----------------
         C            0.132727665017    -1.053514555027     0.148294577804    12.000000000000
         C           -1.067613334983    -0.129262955027    -0.147940622196    12.000000000000
         C            1.059982665017     0.128339044973    -0.147940622196    12.000000000000
         C           -0.122533534983     1.054748844973     0.148294577804    12.000000000000
         H            0.157934665017    -1.336243955027     1.204975377804     1.007825032230
         H            0.234945665017    -1.971975955027    -0.453715622196     1.007825032230
         H           -1.339597334983    -0.162211955027    -1.207082622196     1.007825032230
         H           -1.975329334983    -0.239222955027     0.451608377804     1.007825032230
         H            1.967698665017     0.238299044973     0.451608377804     1.007825032230
         H            1.331966665017     0.161288044973    -1.207082622196     1.007825032230
         H           -0.242576334983     1.971052044973    -0.453715622196     1.007825032230
         H           -0.165565334983     1.335320044973     1.204975377804     1.007825032230

  Basis Set: AUG-CC-PVTZ
    Blend: AUG-CC-PVTZ
  Basis Set: (AUG-CC-PVTZ AUX)
    Blend: AUG-CC-PVTZ-JKFIT
	 Reference Energy          =    -156.1499320481387372 [Eh]
	 Singles Energy            =      -0.0000000000000000 [Eh]
	 Same-Spin Energy          =      -0.1663439221217990 [Eh]
	 Opposite-Spin Energy      =      -0.6116319938736779 [Eh]
	 Correlation Energy        =      -0.7779759159954769 [Eh]
	 Total Energy              =    -156.9279079641342207 [Eh]

	 ================> DF-SCS-MP2 Energies <==================
	-----------------------------------------------------------
	 SCS Same-Spin Scale       =       0.3333333333333333 [-]
	 SCS Opposite-Spin Scale   =       1.2000000000000000 [-]
	 SCS Same-Spin Energy      =      -0.0554479740405997 [Eh]
	 SCS Opposite-Spin Energy  =      -0.7339583926484136 [Eh]
	 SCS Correlation Energy    =      -0.7894063666890132 [Eh]
	 SCS Total Energy          =    -156.9393384148277448 [Eh]
	-----------------------------------------------------------

  Dipole Moment: [D]
     X:    -0.0026      Y:    -0.0003      Z:     0.0117     Total:     0.0120

*** Psi4 exiting successfully. Buy a developer a beer!
