                               Psi4 1.3.2 release

  ==> Input File <==

--------------------------------------------------------------------------
#psi4
#
memory 32 gb

molecule  {
0 1
  C        0.0804626    -1.1267469     0.1316566
  C       -1.0637980    -0.1288010    -0.1468870
  C        1.0637980     0.1288010    -0.1468870
  C       -0.1907657     1.1133918     0.1316566
  H        0.1617500    -1.3357820     1.2060290
  H        0.2387610    -1.9715140    -0.4526620
  H       -1.3357820    -0.1617500    -1.2060290
  H       -1.9715140    -0.2387610     0.4526620
  H        1.9715140     0.2387610     0.4526620
  H        1.3357820     0.1617500    -1.2060290
  H       -0.2387610     1.9715140    -0.4526620
  H       -0.1617500     1.3357820     1.2060290
units angstrom
no_reorient  #important for SAPT in psi4, default
symmetry c1  #important for SAPT in psi4, default
}

set PROPERTIES_ORIGIN ["COM"]
properties('MP2/aug-cc-pvtz', properties = ['dipole'])
--------------------------------------------------------------------------

    Molecular point group: c1
  Charge       = 0
  Multiplicity = 1
  Basis Set: AUG-CC-PVTZ
    Blend: AUG-CC-PVTZ
  Basis Set: (AUG-CC-PVTZ AUX)
    Blend: AUG-CC-PVTZ-JKFIT

    Orbital Energies [Eh]
    ---------------------

    Doubly Occupied:

       1A    -11.223236     2A    -11.220281     3A    -11.215171
       4A    -11.215119     5A     -1.107017     6A     -0.897956
       7A     -0.881890     8A     -0.754690     9A     -0.654022
      10A     -0.630091    11A     -0.546136    12A     -0.530266
      13A     -0.484183    14A     -0.456225    15A     -0.432894
      16A     -0.414648

  @DF-RHF Final Energy:  -156.13874911553609

   => Energetics <=

    Nuclear Repulsion Energy =            126.0102692198038454
    One-Electron Energy =                -458.9703902169945877
    Two-Electron Energy =                 176.8213718816546702
    Total Energy =                       -156.1387491155360863
  Basis Set: (AUG-CC-PVTZ AUX)
    Blend: AUG-CC-PVTZ-RI
    Molecular point group: c1

    Geometry (in Angstrom), charge = 0, multiplicity = 1:

       Center              X                  Y                   Z               Mass
    ------------   -----------------  -----------------  -----------------  -----------------
         C            0.104072585871    -1.123888288390     0.138176625798    12.000000000000
         C           -1.040188014129    -0.125942388390    -0.140366974202    12.000000000000
         C            1.087407985871     0.131659611610    -0.140366974202    12.000000000000
         C           -0.167155714129     1.116250411610     0.138176625798    12.000000000000
         H            0.185359985871    -1.332923388390     1.212549025798     1.007825032230
         H            0.262370985871    -1.968655388390    -0.446141974202     1.007825032230
         H           -1.312172014129    -0.158891388390    -1.199508974202     1.007825032230
         H           -1.947904014129    -0.235902388390     0.459182025798     1.007825032230
         H            1.995123985871     0.241619611610     0.459182025798     1.007825032230
         H            1.359391985871     0.164608611610    -1.199508974202     1.007825032230
         H           -0.215151014129     1.974372611610    -0.446141974202     1.007825032230
         H           -0.138140014129     1.338640611610     1.212549025798     1.007825032230

  Basis Set: AUG-CC-PVTZ
    Blend: AUG-CC-PVTZ
  Basis Set: (AUG-CC-PVTZ AUX)
    Blend: AUG-CC-PVTZ-JKFIT
	 Reference Energy          =    -156.1387491155360863 [Eh]
	 Singles Energy            =      -0.0000000000000000 [Eh]
	 Same-Spin Energy          =      -0.1660219659446567 [Eh]
	 Opposite-Spin Energy      =      -0.6126360681347803 [Eh]
	 Correlation Energy        =      -0.7786580340794370 [Eh]
	 Total Energy              =    -156.9174071496155136 [Eh]

	 ================> DF-SCS-MP2 Energies <==================
	-----------------------------------------------------------
	 SCS Same-Spin Scale       =       0.3333333333333333 [-]
	 SCS Opposite-Spin Scale   =       1.2000000000000000 [-]
	 SCS Same-Spin Energy      =      -0.0553406553148856 [Eh]
	 SCS Opposite-Spin Energy  =      -0.7351632817617364 [Eh]
	 SCS Correlation Energy    =      -0.7905039370766219 [Eh]
	 SCS Total Energy          =    -156.9292530526127223 [Eh]
	-----------------------------------------------------------

  Dipole Moment: [D]
     X:     0.0288      Y:     0.0035      Z:    -0.0624     Total:     0.0688

*** Psi4 exiting successfully. Buy a developer a beer!
