                               Psi4 1.3.2 release

  ==> Input File <==

--------------------------------------------------------------------------
#psi4
#
memory 32 gb

molecule  {
0 1
  O       -1.4243350     1.8531120    -0.0084660
  N       -1.1176450    -0.4263010     0.0065070
  N        0.7429240     1.0712790     0.0095610
  N        2.8919430     0.2615640    -0.0759850
  C       -0.2733660    -1.4960510    -0.0007800
  C        1.0765330    -1.3300920    -0.0040440
  C       -0.6338910     0.9109410     0.0155220
  C       -2.5617390    -0.6507120     0.0005160
  C        1.5376510     0.0247200    -0.0002060
  H       -0.7522370    -2.4720050    -0.0099570
  H        1.7526807    -2.1717729    -0.2813562
  H       -2.8635010    -1.2105310     0.8892080
  H       -2.8583950    -1.1972750    -0.8980640
  H       -3.0263160     0.3321150     0.0069490
  H        3.5027140    -0.4263080     0.3467730
  H        3.1453740     1.2255370     0.1175850
units angstrom
no_reorient  #important for SAPT in psi4, default
symmetry c1  #important for SAPT in psi4, default
}

set PROPERTIES_ORIGIN ["COM"]
properties('MP2/aug-cc-pvtz', properties = ['dipole'])
--------------------------------------------------------------------------

    Molecular point group: c1
  Charge       = 0
  Multiplicity = 1
  Basis Set: AUG-CC-PVTZ
    Blend: AUG-CC-PVTZ
  Basis Set: (AUG-CC-PVTZ AUX)
    Blend: AUG-CC-PVTZ-JKFIT

    Orbital Energies [Eh]
    ---------------------

    Doubly Occupied:

       1A    -20.504283     2A    -15.626314     3A    -15.591253
       4A    -15.543692     5A    -11.372784     6A    -11.349213
       7A    -11.328252     8A    -11.270941     9A    -11.247802
      10A     -1.383181    11A     -1.296351    12A     -1.267695
      13A     -1.170713    14A     -1.072086    15A     -0.965443
      16A     -0.899352    17A     -0.853111    18A     -0.759089
      19A     -0.722659    20A     -0.683448    21A     -0.673102
      22A     -0.655929    23A     -0.620394    24A     -0.601801
      25A     -0.589247    26A     -0.580225    27A     -0.559040
      28A     -0.522259    29A     -0.476246    30A     -0.441066
      31A     -0.419716    32A     -0.387949    33A     -0.339232

  @DF-RHF Final Energy:  -431.79734213230324

   => Energetics <=

    Nuclear Repulsion Energy =            440.8021135064525424
    One-Electron Energy =               -1461.6511790156428106
    Two-Electron Energy =                 589.0517233768870256
    Total Energy =                       -431.7973421323032426
  Basis Set: (AUG-CC-PVTZ AUX)
    Blend: AUG-CC-PVTZ-RI
    Molecular point group: c1

    Geometry (in Angstrom), charge = 0, multiplicity = 1:

       Center              X                  Y                   Z               Mass
    ------------   -----------------  -----------------  -----------------  -----------------
         O           -1.433136451146     1.806143344354    -0.003109627043    15.994914619570
         N           -1.126446451146    -0.473269655646     0.011863372957    14.003074004430
         N            0.734122548854     1.024310344354     0.014917372957    14.003074004430
         N            2.883141548854     0.214595344354    -0.070628627043    14.003074004430
         C           -0.282167451146    -1.543019655646     0.004576372957    12.000000000000
         C            1.067731548854    -1.377060655646     0.001312372957    12.000000000000
         C           -0.642692451146     0.863972344354     0.020878372957    12.000000000000
         C           -2.570540451146    -0.697680655646     0.005872372957    12.000000000000
         C            1.528849548854    -0.022248655646     0.005150372957    12.000000000000
         H           -0.761038451146    -2.518973655646    -0.004600627043     1.007825032230
         H            1.743879248854    -2.218741555646    -0.275999827043     1.007825032230
         H           -2.872302451146    -1.257499655646     0.894564372957     1.007825032230
         H           -2.867196451146    -1.244243655646    -0.892707627043     1.007825032230
         H           -3.035117451146     0.285146344354     0.012305372957     1.007825032230
         H            3.493912548854    -0.473276655646     0.352129372957     1.007825032230
         H            3.136572548854     1.178568344354     0.122941372957     1.007825032230

  Basis Set: AUG-CC-PVTZ
    Blend: AUG-CC-PVTZ
  Basis Set: (AUG-CC-PVTZ AUX)
    Blend: AUG-CC-PVTZ-JKFIT
	 Reference Energy          =    -431.7973421323032426 [Eh]
	 Singles Energy            =      -0.0000000000000000 [Eh]
	 Same-Spin Energy          =      -0.4505288290043578 [Eh]
	 Opposite-Spin Energy      =      -1.3724504405486289 [Eh]
	 Correlation Energy        =      -1.8229792695529867 [Eh]
	 Total Energy              =    -433.6203214018562448 [Eh]

	 ================> DF-SCS-MP2 Energies <==================
	-----------------------------------------------------------
	 SCS Same-Spin Scale       =       0.3333333333333333 [-]
	 SCS Opposite-Spin Scale   =       1.2000000000000000 [-]
	 SCS Same-Spin Energy      =      -0.1501762763347859 [Eh]
	 SCS Opposite-Spin Energy  =      -1.6469405286583545 [Eh]
	 SCS Correlation Energy    =      -1.7971168049931405 [Eh]
	 SCS Total Energy          =    -433.5944589372963947 [Eh]
	-----------------------------------------------------------

  Dipole Moment: [D]
     X:     1.6479      Y:    -5.5775      Z:     0.6486     Total:     5.8519

*** Psi4 exiting successfully. Buy a developer a beer!
