                               Psi4 1.3.2 release

  ==> Input File <==

--------------------------------------------------------------------------
#psi4
#
memory 32 gb

molecule  {
0 1
  O       -1.4243350     1.8531120    -0.0084660
  N       -1.1176450    -0.4263010     0.0065070
  N        0.7429240     1.0712790     0.0095610
  N        2.8919430     0.2615640    -0.0759850
  C       -0.2733660    -1.4960510    -0.0007800
  C        1.0765330    -1.3300920    -0.0040440
  C       -0.6338910     0.9109410     0.0155220
  C       -2.5617390    -0.6507120     0.0005160
  C        1.5376510     0.0247200    -0.0002060
  H       -0.7522370    -2.4720050    -0.0099570
  H        1.7553550    -2.1750520    -0.0313920
  H       -2.8635010    -1.2105310     0.8892080
  H       -2.8583950    -1.1972750    -0.8980640
  H       -3.0263160     0.3321150     0.0069490
  H        3.5027140    -0.4263080     0.3467730
  H        3.1004528     1.2567456     0.4125564
units angstrom
no_reorient  #important for SAPT in psi4, default
symmetry c1  #important for SAPT in psi4, default
}

set PROPERTIES_ORIGIN ["COM"]
properties('MP2/aug-cc-pvtz', properties = ['dipole'])
--------------------------------------------------------------------------

    Molecular point group: c1
  Charge       = 0
  Multiplicity = 1
  Basis Set: AUG-CC-PVTZ
    Blend: AUG-CC-PVTZ
  Basis Set: (AUG-CC-PVTZ AUX)
    Blend: AUG-CC-PVTZ-JKFIT

    Orbital Energies [Eh]
    ---------------------

    Doubly Occupied:

       1A    -20.504685     2A    -15.626918     3A    -15.600480
       4A    -15.545347     5A    -11.373384     6A    -11.349111
       7A    -11.328292     8A    -11.271380     9A    -11.246668
      10A     -1.383710    11A     -1.296007    12A     -1.265524
      13A     -1.166732    14A     -1.072821    15A     -0.964719
      16A     -0.898536    17A     -0.852538    18A     -0.751567
      19A     -0.721676    20A     -0.686356    21A     -0.656820
      22A     -0.655994    23A     -0.619011    24A     -0.596478
      25A     -0.587228    26A     -0.579844    27A     -0.559559
      28A     -0.524090    29A     -0.477516    30A     -0.441888
      31A     -0.420926    32A     -0.391980    33A     -0.339833

  @DF-RHF Final Energy:  -431.78682649218615

   => Energetics <=

    Nuclear Repulsion Energy =            440.5468486408767603
    One-Electron Energy =               -1461.1521110351152402
    Two-Electron Energy =                 588.8184359020523289
    Total Energy =                       -431.7868264921861510
  Basis Set: (AUG-CC-PVTZ AUX)
    Blend: AUG-CC-PVTZ-RI
    Molecular point group: c1

    Geometry (in Angstrom), charge = 0, multiplicity = 1:

       Center              X                  Y                   Z               Mass
    ------------   -----------------  -----------------  -----------------  -----------------
         O           -1.432795991736     1.805918266038    -0.007501155248    15.994914619570
         N           -1.126105991736    -0.473494733962     0.007471844752    14.003074004430
         N            0.734463008264     1.024085266038     0.010525844752    14.003074004430
         N            2.883482008264     0.214370266038    -0.075020155248    14.003074004430
         C           -0.281826991736    -1.543244733962     0.000184844752    12.000000000000
         C            1.068072008264    -1.377285733962    -0.003079155248    12.000000000000
         C           -0.642351991736     0.863747266038     0.016486844752    12.000000000000
         C           -2.570199991736    -0.697905733962     0.001480844752    12.000000000000
         C            1.529190008264    -0.022473733962     0.000758844752    12.000000000000
         H           -0.760697991736    -2.519198733962    -0.008992155248     1.007825032230
         H            1.746894008264    -2.222245733962    -0.030427155248     1.007825032230
         H           -2.871961991736    -1.257724733962     0.890172844752     1.007825032230
         H           -2.866855991736    -1.244468733962    -0.897099155248     1.007825032230
         H           -3.034776991736     0.284921266038     0.007913844752     1.007825032230
         H            3.494253008264    -0.473501733962     0.347737844752     1.007825032230
         H            3.091991808264     1.209551866038     0.413521244752     1.007825032230

  Basis Set: AUG-CC-PVTZ
    Blend: AUG-CC-PVTZ
  Basis Set: (AUG-CC-PVTZ AUX)
    Blend: AUG-CC-PVTZ-JKFIT
	 Reference Energy          =    -431.7868264921861510 [Eh]
	 Singles Energy            =      -0.0000000000000000 [Eh]
	 Same-Spin Energy          =      -0.4512568649952153 [Eh]
	 Opposite-Spin Energy      =      -1.3746315508250979 [Eh]
	 Correlation Energy        =      -1.8258884158203132 [Eh]
	 Total Energy              =    -433.6127149080064669 [Eh]

	 ================> DF-SCS-MP2 Energies <==================
	-----------------------------------------------------------
	 SCS Same-Spin Scale       =       0.3333333333333333 [-]
	 SCS Opposite-Spin Scale   =       1.2000000000000000 [-]
	 SCS Same-Spin Energy      =      -0.1504189549984051 [Eh]
	 SCS Opposite-Spin Energy  =      -1.6495578609901174 [Eh]
	 SCS Correlation Energy    =      -1.7999768159885225 [Eh]
	 SCS Total Energy          =    -433.5868033081746944 [Eh]
	-----------------------------------------------------------

  Dipole Moment: [D]
     X:     1.4526      Y:    -5.7117      Z:     1.1559     Total:     6.0058

*** Psi4 exiting successfully. Buy a developer a beer!
