                               Psi4 1.3.2 release

  ==> Input File <==

--------------------------------------------------------------------------
#psi4
#
memory 32 gb

molecule  {
0 1
  O       -1.4243350     1.8531120    -0.0084660
  N       -1.1176450    -0.4263010     0.0065070
  N        0.7419863     1.0721381     0.1595556
  N        2.8919430     0.2615640    -0.0759850
  C       -0.2733660    -1.4960510    -0.0007800
  C        1.0765330    -1.3300920    -0.0040440
  C       -0.6338910     0.9109410     0.0155220
  C       -2.5617390    -0.6507120     0.0005160
  C        1.5376510     0.0247200    -0.0002060
  H       -0.7522370    -2.4720050    -0.0099570
  H        1.7553550    -2.1750520    -0.0313920
  H       -2.8635010    -1.2105310     0.8892080
  H       -2.8583950    -1.1972750    -0.8980640
  H       -3.0263160     0.3321150     0.0069490
  H        3.5027140    -0.4263080     0.3467730
  H        3.1453740     1.2255370     0.1175850
units angstrom
no_reorient  #important for SAPT in psi4, default
symmetry c1  #important for SAPT in psi4, default
}

set PROPERTIES_ORIGIN ["COM"]
properties('MP2/aug-cc-pvtz', properties = ['dipole'])
--------------------------------------------------------------------------

    Molecular point group: c1
  Charge       = 0
  Multiplicity = 1
  Basis Set: AUG-CC-PVTZ
    Blend: AUG-CC-PVTZ
  Basis Set: (AUG-CC-PVTZ AUX)
    Blend: AUG-CC-PVTZ-JKFIT

    Orbital Energies [Eh]
    ---------------------

    Doubly Occupied:

       1A    -20.504358     2A    -15.625475     3A    -15.592160
       4A    -15.545246     5A    -11.372497     6A    -11.350779
       7A    -11.327281     8A    -11.270593     9A    -11.246122
      10A     -1.382267    11A     -1.295199    12A     -1.266788
      13A     -1.168452    14A     -1.072677    15A     -0.964905
      16A     -0.899446    17A     -0.851034    18A     -0.757494
      19A     -0.723780    20A     -0.687600    21A     -0.674390
      22A     -0.654798    23A     -0.622196    24A     -0.601556
      25A     -0.593299    26A     -0.577176    27A     -0.559192
      28A     -0.518734    29A     -0.476932    30A     -0.442002
      31A     -0.418794    32A     -0.388426    33A     -0.338768

  @DF-RHF Final Energy:  -431.79752500110294

   => Energetics <=

    Nuclear Repulsion Energy =            440.5541630465173171
    One-Electron Energy =               -1461.1625433652186530
    Two-Electron Energy =                 588.8108553175984525
    Total Energy =                       -431.7975250011029402
  Basis Set: (AUG-CC-PVTZ AUX)
    Blend: AUG-CC-PVTZ-RI
    Molecular point group: c1

    Geometry (in Angstrom), charge = 0, multiplicity = 1:

       Center              X                  Y                   Z               Mass
    ------------   -----------------  -----------------  -----------------  -----------------
         O           -1.433053006825     1.806073574981    -0.021919207480    15.994914619570
         N           -1.126363006825    -0.473339425019    -0.006946207480    14.003074004430
         N            0.733268293175     1.025099674981     0.146102392520    14.003074004430
         N            2.883224993175     0.214525574981    -0.089438207480    14.003074004430
         C           -0.282084006825    -1.543089425019    -0.014233207480    12.000000000000
         C            1.067814993175    -1.377130425019    -0.017497207480    12.000000000000
         C           -0.642609006825     0.863902574981     0.002068792520    12.000000000000
         C           -2.570457006825    -0.697750425019    -0.012937207480    12.000000000000
         C            1.528932993175    -0.022318425019    -0.013659207480    12.000000000000
         H           -0.760955006825    -2.519043425019    -0.023410207480     1.007825032230
         H            1.746636993175    -2.222090425019    -0.044845207480     1.007825032230
         H           -2.872219006825    -1.257569425019     0.875754792520     1.007825032230
         H           -2.867113006825    -1.244313425019    -0.911517207480     1.007825032230
         H           -3.035034006825     0.285076574981    -0.006504207480     1.007825032230
         H            3.493995993175    -0.473346425019     0.333319792520     1.007825032230
         H            3.136655993175     1.178498574981     0.104131792520     1.007825032230

  Basis Set: AUG-CC-PVTZ
    Blend: AUG-CC-PVTZ
  Basis Set: (AUG-CC-PVTZ AUX)
    Blend: AUG-CC-PVTZ-JKFIT
	 Reference Energy          =    -431.7975250011029402 [Eh]
	 Singles Energy            =      -0.0000000000000000 [Eh]
	 Same-Spin Energy          =      -0.4506125959212773 [Eh]
	 Opposite-Spin Energy      =      -1.3727481231248704 [Eh]
	 Correlation Energy        =      -1.8233607190461476 [Eh]
	 Total Energy              =    -433.6208857201490900 [Eh]

	 ================> DF-SCS-MP2 Energies <==================
	-----------------------------------------------------------
	 SCS Same-Spin Scale       =       0.3333333333333333 [-]
	 SCS Opposite-Spin Scale   =       1.2000000000000000 [-]
	 SCS Same-Spin Energy      =      -0.1502041986404258 [Eh]
	 SCS Opposite-Spin Energy  =      -1.6472977477498445 [Eh]
	 SCS Correlation Energy    =      -1.7975019463902702 [Eh]
	 SCS Total Energy          =    -433.5950269474932384 [Eh]
	-----------------------------------------------------------

  Dipole Moment: [D]
     X:     1.6940      Y:    -5.6232      Z:     0.6256     Total:     5.9060

*** Psi4 exiting successfully. Buy a developer a beer!
