                               Psi4 1.3.2 release

  ==> Input File <==

--------------------------------------------------------------------------
#psi4
#
memory 32 gb

molecule  {
0 1
  O       -1.4243350     1.8531120    -0.0084660
  N       -1.1176450    -0.4263010     0.0065070
  N        0.7429240     1.0712790     0.0095610
  N        2.8919430     0.2615640    -0.0759850
  C       -0.2733660    -1.4960510    -0.0007800
  C        1.0765330    -1.3300920    -0.0040440
  C       -0.6338910     0.9109410     0.0155220
  C       -2.5617390    -0.6507120     0.0005160
  C        1.5376510     0.0247200    -0.0002060
  H       -0.7522370    -2.4720050    -0.0099570
  H        1.7532156    -2.1724288    -0.2313634
  H       -2.8635010    -1.2105310     0.8892080
  H       -2.8583950    -1.1972750    -0.8980640
  H       -3.0263160     0.3321150     0.0069490
  H        3.5027140    -0.4263080     0.3467730
  H        3.1453740     1.2255370     0.1175850
units angstrom
no_reorient  #important for SAPT in psi4, default
symmetry c1  #important for SAPT in psi4, default
}

set PROPERTIES_ORIGIN ["COM"]
properties('MP2/aug-cc-pvtz', properties = ['dipole'])
--------------------------------------------------------------------------

    Molecular point group: c1
  Charge       = 0
  Multiplicity = 1
  Basis Set: AUG-CC-PVTZ
    Blend: AUG-CC-PVTZ
  Basis Set: (AUG-CC-PVTZ AUX)
    Blend: AUG-CC-PVTZ-JKFIT

    Orbital Energies [Eh]
    ---------------------

    Doubly Occupied:

       1A    -20.504048     2A    -15.626020     3A    -15.591324
       4A    -15.543639     5A    -11.372604     6A    -11.349215
       7A    -11.327921     8A    -11.270789     9A    -11.247116
      10A     -1.382983    11A     -1.296230    12A     -1.267607
      13A     -1.170692    14A     -1.072284    15A     -0.965390
      16A     -0.899359    17A     -0.853284    18A     -0.759045
      19A     -0.723035    20A     -0.684006    21A     -0.673583
      22A     -0.655788    23A     -0.620948    24A     -0.601768
      25A     -0.590058    26A     -0.580314    27A     -0.559114
      28A     -0.522198    29A     -0.476230    30A     -0.441001
      31A     -0.419693    32A     -0.387920    33A     -0.339163

  @DF-RHF Final Energy:  -431.79874072975338

   => Energetics <=

    Nuclear Repulsion Energy =            440.8424192043534617
    One-Electron Energy =               -1461.7335827730191795
    Two-Electron Energy =                 589.0924228389122845
    Total Energy =                       -431.7987407297533764
  Basis Set: (AUG-CC-PVTZ AUX)
    Blend: AUG-CC-PVTZ-RI
    Molecular point group: c1

    Geometry (in Angstrom), charge = 0, multiplicity = 1:

       Center              X                  Y                   Z               Mass
    ------------   -----------------  -----------------  -----------------  -----------------
         O           -1.433140761800     1.806148630122    -0.003512509129    15.994914619570
         N           -1.126450761800    -0.473264369878     0.011460490871    14.003074004430
         N            0.734118238200     1.024315630122     0.014514490871    14.003074004430
         N            2.883137238200     0.214600630122    -0.071031509129    14.003074004430
         C           -0.282171761800    -1.543014369878     0.004173490871    12.000000000000
         C            1.067727238200    -1.377055369878     0.000909490871    12.000000000000
         C           -0.642696761800     0.863977630122     0.020475490871    12.000000000000
         C           -2.570544761800    -0.697675369878     0.005469490871    12.000000000000
         C            1.528845238200    -0.022243369878     0.004747490871    12.000000000000
         H           -0.761042761800    -2.518968369878    -0.005003509129     1.007825032230
         H            1.744409838200    -2.219392169878    -0.226409909129     1.007825032230
         H           -2.872306761800    -1.257494369878     0.894161490871     1.007825032230
         H           -2.867200761800    -1.244238369878    -0.893110509129     1.007825032230
         H           -3.035121761800     0.285151630122     0.011902490871     1.007825032230
         H            3.493908238200    -0.473271369878     0.351726490871     1.007825032230
         H            3.136568238200     1.178573630122     0.122538490871     1.007825032230

  Basis Set: AUG-CC-PVTZ
    Blend: AUG-CC-PVTZ
  Basis Set: (AUG-CC-PVTZ AUX)
    Blend: AUG-CC-PVTZ-JKFIT
	 Reference Energy          =    -431.7987407297533764 [Eh]
	 Singles Energy            =      -0.0000000000000000 [Eh]
	 Same-Spin Energy          =      -0.4504799821600451 [Eh]
	 Opposite-Spin Energy      =      -1.3723342312689479 [Eh]
	 Correlation Energy        =      -1.8228142134289931 [Eh]
	 Total Energy              =    -433.6215549431823888 [Eh]

	 ================> DF-SCS-MP2 Energies <==================
	-----------------------------------------------------------
	 SCS Same-Spin Scale       =       0.3333333333333333 [-]
	 SCS Opposite-Spin Scale   =       1.2000000000000000 [-]
	 SCS Same-Spin Energy      =      -0.1501599940533483 [Eh]
	 SCS Opposite-Spin Energy  =      -1.6468010775227375 [Eh]
	 SCS Correlation Energy    =      -1.7969610715760860 [Eh]
	 SCS Total Energy          =    -433.5957018013294828 [Eh]
	-----------------------------------------------------------

  Dipole Moment: [D]
     X:     1.6654      Y:    -5.5959      Z:     0.6845     Total:     5.8785

*** Psi4 exiting successfully. Buy a developer a beer!
