                               Psi4 1.3.2 release

  ==> Input File <==

--------------------------------------------------------------------------
#psi4
#
memory 32 gb

molecule  {
0 1
  O       -1.4243350     1.8531120    -0.0084660
  N       -1.1176450    -0.4263010     0.0065070
  N        0.7429240     1.0712790     0.0095610
  N        2.8919430     0.2615640    -0.0759850
  C       -0.2733660    -1.4960510    -0.0007800
  C        1.0765330    -1.3300920    -0.0040440
  C       -0.6338910     0.9109410     0.0155220
  C       -2.5617390    -0.6507120     0.0005160
  C        1.5376510     0.0247200    -0.0002060
  H       -0.7522370    -2.4720050    -0.0099570
  H        1.7537504    -2.1730846    -0.1813705
  H       -2.8635010    -1.2105310     0.8892080
  H       -2.8583950    -1.1972750    -0.8980640
  H       -3.0263160     0.3321150     0.0069490
  H        3.5027140    -0.4263080     0.3467730
  H        3.1453740     1.2255370     0.1175850
units angstrom
no_reorient  #important for SAPT in psi4, default
symmetry c1  #important for SAPT in psi4, default
}

set PROPERTIES_ORIGIN ["COM"]
properties('MP2/aug-cc-pvtz', properties = ['dipole'])
--------------------------------------------------------------------------

    Molecular point group: c1
  Charge       = 0
  Multiplicity = 1
  Basis Set: AUG-CC-PVTZ
    Blend: AUG-CC-PVTZ
  Basis Set: (AUG-CC-PVTZ AUX)
    Blend: AUG-CC-PVTZ-JKFIT

    Orbital Energies [Eh]
    ---------------------

    Doubly Occupied:

       1A    -20.503857     2A    -15.625778     3A    -15.591387
       4A    -15.543601     5A    -11.372459     6A    -11.349221
       7A    -11.327651     8A    -11.270664     9A    -11.246586
      10A     -1.382823    11A     -1.296135    12A     -1.267537
      13A     -1.170678    14A     -1.072450    15A     -0.965348
      16A     -0.899367    17A     -0.853435    18A     -0.759014
      19A     -0.723358    20A     -0.684552    21A     -0.673912
      22A     -0.655673    23A     -0.621400    24A     -0.601748
      25A     -0.590774    26A     -0.580295    27A     -0.559146
      28A     -0.522130    29A     -0.476225    30A     -0.440949
      31A     -0.419684    32A     -0.387892    33A     -0.339106

  @DF-RHF Final Energy:  -431.79976782841095

   => Energetics <=

    Nuclear Repulsion Energy =            440.8745421444971839
    One-Electron Energy =               -1461.7989484614074627
    Two-Electron Energy =                 589.1246384884993859
    Total Energy =                       -431.7997678284109497
  Basis Set: (AUG-CC-PVTZ AUX)
    Blend: AUG-CC-PVTZ-RI
    Molecular point group: c1

    Geometry (in Angstrom), charge = 0, multiplicity = 1:

       Center              X                  Y                   Z               Mass
    ------------   -----------------  -----------------  -----------------  -----------------
         O           -1.433145071647     1.806153915084    -0.003915392021    15.994914619570
         N           -1.126455071647    -0.473259084916     0.011057607979    14.003074004430
         N            0.734113928353     1.024320915084     0.014111607979    14.003074004430
         N            2.883132928353     0.214605915084    -0.071434392021    14.003074004430
         C           -0.282176071647    -1.543009084916     0.003770607979    12.000000000000
         C            1.067722928353    -1.377050084916     0.000506607979    12.000000000000
         C           -0.642701071647     0.863982915084     0.020072607979    12.000000000000
         C           -2.570549071647    -0.697670084916     0.005066607979    12.000000000000
         C            1.528840928353    -0.022238084916     0.004344607979    12.000000000000
         H           -0.761047071647    -2.518963084916    -0.005406392021     1.007825032230
         H            1.744940328353    -2.220042684916    -0.176819892021     1.007825032230
         H           -2.872311071647    -1.257489084916     0.893758607979     1.007825032230
         H           -2.867205071647    -1.244233084916    -0.893513392021     1.007825032230
         H           -3.035126071647     0.285156915084     0.011499607979     1.007825032230
         H            3.493903928353    -0.473266084916     0.351323607979     1.007825032230
         H            3.136563928353     1.178578915084     0.122135607979     1.007825032230

  Basis Set: AUG-CC-PVTZ
    Blend: AUG-CC-PVTZ
  Basis Set: (AUG-CC-PVTZ AUX)
    Blend: AUG-CC-PVTZ-JKFIT
	 Reference Energy          =    -431.7997678284109497 [Eh]
	 Singles Energy            =      -0.0000000000000000 [Eh]
	 Same-Spin Energy          =      -0.4504409537685869 [Eh]
	 Opposite-Spin Energy      =      -1.3722516463839309 [Eh]
	 Correlation Energy        =      -1.8226926001525179 [Eh]
	 Total Energy              =    -433.6224604285634427 [Eh]

	 ================> DF-SCS-MP2 Energies <==================
	-----------------------------------------------------------
	 SCS Same-Spin Scale       =       0.3333333333333333 [-]
	 SCS Opposite-Spin Scale   =       1.2000000000000000 [-]
	 SCS Same-Spin Energy      =      -0.1501469845895290 [Eh]
	 SCS Opposite-Spin Energy  =      -1.6467019756607171 [Eh]
	 SCS Correlation Energy    =      -1.7968489602502460 [Eh]
	 SCS Total Energy          =    -433.5966167886612084 [Eh]
	-----------------------------------------------------------

  Dipole Moment: [D]
     X:     1.6798      Y:    -5.6108      Z:     0.7210     Total:     5.9011

*** Psi4 exiting successfully. Buy a developer a beer!
