                               Psi4 1.3.2 release

  ==> Input File <==

--------------------------------------------------------------------------
#psi4
#
memory 32 gb

molecule  {
0 1
  O       -1.4243350     1.8531120    -0.0084660
  N       -1.1176450    -0.4263010     0.0065070
  N        0.7429240     1.0712790     0.0095610
  N        2.8919430     0.2615640    -0.0759850
  C       -0.2733660    -1.4960510    -0.0007800
  C        1.0765330    -1.3300920    -0.0040440
  C       -0.6338910     0.9109410     0.0155220
  C       -2.5617390    -0.6507120     0.0005160
  C        1.5376510     0.0247200    -0.0002060
  H       -0.7526400    -2.4700650    -0.2599491
  H        1.7553550    -2.1750520    -0.0313920
  H       -2.8635010    -1.2105310     0.8892080
  H       -2.8583950    -1.1972750    -0.8980640
  H       -3.0263160     0.3321150     0.0069490
  H        3.5027140    -0.4263080     0.3467730
  H        3.1453740     1.2255370     0.1175850
units angstrom
no_reorient  #important for SAPT in psi4, default
symmetry c1  #important for SAPT in psi4, default
}

set PROPERTIES_ORIGIN ["COM"]
properties('MP2/aug-cc-pvtz', properties = ['dipole'])
--------------------------------------------------------------------------

    Molecular point group: c1
  Charge       = 0
  Multiplicity = 1
  Basis Set: AUG-CC-PVTZ
    Blend: AUG-CC-PVTZ
  Basis Set: (AUG-CC-PVTZ AUX)
    Blend: AUG-CC-PVTZ-JKFIT

    Orbital Energies [Eh]
    ---------------------

    Doubly Occupied:

       1A    -20.503674     2A    -15.625226     3A    -15.591712
       4A    -15.543938     5A    -11.372384     6A    -11.349693
       7A    -11.329611     8A    -11.270253     9A    -11.246916
      10A     -1.382649    11A     -1.296097    12A     -1.267420
      13A     -1.170882    14A     -1.072504    15A     -0.965223
      16A     -0.896657    17A     -0.853827    18A     -0.759128
      19A     -0.721146    20A     -0.685915    21A     -0.672454
      22A     -0.655455    23A     -0.621570    24A     -0.598526
      25A     -0.592242    26A     -0.579572    27A     -0.559032
      28A     -0.522062    29A     -0.475766    30A     -0.441041
      31A     -0.419495    32A     -0.388021    33A     -0.339122

  @DF-RHF Final Energy:  -431.79654702128647

   => Energetics <=

    Nuclear Repulsion Energy =            440.8028385296239549
    One-Electron Energy =               -1461.6603515238471118
    Two-Electron Energy =                 589.0609659729367422
    Total Energy =                       -431.7965470212864147
  Basis Set: (AUG-CC-PVTZ AUX)
    Blend: AUG-CC-PVTZ-RI
    Molecular point group: c1

    Geometry (in Angstrom), charge = 0, multiplicity = 1:

       Center              X                  Y                   Z               Mass
    ------------   -----------------  -----------------  -----------------  -----------------
         O           -1.433154755104     1.806154135896    -0.003109402203    15.994914619570
         N           -1.126464755104    -0.473258864104     0.011863597797    14.003074004430
         N            0.734104244896     1.024321135896     0.014917597797    14.003074004430
         N            2.883123244896     0.214606135896    -0.070628402203    14.003074004430
         C           -0.282185755104    -1.543008864104     0.004576597797    12.000000000000
         C            1.067713244896    -1.377049864104     0.001312597797    12.000000000000
         C           -0.642710755104     0.863983135896     0.020878597797    12.000000000000
         C           -2.570558755104    -0.697669864104     0.005872597797    12.000000000000
         C            1.528831244896    -0.022237864104     0.005150597797    12.000000000000
         H           -0.761459755104    -2.517022864104    -0.254592502203     1.007825032230
         H            1.746535244896    -2.222009864104    -0.026035402203     1.007825032230
         H           -2.872320755104    -1.257488864104     0.894564597797     1.007825032230
         H           -2.867214755104    -1.244232864104    -0.892707402203     1.007825032230
         H           -3.035135755104     0.285157135896     0.012305597797     1.007825032230
         H            3.493894244896    -0.473265864104     0.352129597797     1.007825032230
         H            3.136554244896     1.178579135896     0.122941597797     1.007825032230

  Basis Set: AUG-CC-PVTZ
    Blend: AUG-CC-PVTZ
  Basis Set: (AUG-CC-PVTZ AUX)
    Blend: AUG-CC-PVTZ-JKFIT
	 Reference Energy          =    -431.7965470212864716 [Eh]
	 Singles Energy            =      -0.0000000000000000 [Eh]
	 Same-Spin Energy          =      -0.4506966049462259 [Eh]
	 Opposite-Spin Energy      =      -1.3727707908409723 [Eh]
	 Correlation Energy        =      -1.8234673957871981 [Eh]
	 Total Energy              =    -433.6200144170736621 [Eh]

	 ================> DF-SCS-MP2 Energies <==================
	-----------------------------------------------------------
	 SCS Same-Spin Scale       =       0.3333333333333333 [-]
	 SCS Opposite-Spin Scale   =       1.2000000000000000 [-]
	 SCS Same-Spin Energy      =      -0.1502322016487420 [Eh]
	 SCS Opposite-Spin Energy  =      -1.6473249490091668 [Eh]
	 SCS Correlation Energy    =      -1.7975571506579087 [Eh]
	 SCS Total Energy          =    -433.5941041719443660 [Eh]
	-----------------------------------------------------------

  Dipole Moment: [D]
     X:     1.7346      Y:    -5.5943      Z:     0.6872     Total:     5.8972

*** Psi4 exiting successfully. Buy a developer a beer!
