                               Psi4 1.3.2 release

  ==> Input File <==

--------------------------------------------------------------------------
#psi4
#
memory 32 gb

molecule  {
0 1
  O       -1.4243350     1.8531120    -0.0084660
  N       -1.1176450    -0.4263010     0.0065070
  N        0.7429240     1.0712790     0.0095610
  N        2.8919430     0.2615640    -0.0759850
  C       -0.2733660    -1.4960510    -0.0007800
  C        1.0685886    -1.3300635    -0.2038862
  C       -0.6338910     0.9109410     0.0155220
  C       -2.5617390    -0.6507120     0.0005160
  C        1.5376510     0.0247200    -0.0002060
  H       -0.7522370    -2.4720050    -0.0099570
  H        1.7553550    -2.1750520    -0.0313920
  H       -2.8635010    -1.2105310     0.8892080
  H       -2.8583950    -1.1972750    -0.8980640
  H       -3.0263160     0.3321150     0.0069490
  H        3.5027140    -0.4263080     0.3467730
  H        3.1453740     1.2255370     0.1175850
units angstrom
no_reorient  #important for SAPT in psi4, default
symmetry c1  #important for SAPT in psi4, default
}

set PROPERTIES_ORIGIN ["COM"]
properties('MP2/aug-cc-pvtz', properties = ['dipole'])
--------------------------------------------------------------------------

    Molecular point group: c1
  Charge       = 0
  Multiplicity = 1
  Basis Set: AUG-CC-PVTZ
    Blend: AUG-CC-PVTZ
  Basis Set: (AUG-CC-PVTZ AUX)
    Blend: AUG-CC-PVTZ-JKFIT

    Orbital Energies [Eh]
    ---------------------

    Doubly Occupied:

       1A    -20.505176     2A    -15.626195     3A    -15.591951
       4A    -15.544218     5A    -11.373353     6A    -11.350574
       7A    -11.329063     8A    -11.270979     9A    -11.248456
      10A     -1.383607    11A     -1.296204    12A     -1.267799
      13A     -1.171108    14A     -1.070432    15A     -0.965132
      16A     -0.897910    17A     -0.853422    18A     -0.756888
      19A     -0.721659    20A     -0.684726    21A     -0.673798
      22A     -0.656013    23A     -0.618438    24A     -0.600583
      25A     -0.592112    26A     -0.577033    27A     -0.558605
      28A     -0.521200    29A     -0.475585    30A     -0.441125
      31A     -0.420449    32A     -0.387700    33A     -0.339967

  @DF-RHF Final Energy:  -431.79130626000335

   => Energetics <=

    Nuclear Repulsion Energy =            440.5397842067661713
    One-Electron Energy =               -1461.1192587843108868
    Two-Electron Energy =                 588.7881683175413627
    Total Energy =                       -431.7913062600033527
  Basis Set: (AUG-CC-PVTZ AUX)
    Blend: AUG-CC-PVTZ-RI
    Molecular point group: c1

    Geometry (in Angstrom), charge = 0, multiplicity = 1:

       Center              X                  Y                   Z               Mass
    ------------   -----------------  -----------------  -----------------  -----------------
         O           -1.432395699670     1.806167035261     0.014051774653    15.994914619570
         N           -1.125705699670    -0.473245964739     0.029024774653    14.003074004430
         N            0.734863300330     1.024334035261     0.032078774653    14.003074004430
         N            2.883882300330     0.214619035261    -0.053467225347    14.003074004430
         C           -0.281426699670    -1.542995964739     0.021737774653    12.000000000000
         C            1.060527900330    -1.377008464739    -0.181368425347    12.000000000000
         C           -0.641951699670     0.863996035261     0.038039774653    12.000000000000
         C           -2.569799699670    -0.697656964739     0.023033774653    12.000000000000
         C            1.529590300330    -0.022224964739     0.022311774653    12.000000000000
         H           -0.760297699670    -2.518949964739     0.012560774653     1.007825032230
         H            1.747294300330    -2.221996964739    -0.008874225347     1.007825032230
         H           -2.871561699670    -1.257475964739     0.911725774653     1.007825032230
         H           -2.866455699670    -1.244219964739    -0.875546225347     1.007825032230
         H           -3.034376699670     0.285170035261     0.029466774653     1.007825032230
         H            3.494653300330    -0.473252964739     0.369290774653     1.007825032230
         H            3.137313300330     1.178592035261     0.140102774653     1.007825032230

  Basis Set: AUG-CC-PVTZ
    Blend: AUG-CC-PVTZ
  Basis Set: (AUG-CC-PVTZ AUX)
    Blend: AUG-CC-PVTZ-JKFIT
	 Reference Energy          =    -431.7913062600033527 [Eh]
	 Singles Energy            =      -0.0000000000000000 [Eh]
	 Same-Spin Energy          =      -0.4506972971215836 [Eh]
	 Opposite-Spin Energy      =      -1.3732804793351465 [Eh]
	 Correlation Energy        =      -1.8239777764567302 [Eh]
	 Total Energy              =    -433.6152840364600820 [Eh]

	 ================> DF-SCS-MP2 Energies <==================
	-----------------------------------------------------------
	 SCS Same-Spin Scale       =       0.3333333333333333 [-]
	 SCS Opposite-Spin Scale   =       1.2000000000000000 [-]
	 SCS Same-Spin Energy      =      -0.1502324323738612 [Eh]
	 SCS Opposite-Spin Energy  =      -1.6479365752021757 [Eh]
	 SCS Correlation Energy    =      -1.7981690075760368 [Eh]
	 SCS Total Energy          =    -433.5894752675794166 [Eh]
	-----------------------------------------------------------

  Dipole Moment: [D]
     X:     1.6564      Y:    -5.5321      Z:     0.9990     Total:     5.8605

*** Psi4 exiting successfully. Buy a developer a beer!
