                               Psi4 1.3.2 release

  ==> Input File <==

--------------------------------------------------------------------------
#psi4
#
memory 32 gb

molecule  {
0 1
  O       -1.4243350     1.8531120    -0.0084660
  N       -1.1176450    -0.4263010     0.0065070
  N        0.7429240     1.0712790     0.0095610
  N        2.8919430     0.2615640    -0.0759850
  C       -0.2733660    -1.4960510    -0.0007800
  C        1.0765330    -1.3300920    -0.0040440
  C       -0.6338910     0.9109410     0.0155220
  C       -2.5617390    -0.6507120     0.0005160
  C        1.5376510     0.0247200    -0.0002060
  H       -0.7524788    -2.4708410    -0.1599523
  H        1.7553550    -2.1750520    -0.0313920
  H       -2.8635010    -1.2105310     0.8892080
  H       -2.8583950    -1.1972750    -0.8980640
  H       -3.0263160     0.3321150     0.0069490
  H        3.5027140    -0.4263080     0.3467730
  H        3.1453740     1.2255370     0.1175850
units angstrom
no_reorient  #important for SAPT in psi4, default
symmetry c1  #important for SAPT in psi4, default
}

set PROPERTIES_ORIGIN ["COM"]
properties('MP2/aug-cc-pvtz', properties = ['dipole'])
--------------------------------------------------------------------------

    Molecular point group: c1
  Charge       = 0
  Multiplicity = 1
  Basis Set: AUG-CC-PVTZ
    Blend: AUG-CC-PVTZ
  Basis Set: (AUG-CC-PVTZ AUX)
    Blend: AUG-CC-PVTZ-JKFIT

    Orbital Energies [Eh]
    ---------------------

    Doubly Occupied:

       1A    -20.503610     2A    -15.625330     3A    -15.591567
       4A    -15.543687     5A    -11.372291     6A    -11.349434
       7A    -11.328106     8A    -11.270389     9A    -11.246343
      10A     -1.382604    11A     -1.296034    12A     -1.267427
      13A     -1.170745    14A     -1.072630    15A     -0.965258
      16A     -0.898340    17A     -0.853739    18A     -0.759034
      19A     -0.722812    20A     -0.685805    21A     -0.673331
      22A     -0.655575    23A     -0.621852    24A     -0.600585
      25A     -0.592374    26A     -0.579686    27A     -0.559083
      28A     -0.521953    29A     -0.476141    30A     -0.440929
      31A     -0.419636    32A     -0.387890    33A     -0.339042

  @DF-RHF Final Energy:  -431.79949397934973

   => Energetics <=

    Nuclear Repulsion Energy =            440.8758590139271405
    One-Electron Energy =               -1461.8041761176059481
    Two-Electron Energy =                 589.1288231243290738
    Total Energy =                       -431.7994939793497906
  Basis Set: (AUG-CC-PVTZ AUX)
    Blend: AUG-CC-PVTZ-RI
    Molecular point group: c1

    Geometry (in Angstrom), charge = 0, multiplicity = 1:

       Center              X                  Y                   Z               Mass
    ------------   -----------------  -----------------  -----------------  -----------------
         O           -1.433156054183     1.806160389526    -0.003915256633    15.994914619570
         N           -1.126466054183    -0.473252610474     0.011057743367    14.003074004430
         N            0.734102945817     1.024327389526     0.014111743367    14.003074004430
         N            2.883121945817     0.214612389526    -0.071434256633    14.003074004430
         C           -0.282187054183    -1.543002610474     0.003770743367    12.000000000000
         C            1.067711945817    -1.377043610474     0.000506743367    12.000000000000
         C           -0.642712054183     0.863989389526     0.020072743367    12.000000000000
         C           -2.570560054183    -0.697663610474     0.005066743367    12.000000000000
         C            1.528829945817    -0.022231610474     0.004344743367    12.000000000000
         H           -0.761299854183    -2.517792610474    -0.155401556633     1.007825032230
         H            1.746533945817    -2.222003610474    -0.026841256633     1.007825032230
         H           -2.872322054183    -1.257482610474     0.893758743367     1.007825032230
         H           -2.867216054183    -1.244226610474    -0.893513256633     1.007825032230
         H           -3.035137054183     0.285163389526     0.011499743367     1.007825032230
         H            3.493892945817    -0.473259610474     0.351323743367     1.007825032230
         H            3.136552945817     1.178585389526     0.122135743367     1.007825032230

  Basis Set: AUG-CC-PVTZ
    Blend: AUG-CC-PVTZ
  Basis Set: (AUG-CC-PVTZ AUX)
    Blend: AUG-CC-PVTZ-JKFIT
	 Reference Energy          =    -431.7994939793497338 [Eh]
	 Singles Energy            =      -0.0000000000000000 [Eh]
	 Same-Spin Energy          =      -0.4504961745660340 [Eh]
	 Opposite-Spin Energy      =      -1.3723594186265755 [Eh]
	 Correlation Energy        =      -1.8228555931926094 [Eh]
	 Total Energy              =    -433.6223495725423618 [Eh]

	 ================> DF-SCS-MP2 Energies <==================
	-----------------------------------------------------------
	 SCS Same-Spin Scale       =       0.3333333333333333 [-]
	 SCS Opposite-Spin Scale   =       1.2000000000000000 [-]
	 SCS Same-Spin Energy      =      -0.1501653915220113 [Eh]
	 SCS Opposite-Spin Energy  =      -1.6468313023518906 [Eh]
	 SCS Correlation Energy    =      -1.7969966938739019 [Eh]
	 SCS Total Energy          =    -433.5964906732236273 [Eh]
	-----------------------------------------------------------

  Dipole Moment: [D]
     X:     1.7140      Y:    -5.6189      Z:     0.7445     Total:     5.9215

*** Psi4 exiting successfully. Buy a developer a beer!
