                               Psi4 1.3.2 release

  ==> Input File <==

--------------------------------------------------------------------------
#psi4
#
memory 32 gb

molecule  {
0 1
  O       -1.4243350     1.8531120    -0.0084660
  N       -1.1176450    -0.4263010     0.0065070
  N        0.7429240     1.0712790     0.0095610
  N        2.8919430     0.2615640    -0.0759850
  C       -0.2733660    -1.4960510    -0.0007800
  C        1.0765330    -1.3300920    -0.0040440
  C       -0.6338910     0.9109410     0.0155220
  C       -2.5619439    -0.6514199     0.1005133
  C        1.5376510     0.0247200    -0.0002060
  H       -0.7522370    -2.4720050    -0.0099570
  H        1.7553550    -2.1750520    -0.0313920
  H       -2.8635010    -1.2105310     0.8892080
  H       -2.8583950    -1.1972750    -0.8980640
  H       -3.0263160     0.3321150     0.0069490
  H        3.5027140    -0.4263080     0.3467730
  H        3.1453740     1.2255370     0.1175850
units angstrom
no_reorient  #important for SAPT in psi4, default
symmetry c1  #important for SAPT in psi4, default
}

set PROPERTIES_ORIGIN ["COM"]
properties('MP2/aug-cc-pvtz', properties = ['dipole'])
--------------------------------------------------------------------------

    Molecular point group: c1
  Charge       = 0
  Multiplicity = 1
  Basis Set: AUG-CC-PVTZ
    Blend: AUG-CC-PVTZ
  Basis Set: (AUG-CC-PVTZ AUX)
    Blend: AUG-CC-PVTZ-JKFIT

    Orbital Energies [Eh]
    ---------------------

    Doubly Occupied:

       1A    -20.503846     2A    -15.625991     3A    -15.591690
       4A    -15.543729     5A    -11.372441     6A    -11.349422
       7A    -11.327231     8A    -11.271950     9A    -11.246118
      10A     -1.382719    11A     -1.296125    12A     -1.267410
      13A     -1.170781    14A     -1.072734    15A     -0.966645
      16A     -0.899658    17A     -0.854366    18A     -0.759222
      19A     -0.724715    20A     -0.689060    21A     -0.674041
      22A     -0.656726    23A     -0.622330    24A     -0.604246
      25A     -0.597280    26A     -0.577670    27A     -0.551964
      28A     -0.519228    29A     -0.475267    30A     -0.440893
      31A     -0.419396    32A     -0.387943    33A     -0.339057

  @DF-RHF Final Energy:  -431.79010930325893

   => Energetics <=

    Nuclear Repulsion Energy =            440.8641456371121876
    One-Electron Energy =               -1461.7447180306414793
    Two-Electron Energy =                 589.0904630902703047
    Total Energy =                       -431.7901093032589870
  Basis Set: (AUG-CC-PVTZ AUX)
    Blend: AUG-CC-PVTZ-RI
    Molecular point group: c1

    Geometry (in Angstrom), charge = 0, multiplicity = 1:

       Center              X                  Y                   Z               Mass
    ------------   -----------------  -----------------  -----------------  -----------------
         O           -1.433138341667     1.806237696358    -0.014719257707    15.994914619570
         N           -1.126448341667    -0.473175303642     0.000253742293    14.003074004430
         N            0.734120658333     1.024404696358     0.003307742293    14.003074004430
         N            2.883139658333     0.214689696358    -0.082238257707    14.003074004430
         C           -0.282169341667    -1.542925303642    -0.007033257707    12.000000000000
         C            1.067729658333    -1.376966303642    -0.010297257707    12.000000000000
         C           -0.642694341667     0.864066696358     0.009268742293    12.000000000000
         C           -2.570747241667    -0.698294203642     0.094260042293    12.000000000000
         C            1.528847658333    -0.022154303642    -0.006459257707    12.000000000000
         H           -0.761040341667    -2.518879303642    -0.016210257707     1.007825032230
         H            1.746551658333    -2.221926303642    -0.037645257707     1.007825032230
         H           -2.872304341667    -1.257405303642     0.882954742293     1.007825032230
         H           -2.867198341667    -1.244149303642    -0.904317257707     1.007825032230
         H           -3.035119341667     0.285240696358     0.000695742293     1.007825032230
         H            3.493910658333    -0.473182303642     0.340519742293     1.007825032230
         H            3.136570658333     1.178662696358     0.111331742293     1.007825032230

  Basis Set: AUG-CC-PVTZ
    Blend: AUG-CC-PVTZ
  Basis Set: (AUG-CC-PVTZ AUX)
    Blend: AUG-CC-PVTZ-JKFIT
	 Reference Energy          =    -431.7901093032589301 [Eh]
	 Singles Energy            =      -0.0000000000000000 [Eh]
	 Same-Spin Energy          =      -0.4505253301099449 [Eh]
	 Opposite-Spin Energy      =      -1.3726063203761933 [Eh]
	 Correlation Energy        =      -1.8231316504861383 [Eh]
	 Total Energy              =    -433.6132409537450485 [Eh]

	 ================> DF-SCS-MP2 Energies <==================
	-----------------------------------------------------------
	 SCS Same-Spin Scale       =       0.3333333333333333 [-]
	 SCS Opposite-Spin Scale   =       1.2000000000000000 [-]
	 SCS Same-Spin Energy      =      -0.1501751100366483 [Eh]
	 SCS Opposite-Spin Energy  =      -1.6471275844514319 [Eh]
	 SCS Correlation Energy    =      -1.7973026944880801 [Eh]
	 SCS Total Energy          =    -433.5874119977469832 [Eh]
	-----------------------------------------------------------

  Dipole Moment: [D]
     X:     1.7243      Y:    -5.6187      Z:     0.9445     Total:     5.9528

*** Psi4 exiting successfully. Buy a developer a beer!
