                               Psi4 1.3.2 release

  ==> Input File <==

--------------------------------------------------------------------------
#psi4
#
memory 32 gb

molecule  {
0 1
  O       -1.4243350     1.8531120    -0.0084660
  N       -1.1176450    -0.4263010     0.0065070
  N        0.7413611     1.0727109     0.2595520
  N        2.8919430     0.2615640    -0.0759850
  C       -0.2733660    -1.4960510    -0.0007800
  C        1.0765330    -1.3300920    -0.0040440
  C       -0.6338910     0.9109410     0.0155220
  C       -2.5617390    -0.6507120     0.0005160
  C        1.5376510     0.0247200    -0.0002060
  H       -0.7522370    -2.4720050    -0.0099570
  H        1.7553550    -2.1750520    -0.0313920
  H       -2.8635010    -1.2105310     0.8892080
  H       -2.8583950    -1.1972750    -0.8980640
  H       -3.0263160     0.3321150     0.0069490
  H        3.5027140    -0.4263080     0.3467730
  H        3.1453740     1.2255370     0.1175850
units angstrom
no_reorient  #important for SAPT in psi4, default
symmetry c1  #important for SAPT in psi4, default
}

set PROPERTIES_ORIGIN ["COM"]
properties('MP2/aug-cc-pvtz', properties = ['dipole'])
--------------------------------------------------------------------------

    Molecular point group: c1
  Charge       = 0
  Multiplicity = 1
  Basis Set: AUG-CC-PVTZ
    Blend: AUG-CC-PVTZ
  Basis Set: (AUG-CC-PVTZ AUX)
    Blend: AUG-CC-PVTZ-JKFIT

    Orbital Energies [Eh]
    ---------------------

    Doubly Occupied:

       1A    -20.505721     2A    -15.625571     3A    -15.593197
       4A    -15.547533     5A    -11.373076     6A    -11.352686
       7A    -11.327280     8A    -11.270764     9A    -11.246408
      10A     -1.381723    11A     -1.294079    12A     -1.265777
      13A     -1.164165    14A     -1.072454    15A     -0.964356
      16A     -0.899452    17A     -0.846906    18A     -0.754858
      19A     -0.723471    20A     -0.688764    21A     -0.674171
      22A     -0.654094    23A     -0.622643    24A     -0.601167
      25A     -0.593246    26A     -0.574416    27A     -0.559266
      28A     -0.515603    29A     -0.477817    30A     -0.443805
      31A     -0.417927    32A     -0.387186    33A     -0.338286

  @DF-RHF Final Energy:  -431.79032644238470

   => Energetics <=

    Nuclear Repulsion Energy =            439.9722736881705600
    One-Electron Energy =               -1460.0094621195059972
    Two-Electron Energy =                 588.2468619889507409
    Total Energy =                       -431.7903264423846394
  Basis Set: (AUG-CC-PVTZ AUX)
    Blend: AUG-CC-PVTZ-RI
    Molecular point group: c1

    Geometry (in Angstrom), charge = 0, multiplicity = 1:

       Center              X                  Y                   Z               Mass
    ------------   -----------------  -----------------  -----------------  -----------------
         O           -1.432983002043     1.806009437522    -0.033115986411    15.994914619570
         N           -1.126293002043    -0.473403562478    -0.018142986411    14.003074004430
         N            0.732713097957     1.025608337522     0.234902013589    14.003074004430
         N            2.883294997957     0.214461437522    -0.100634986411    14.003074004430
         C           -0.282014002043    -1.543153562478    -0.025429986411    12.000000000000
         C            1.067884997957    -1.377194562478    -0.028693986411    12.000000000000
         C           -0.642539002043     0.863838437522    -0.009127986411    12.000000000000
         C           -2.570387002043    -0.697814562478    -0.024133986411    12.000000000000
         C            1.529002997957    -0.022382562478    -0.024855986411    12.000000000000
         H           -0.760885002043    -2.519107562478    -0.034606986411     1.007825032230
         H            1.746706997957    -2.222154562478    -0.056041986411     1.007825032230
         H           -2.872149002043    -1.257633562478     0.864558013589     1.007825032230
         H           -2.867043002043    -1.244377562478    -0.922713986411     1.007825032230
         H           -3.034964002043     0.285012437522    -0.017700986411     1.007825032230
         H            3.494065997957    -0.473410562478     0.322123013589     1.007825032230
         H            3.136725997957     1.178434437522     0.092935013589     1.007825032230

  Basis Set: AUG-CC-PVTZ
    Blend: AUG-CC-PVTZ
  Basis Set: (AUG-CC-PVTZ AUX)
    Blend: AUG-CC-PVTZ-JKFIT
	 Reference Energy          =    -431.7903264423846963 [Eh]
	 Singles Energy            =      -0.0000000000000000 [Eh]
	 Same-Spin Energy          =      -0.4510664877555902 [Eh]
	 Opposite-Spin Energy      =      -1.3740194736350473 [Eh]
	 Correlation Energy        =      -1.8250859613906374 [Eh]
	 Total Energy              =    -433.6154124037753377 [Eh]

	 ================> DF-SCS-MP2 Energies <==================
	-----------------------------------------------------------
	 SCS Same-Spin Scale       =       0.3333333333333333 [-]
	 SCS Opposite-Spin Scale   =       1.2000000000000000 [-]
	 SCS Same-Spin Energy      =      -0.1503554959185301 [Eh]
	 SCS Opposite-Spin Energy  =      -1.6488233683620568 [Eh]
	 SCS Correlation Energy    =      -1.7991788642805868 [Eh]
	 SCS Total Energy          =    -433.5895053066652736 [Eh]
	-----------------------------------------------------------

  Dipole Moment: [D]
     X:     1.6857      Y:    -5.6016      Z:     0.4869     Total:     5.8700

*** Psi4 exiting successfully. Buy a developer a beer!
