                               Psi4 1.3.2 release

  ==> Input File <==

--------------------------------------------------------------------------
#psi4
#
memory 32 gb

molecule  {
0 1
  O       -1.4243350     1.8531120    -0.0084660
  N       -1.1176450    -0.4263010     0.0065070
  N        0.7429240     1.0712790     0.0095610
  N        2.8919430     0.2615640    -0.0759850
  C       -0.2733660    -1.4960510    -0.0007800
  C        1.0765330    -1.3300920    -0.0040440
  C       -0.6338910     0.9109410     0.0155220
  C       -2.5617390    -0.6507120     0.0005160
  C        1.5376510     0.0247200    -0.0002060
  H       -0.7522370    -2.4720050    -0.0099570
  H        1.7553550    -2.1750520    -0.0313920
  H       -2.8635010    -1.2105310     0.8892080
  H       -2.8583950    -1.1972750    -0.8980640
  H       -3.0263160     0.3321150     0.0069490
  H        3.5027140    -0.4263080     0.3467730
  H        3.1079397     1.2515442     0.3633945
units angstrom
no_reorient  #important for SAPT in psi4, default
symmetry c1  #important for SAPT in psi4, default
}

set PROPERTIES_ORIGIN ["COM"]
properties('MP2/aug-cc-pvtz', properties = ['dipole'])
--------------------------------------------------------------------------

    Molecular point group: c1
  Charge       = 0
  Multiplicity = 1
  Basis Set: AUG-CC-PVTZ
    Blend: AUG-CC-PVTZ
  Basis Set: (AUG-CC-PVTZ AUX)
    Blend: AUG-CC-PVTZ-JKFIT

    Orbital Energies [Eh]
    ---------------------

    Doubly Occupied:

       1A    -20.504513     2A    -15.626654     3A    -15.598749
       4A    -15.545085     5A    -11.373217     6A    -11.349123
       7A    -11.328103     8A    -11.271226     9A    -11.246537
      10A     -1.383534    11A     -1.296034    12A     -1.265956
      13A     -1.167545    14A     -1.072818    15A     -0.964821
      16A     -0.898683    17A     -0.852747    18A     -0.752609
      19A     -0.722055    20A     -0.686260    21A     -0.659032
      22A     -0.656460    23A     -0.619573    24A     -0.597015
      25A     -0.588983    26A     -0.580602    27A     -0.559564
      28A     -0.523909    29A     -0.477320    30A     -0.441747
      31A     -0.420760    32A     -0.391337    33A     -0.339700

  @DF-RHF Final Energy:  -431.79099654129783

   => Energetics <=

    Nuclear Repulsion Energy =            440.6247395497862271
    One-Electron Energy =               -1461.3069310710855007
    Two-Electron Energy =                 588.8911949800015009
    Total Energy =                       -431.7909965412977726
  Basis Set: (AUG-CC-PVTZ AUX)
    Blend: AUG-CC-PVTZ-RI
    Molecular point group: c1

    Geometry (in Angstrom), charge = 0, multiplicity = 1:

       Center              X                  Y                   Z               Mass
    ------------   -----------------  -----------------  -----------------  -----------------
         O           -1.432856327182     1.805960183092    -0.007104969220    15.994914619570
         N           -1.126166327182    -0.473452816908     0.007868030780    14.003074004430
         N            0.734402672818     1.024127183092     0.010922030780    14.003074004430
         N            2.883421672818     0.214412183092    -0.074623969220    14.003074004430
         C           -0.281887327182    -1.543202816908     0.000581030780    12.000000000000
         C            1.068011672818    -1.377243816908    -0.002682969220    12.000000000000
         C           -0.642412327182     0.863789183092     0.016883030780    12.000000000000
         C           -2.570260327182    -0.697863816908     0.001877030780    12.000000000000
         C            1.529129672818    -0.022431816908     0.001155030780    12.000000000000
         H           -0.760758327182    -2.519156816908    -0.008595969220     1.007825032230
         H            1.746833672818    -2.222203816908    -0.030030969220     1.007825032230
         H           -2.872022327182    -1.257682816908     0.890569030780     1.007825032230
         H           -2.866916327182    -1.244426816908    -0.896702969220     1.007825032230
         H           -3.034837327182     0.284963183092     0.008310030780     1.007825032230
         H            3.494192672818    -0.473459816908     0.348134030780     1.007825032230
         H            3.099418372818     1.204392383092     0.364755530780     1.007825032230

  Basis Set: AUG-CC-PVTZ
    Blend: AUG-CC-PVTZ
  Basis Set: (AUG-CC-PVTZ AUX)
    Blend: AUG-CC-PVTZ-JKFIT
	 Reference Energy          =    -431.7909965412978295 [Eh]
	 Singles Energy            =      -0.0000000000000000 [Eh]
	 Same-Spin Energy          =      -0.4510669279247959 [Eh]
	 Opposite-Spin Energy      =      -1.3740825299733328 [Eh]
	 Correlation Energy        =      -1.8251494578981287 [Eh]
	 Total Energy              =    -433.6161459991959646 [Eh]

	 ================> DF-SCS-MP2 Energies <==================
	-----------------------------------------------------------
	 SCS Same-Spin Scale       =       0.3333333333333333 [-]
	 SCS Opposite-Spin Scale   =       1.2000000000000000 [-]
	 SCS Same-Spin Energy      =      -0.1503556426415986 [Eh]
	 SCS Opposite-Spin Energy  =      -1.6488990359679994 [Eh]
	 SCS Correlation Energy    =      -1.7992546786095980 [Eh]
	 SCS Total Energy          =    -433.5902512199074295 [Eh]
	-----------------------------------------------------------

  Dipole Moment: [D]
     X:     1.4966      Y:    -5.6955      Z:     1.1075     Total:     5.9921

*** Psi4 exiting successfully. Buy a developer a beer!
