                               Psi4 1.3.2 release

  ==> Input File <==

--------------------------------------------------------------------------
#psi4
#
memory 32 gb

molecule  {
0 1
  O       -1.4243350     1.8531120    -0.0084660
  N       -1.1176450    -0.4263010     0.0065070
  N        0.7429240     1.0712790     0.0095610
  N        2.8919430     0.2615640    -0.0759850
  C       -0.2733660    -1.4960510    -0.0007800
  C        1.0705747    -1.3300706    -0.1539256
  C       -0.6338910     0.9109410     0.0155220
  C       -2.5617390    -0.6507120     0.0005160
  C        1.5376510     0.0247200    -0.0002060
  H       -0.7522370    -2.4720050    -0.0099570
  H        1.7553550    -2.1750520    -0.0313920
  H       -2.8635010    -1.2105310     0.8892080
  H       -2.8583950    -1.1972750    -0.8980640
  H       -3.0263160     0.3321150     0.0069490
  H        3.5027140    -0.4263080     0.3467730
  H        3.1453740     1.2255370     0.1175850
units angstrom
no_reorient  #important for SAPT in psi4, default
symmetry c1  #important for SAPT in psi4, default
}

set PROPERTIES_ORIGIN ["COM"]
properties('MP2/aug-cc-pvtz', properties = ['dipole'])
--------------------------------------------------------------------------

    Molecular point group: c1
  Charge       = 0
  Multiplicity = 1
  Basis Set: AUG-CC-PVTZ
    Blend: AUG-CC-PVTZ
  Basis Set: (AUG-CC-PVTZ AUX)
    Blend: AUG-CC-PVTZ-JKFIT

    Orbital Energies [Eh]
    ---------------------

    Doubly Occupied:

       1A    -20.504431     2A    -15.625606     3A    -15.591890
       4A    -15.544069     5A    -11.372833     6A    -11.350036
       7A    -11.327793     8A    -11.270646     9A    -11.247324
      10A     -1.383104    11A     -1.296092    12A     -1.267607
      13A     -1.170988    14A     -1.071580    15A     -0.965084
      16A     -0.898373    17A     -0.853621    18A     -0.757810
      19A     -0.722441    20A     -0.685105    21A     -0.674065
      22A     -0.655702    23A     -0.619690    24A     -0.601136
      25A     -0.592583    26A     -0.577971    27A     -0.558761
      28A     -0.521406    29A     -0.475926    30A     -0.441008
      31A     -0.420293    32A     -0.387729    33A     -0.339530

  @DF-RHF Final Energy:  -431.79558632354770

   => Energetics <=

    Nuclear Repulsion Energy =            440.7208806063188717
    One-Electron Energy =               -1461.4884724681069201
    Two-Electron Energy =                 588.9720055382404098
    Total Energy =                       -431.7955863235476954
  Basis Set: (AUG-CC-PVTZ AUX)
    Blend: AUG-CC-PVTZ-RI
    Molecular point group: c1

    Geometry (in Angstrom), charge = 0, multiplicity = 1:

       Center              X                  Y                   Z               Mass
    ------------   -----------------  -----------------  -----------------  -----------------
         O           -1.432586275453     1.806167716540     0.009257816421    15.994914619570
         N           -1.125896275453    -0.473245283460     0.024230816421    14.003074004430
         N            0.734672724547     1.024334716540     0.027284816421    14.003074004430
         N            2.883691724547     0.214619716540    -0.058261183579    14.003074004430
         C           -0.281617275453    -1.542995283460     0.016943816421    12.000000000000
         C            1.062323424547    -1.377014883460    -0.136201783579    12.000000000000
         C           -0.642142275453     0.863996716540     0.033245816421    12.000000000000
         C           -2.569990275453    -0.697656283460     0.018239816421    12.000000000000
         C            1.529399724547    -0.022224283460     0.017517816421    12.000000000000
         H           -0.760488275453    -2.518949283460     0.007766816421     1.007825032230
         H            1.747103724547    -2.221996283460    -0.013668183579     1.007825032230
         H           -2.871752275453    -1.257475283460     0.906931816421     1.007825032230
         H           -2.866646275453    -1.244219283460    -0.880340183579     1.007825032230
         H           -3.034567275453     0.285170716540     0.024672816421     1.007825032230
         H            3.494462724547    -0.473252283460     0.364496816421     1.007825032230
         H            3.137122724547     1.178592716540     0.135308816421     1.007825032230

  Basis Set: AUG-CC-PVTZ
    Blend: AUG-CC-PVTZ
  Basis Set: (AUG-CC-PVTZ AUX)
    Blend: AUG-CC-PVTZ-JKFIT
	 Reference Energy          =    -431.7955863235476954 [Eh]
	 Singles Energy            =      -0.0000000000000000 [Eh]
	 Same-Spin Energy          =      -0.4505554937050574 [Eh]
	 Opposite-Spin Energy      =      -1.3727535151939589 [Eh]
	 Correlation Energy        =      -1.8233090088990163 [Eh]
	 Total Energy              =    -433.6188953324466979 [Eh]

	 ================> DF-SCS-MP2 Energies <==================
	-----------------------------------------------------------
	 SCS Same-Spin Scale       =       0.3333333333333333 [-]
	 SCS Opposite-Spin Scale   =       1.2000000000000000 [-]
	 SCS Same-Spin Energy      =      -0.1501851645683525 [Eh]
	 SCS Opposite-Spin Energy  =      -1.6473042182327506 [Eh]
	 SCS Correlation Energy    =      -1.7974893828011032 [Eh]
	 SCS Total Energy          =    -433.5930757063487704 [Eh]
	-----------------------------------------------------------

  Dipole Moment: [D]
     X:     1.6852      Y:    -5.5759      Z:     0.9565     Total:     5.9030

*** Psi4 exiting successfully. Buy a developer a beer!
