                               Psi4 1.3.2 release

  ==> Input File <==

--------------------------------------------------------------------------
#psi4
#
memory 32 gb

molecule  {
0 1
  O       -1.4243350     1.8531120    -0.0084660
  N       -1.1176450    -0.4263010     0.0065070
  N        0.7429240     1.0712790     0.0095610
  N        2.8919430     0.2615640    -0.0759850
  C       -0.2733660    -1.4960510    -0.0007800
  C        1.0765330    -1.3300920    -0.0040440
  C       -0.6338910     0.9109410     0.0155220
  C       -2.5617390    -0.6507120     0.0005160
  C        1.5376510     0.0247200    -0.0002060
  H       -0.7523176    -2.4716170    -0.0599554
  H        1.7553550    -2.1750520    -0.0313920
  H       -2.8635010    -1.2105310     0.8892080
  H       -2.8583950    -1.1972750    -0.8980640
  H       -3.0263160     0.3321150     0.0069490
  H        3.5027140    -0.4263080     0.3467730
  H        3.1453740     1.2255370     0.1175850
units angstrom
no_reorient  #important for SAPT in psi4, default
symmetry c1  #important for SAPT in psi4, default
}

set PROPERTIES_ORIGIN ["COM"]
properties('MP2/aug-cc-pvtz', properties = ['dipole'])
--------------------------------------------------------------------------

    Molecular point group: c1
  Charge       = 0
  Multiplicity = 1
  Basis Set: AUG-CC-PVTZ
    Blend: AUG-CC-PVTZ
  Basis Set: (AUG-CC-PVTZ AUX)
    Blend: AUG-CC-PVTZ-JKFIT

    Orbital Energies [Eh]
    ---------------------

    Doubly Occupied:

       1A    -20.503578     2A    -15.625384     3A    -15.591512
       4A    -15.543573     5A    -11.372247     6A    -11.349288
       7A    -11.327324     8A    -11.270458     9A    -11.246032
      10A     -1.382584    11A     -1.296005    12A     -1.267437
      13A     -1.170685    14A     -1.072696    15A     -0.965276
      16A     -0.899252    17A     -0.853700    18A     -0.758991
      19A     -0.723695    20A     -0.685745    21A     -0.673936
      22A     -0.655563    23A     -0.622001    24A     -0.601607
      25A     -0.592386    26A     -0.579765    27A     -0.559104
      28A     -0.521894    29A     -0.476292    30A     -0.440876
      31A     -0.419727    32A     -0.387824    33A     -0.339001

  @DF-RHF Final Energy:  -431.80086181986002

   => Energetics <=

    Nuclear Repulsion Energy =            440.9133560268884366
    One-Electron Energy =               -1461.8775586417093564
    Two-Electron Energy =                 589.1633407949609591
    Total Energy =                       -431.8008618198599606
  Basis Set: (AUG-CC-PVTZ AUX)
    Blend: AUG-CC-PVTZ-RI
    Molecular point group: c1

    Geometry (in Angstrom), charge = 0, multiplicity = 1:

       Center              X                  Y                   Z               Mass
    ------------   -----------------  -----------------  -----------------  -----------------
         O           -1.433157353261     1.806166643157    -0.004721111869    15.994914619570
         N           -1.126467353261    -0.473246356843     0.010251888131    14.003074004430
         N            0.734101646739     1.024333643157     0.013305888131    14.003074004430
         N            2.883120646739     0.214618643157    -0.072240111869    14.003074004430
         C           -0.282188353261    -1.542996356843     0.002964888131    12.000000000000
         C            1.067710646739    -1.377037356843    -0.000299111869    12.000000000000
         C           -0.642713353261     0.863995643157     0.019266888131    12.000000000000
         C           -2.570561353261    -0.697657356843     0.004260888131    12.000000000000
         C            1.528828646739    -0.022225356843     0.003538888131    12.000000000000
         H           -0.761139953261    -2.518562356843    -0.056210511869     1.007825032230
         H            1.746532646739    -2.221997356843    -0.027647111869     1.007825032230
         H           -2.872323353261    -1.257476356843     0.892952888131     1.007825032230
         H           -2.867217353261    -1.244220356843    -0.894319111869     1.007825032230
         H           -3.035138353261     0.285169643157     0.010693888131     1.007825032230
         H            3.493891646739    -0.473253356843     0.350517888131     1.007825032230
         H            3.136551646739     1.178591643157     0.121329888131     1.007825032230

  Basis Set: AUG-CC-PVTZ
    Blend: AUG-CC-PVTZ
  Basis Set: (AUG-CC-PVTZ AUX)
    Blend: AUG-CC-PVTZ-JKFIT
	 Reference Energy          =    -431.8008618198600175 [Eh]
	 Singles Energy            =      -0.0000000000000000 [Eh]
	 Same-Spin Energy          =      -0.4503962526271171 [Eh]
	 Opposite-Spin Energy      =      -1.3721805646853371 [Eh]
	 Correlation Energy        =      -1.8225768173124544 [Eh]
	 Total Energy              =    -433.6234386371724554 [Eh]

	 ================> DF-SCS-MP2 Energies <==================
	-----------------------------------------------------------
	 SCS Same-Spin Scale       =       0.3333333333333333 [-]
	 SCS Opposite-Spin Scale   =       1.2000000000000000 [-]
	 SCS Same-Spin Energy      =      -0.1501320842090390 [Eh]
	 SCS Opposite-Spin Energy  =      -1.6466166776224045 [Eh]
	 SCS Correlation Energy    =      -1.7967487618314435 [Eh]
	 SCS Total Energy          =    -433.5976105816914696 [Eh]
	-----------------------------------------------------------

  Dipole Moment: [D]
     X:     1.7040      Y:    -5.6313      Z:     0.8029     Total:     5.9380

*** Psi4 exiting successfully. Buy a developer a beer!
