                               Psi4 1.3.2 release

  ==> Input File <==

--------------------------------------------------------------------------
#psi4
#
memory 32 gb

molecule  {
0 1
  O       -1.4243350     1.8531120    -0.0084660
  N       -1.1176450    -0.4263010     0.0065070
  N        0.7429240     1.0712790     0.0095610
  N        2.8919430     0.2615640    -0.0759850
  C       -0.2733660    -1.4960510    -0.0007800
  C        1.0646165    -1.3300492    -0.3038072
  C       -0.6338910     0.9109410     0.0155220
  C       -2.5617390    -0.6507120     0.0005160
  C        1.5376510     0.0247200    -0.0002060
  H       -0.7522370    -2.4720050    -0.0099570
  H        1.7553550    -2.1750520    -0.0313920
  H       -2.8635010    -1.2105310     0.8892080
  H       -2.8583950    -1.1972750    -0.8980640
  H       -3.0263160     0.3321150     0.0069490
  H        3.5027140    -0.4263080     0.3467730
  H        3.1453740     1.2255370     0.1175850
units angstrom
no_reorient  #important for SAPT in psi4, default
symmetry c1  #important for SAPT in psi4, default
}

set PROPERTIES_ORIGIN ["COM"]
properties('MP2/aug-cc-pvtz', properties = ['dipole'])
--------------------------------------------------------------------------

    Molecular point group: c1
  Charge       = 0
  Multiplicity = 1
  Basis Set: AUG-CC-PVTZ
    Blend: AUG-CC-PVTZ
  Basis Set: (AUG-CC-PVTZ AUX)
    Blend: AUG-CC-PVTZ-JKFIT

    Orbital Energies [Eh]
    ---------------------

    Doubly Occupied:

       1A    -20.507340     2A    -15.628169     3A    -15.591990
       4A    -15.544523     5A    -11.374870     6A    -11.351965
       7A    -11.333087     8A    -11.272058     9A    -11.251700
      10A     -1.385107    11A     -1.296612    12A     -1.268349
      13A     -1.171382    14A     -1.066986    15A     -0.965420
      16A     -0.896862    17A     -0.852827    18A     -0.754372
      19A     -0.720066    20A     -0.684070    21A     -0.672929
      22A     -0.656942    23A     -0.615707    24A     -0.599293
      25A     -0.589826    26A     -0.574580    27A     -0.557802
      28A     -0.520699    29A     -0.474616    30A     -0.441553
      31A     -0.420580    32A     -0.387646    33A     -0.341303

  @DF-RHF Final Energy:  -431.77881050398395

   => Energetics <=

    Nuclear Repulsion Energy =            440.0142272720809160
    One-Electron Energy =               -1460.0436160270944583
    Two-Electron Energy =                 588.2505782510295376
    Total Energy =                       -431.7788105039840048
  Basis Set: (AUG-CC-PVTZ AUX)
    Blend: AUG-CC-PVTZ-RI
    Molecular point group: c1

    Geometry (in Angstrom), charge = 0, multiplicity = 1:

       Center              X                  Y                   Z               Mass
    ------------   -----------------  -----------------  -----------------  -----------------
         O           -1.432014557701     1.806165663107     0.023639671926    15.994914619570
         N           -1.125324557701    -0.473247336893     0.038612671926    14.003074004430
         N            0.735244442299     1.024332663107     0.041666671926    14.003074004430
         N            2.884263442299     0.214617663107    -0.043879328074    14.003074004430
         C           -0.281045557701    -1.542997336893     0.031325671926    12.000000000000
         C            1.056936942299    -1.376995536893    -0.271701528074    12.000000000000
         C           -0.641570557701     0.863994663107     0.047627671926    12.000000000000
         C           -2.569418557701    -0.697658336893     0.032621671926    12.000000000000
         C            1.529971442299    -0.022226336893     0.031899671926    12.000000000000
         H           -0.759916557701    -2.518951336893     0.022148671926     1.007825032230
         H            1.747675442299    -2.221998336893     0.000713671926     1.007825032230
         H           -2.871180557701    -1.257477336893     0.921313671926     1.007825032230
         H           -2.866074557701    -1.244221336893    -0.865958328074     1.007825032230
         H           -3.033995557701     0.285168663107     0.039054671926     1.007825032230
         H            3.495034442299    -0.473254336893     0.378878671926     1.007825032230
         H            3.137694442299     1.178590663107     0.149690671926     1.007825032230

  Basis Set: AUG-CC-PVTZ
    Blend: AUG-CC-PVTZ
  Basis Set: (AUG-CC-PVTZ AUX)
    Blend: AUG-CC-PVTZ-JKFIT
	 Reference Energy          =    -431.7788105039839479 [Eh]
	 Singles Energy            =      -0.0000000000000000 [Eh]
	 Same-Spin Energy          =      -0.4511083644597121 [Eh]
	 Opposite-Spin Energy      =      -1.3748744615479851 [Eh]
	 Correlation Energy        =      -1.8259828260076971 [Eh]
	 Total Energy              =    -433.6047933299916508 [Eh]

	 ================> DF-SCS-MP2 Energies <==================
	-----------------------------------------------------------
	 SCS Same-Spin Scale       =       0.3333333333333333 [-]
	 SCS Opposite-Spin Scale   =       1.2000000000000000 [-]
	 SCS Same-Spin Energy      =      -0.1503694548199040 [Eh]
	 SCS Opposite-Spin Energy  =      -1.6498493538575820 [Eh]
	 SCS Correlation Energy    =      -1.8002188086774860 [Eh]
	 SCS Total Energy          =    -433.5790293126614188 [Eh]
	-----------------------------------------------------------

  Dipole Moment: [D]
     X:     1.5657      Y:    -5.4093      Z:     1.0875     Total:     5.7354

*** Psi4 exiting successfully. Buy a developer a beer!
