                               Psi4 1.3.2 release

  ==> Input File <==

--------------------------------------------------------------------------
#psi4
#
memory 32 gb

molecule  {
0 1
  O       -1.4243350     1.8531120    -0.0084660
  N       -1.1176450    -0.4263010     0.0065070
  N        0.7429240     1.0712790     0.0095610
  N        2.8919430     0.2615640    -0.0759850
  C       -0.2733660    -1.4960510    -0.0007800
  C        1.0765330    -1.3300920    -0.0040440
  C       -0.6338910     0.9109410     0.0155220
  C       -2.5617390    -0.6507120     0.0005160
  C        1.5376510     0.0247200    -0.0002060
  H       -0.7527206    -2.4696770    -0.3099476
  H        1.7553550    -2.1750520    -0.0313920
  H       -2.8635010    -1.2105310     0.8892080
  H       -2.8583950    -1.1972750    -0.8980640
  H       -3.0263160     0.3321150     0.0069490
  H        3.5027140    -0.4263080     0.3467730
  H        3.1453740     1.2255370     0.1175850
units angstrom
no_reorient  #important for SAPT in psi4, default
symmetry c1  #important for SAPT in psi4, default
}

set PROPERTIES_ORIGIN ["COM"]
properties('MP2/aug-cc-pvtz', properties = ['dipole'])
--------------------------------------------------------------------------

    Molecular point group: c1
  Charge       = 0
  Multiplicity = 1
  Basis Set: AUG-CC-PVTZ
    Blend: AUG-CC-PVTZ
  Basis Set: (AUG-CC-PVTZ AUX)
    Blend: AUG-CC-PVTZ-JKFIT

    Orbital Energies [Eh]
    ---------------------

    Doubly Occupied:

       1A    -20.503720     2A    -15.625161     3A    -15.591818
       4A    -15.544114     5A    -11.372450     6A    -11.349864
       7A    -11.330614     8A    -11.270161     9A    -11.247296
      10A     -1.382683    11A     -1.296143    12A     -1.267419
      13A     -1.170980    14A     -1.072428    15A     -0.965201
      16A     -0.895590    17A     -0.853891    18A     -0.759198
      19A     -0.720104    20A     -0.685988    21A     -0.671915
      22A     -0.655358    23A     -0.621406    24A     -0.597157
      25A     -0.592037    26A     -0.579489    27A     -0.558997
      28A     -0.522137    29A     -0.475504    30A     -0.441120
      31A     -0.419403    32A     -0.388110    33A     -0.339179

  @DF-RHF Final Energy:  -431.79438527588542

   => Energetics <=

    Nuclear Repulsion Energy =            440.7540865643355801
    One-Electron Energy =               -1461.5636770095979955
    Two-Electron Energy =                 589.0152051693769408
    Total Energy =                       -431.7943852758854746
  Basis Set: (AUG-CC-PVTZ AUX)
    Blend: AUG-CC-PVTZ-RI
    Molecular point group: c1

    Geometry (in Angstrom), charge = 0, multiplicity = 1:

       Center              X                  Y                   Z               Mass
    ------------   -----------------  -----------------  -----------------  -----------------
         O           -1.433154105564     1.806151009080    -0.002706474181    15.994914619570
         N           -1.126464105564    -0.473261990920     0.012266525819    14.003074004430
         N            0.734104894436     1.024318009080     0.015320525819    14.003074004430
         N            2.883123894436     0.214603009080    -0.070225474181    14.003074004430
         C           -0.282185105564    -1.543011990920     0.004979525819    12.000000000000
         C            1.067713894436    -1.377052990920     0.001715525819    12.000000000000
         C           -0.642710105564     0.863980009080     0.021281525819    12.000000000000
         C           -2.570558105564    -0.697672990920     0.006275525819    12.000000000000
         C            1.528831894436    -0.022240990920     0.005553525819    12.000000000000
         H           -0.761539705564    -2.516637990920    -0.304188074181     1.007825032230
         H            1.746535894436    -2.222012990920    -0.025632474181     1.007825032230
         H           -2.872320105564    -1.257491990920     0.894967525819     1.007825032230
         H           -2.867214105564    -1.244235990920    -0.892304474181     1.007825032230
         H           -3.035135105564     0.285154009080     0.012708525819     1.007825032230
         H            3.493894894436    -0.473268990920     0.352532525819     1.007825032230
         H            3.136554894436     1.178576009080     0.123344525819     1.007825032230

  Basis Set: AUG-CC-PVTZ
    Blend: AUG-CC-PVTZ
  Basis Set: (AUG-CC-PVTZ AUX)
    Blend: AUG-CC-PVTZ-JKFIT
	 Reference Energy          =    -431.7943852758854177 [Eh]
	 Singles Energy            =      -0.0000000000000000 [Eh]
	 Same-Spin Energy          =      -0.4508324161127122 [Eh]
	 Opposite-Spin Energy      =      -1.3730727377752734 [Eh]
	 Correlation Energy        =      -1.8239051538879856 [Eh]
	 Total Energy              =    -433.6182904297734240 [Eh]

	 ================> DF-SCS-MP2 Energies <==================
	-----------------------------------------------------------
	 SCS Same-Spin Scale       =       0.3333333333333333 [-]
	 SCS Opposite-Spin Scale   =       1.2000000000000000 [-]
	 SCS Same-Spin Energy      =      -0.1502774720375707 [Eh]
	 SCS Opposite-Spin Energy  =      -1.6476872853303279 [Eh]
	 SCS Correlation Energy    =      -1.7979647573678987 [Eh]
	 SCS Total Energy          =    -433.5923500332532967 [Eh]
	-----------------------------------------------------------

  Dipole Moment: [D]
     X:     1.7484      Y:    -5.5775      Z:     0.6594     Total:     5.8822

*** Psi4 exiting successfully. Buy a developer a beer!
