                               Psi4 1.3.2 release

  ==> Input File <==

--------------------------------------------------------------------------
#psi4
#
memory 32 gb

molecule  {
0 1
  O       -1.4243350     1.8531120    -0.0084660
  N       -1.1176450    -0.4263010     0.0065070
  N        0.7429240     1.0712790     0.0095610
  N        2.8919430     0.2615640    -0.0759850
  C       -0.2733660    -1.4960510    -0.0007800
  C        1.0765330    -1.3300920    -0.0040440
  C       -0.6338910     0.9109410     0.0155220
  C       -2.5620463    -0.6517739     0.1505119
  C        1.5376510     0.0247200    -0.0002060
  H       -0.7522370    -2.4720050    -0.0099570
  H        1.7553550    -2.1750520    -0.0313920
  H       -2.8635010    -1.2105310     0.8892080
  H       -2.8583950    -1.1972750    -0.8980640
  H       -3.0263160     0.3321150     0.0069490
  H        3.5027140    -0.4263080     0.3467730
  H        3.1453740     1.2255370     0.1175850
units angstrom
no_reorient  #important for SAPT in psi4, default
symmetry c1  #important for SAPT in psi4, default
}

set PROPERTIES_ORIGIN ["COM"]
properties('MP2/aug-cc-pvtz', properties = ['dipole'])
--------------------------------------------------------------------------

    Molecular point group: c1
  Charge       = 0
  Multiplicity = 1
  Basis Set: AUG-CC-PVTZ
    Blend: AUG-CC-PVTZ
  Basis Set: (AUG-CC-PVTZ AUX)
    Blend: AUG-CC-PVTZ-JKFIT

    Orbital Energies [Eh]
    ---------------------

    Doubly Occupied:

       1A    -20.504181     2A    -15.626706     3A    -15.591888
       4A    -15.543932     5A    -11.372695     6A    -11.349631
       7A    -11.327258     8A    -11.273813     9A    -11.246306
      10A     -1.382893    11A     -1.296273    12A     -1.267356
      13A     -1.170898    14A     -1.072775    15A     -0.968414
      16A     -0.900001    17A     -0.855191    18A     -0.759530
      19A     -0.725996    20A     -0.693350    21A     -0.674006
      22A     -0.656918    23A     -0.622799    24A     -0.608495
      25A     -0.599007    26A     -0.575395    27A     -0.547088
      28A     -0.515720    29A     -0.473734    30A     -0.440879
      31A     -0.419261    32A     -0.387899    33A     -0.339115

  @DF-RHF Final Energy:  -431.77627575603543

   => Energetics <=

    Nuclear Repulsion Energy =            440.8004766598418769
    One-Electron Energy =               -1461.5747016284433357
    Two-Electron Energy =                 588.9979492125660272
    Total Energy =                       -431.7762757560353748
  Basis Set: (AUG-CC-PVTZ AUX)
    Blend: AUG-CC-PVTZ-RI
    Molecular point group: c1

    Geometry (in Angstrom), charge = 0, multiplicity = 1:

       Center              X                  Y                   Z               Mass
    ------------   -----------------  -----------------  -----------------  -----------------
         O           -1.433128515898     1.806271664350    -0.019516862221    15.994914619570
         N           -1.126438515898    -0.473141335650    -0.004543862221    14.003074004430
         N            0.734130484102     1.024438664350    -0.001489862221    14.003074004430
         N            2.883149484102     0.214723664350    -0.087035862221    14.003074004430
         C           -0.282159515898    -1.542891335650    -0.011830862221    12.000000000000
         C            1.067739484102    -1.376932335650    -0.015094862221    12.000000000000
         C           -0.642684515898     0.864100664350     0.004471137779    12.000000000000
         C           -2.570839815898    -0.698614235650     0.139461037779    12.000000000000
         C            1.528857484102    -0.022120335650    -0.011256862221    12.000000000000
         H           -0.761030515898    -2.518845335650    -0.021007862221     1.007825032230
         H            1.746561484102    -2.221892335650    -0.042442862221     1.007825032230
         H           -2.872294515898    -1.257371335650     0.878157137779     1.007825032230
         H           -2.867188515898    -1.244115335650    -0.909114862221     1.007825032230
         H           -3.035109515898     0.285274664350    -0.004101862221     1.007825032230
         H            3.493920484102    -0.473148335650     0.335722137779     1.007825032230
         H            3.136580484102     1.178696664350     0.106534137779     1.007825032230

  Basis Set: AUG-CC-PVTZ
    Blend: AUG-CC-PVTZ
  Basis Set: (AUG-CC-PVTZ AUX)
    Blend: AUG-CC-PVTZ-JKFIT
	 Reference Energy          =    -431.7762757560354316 [Eh]
	 Singles Energy            =      -0.0000000000000000 [Eh]
	 Same-Spin Energy          =      -0.4506982074520645 [Eh]
	 Opposite-Spin Energy      =      -1.3731814628029706 [Eh]
	 Correlation Energy        =      -1.8238796702550351 [Eh]
	 Total Energy              =    -433.6001554262904847 [Eh]

	 ================> DF-SCS-MP2 Energies <==================
	-----------------------------------------------------------
	 SCS Same-Spin Scale       =       0.3333333333333333 [-]
	 SCS Opposite-Spin Scale   =       1.2000000000000000 [-]
	 SCS Same-Spin Energy      =      -0.1502327358173548 [Eh]
	 SCS Opposite-Spin Energy  =      -1.6478177553635647 [Eh]
	 SCS Correlation Energy    =      -1.7980504911809194 [Eh]
	 SCS Total Energy          =    -433.5743262472163337 [Eh]
	-----------------------------------------------------------

  Dipole Moment: [D]
     X:     1.7505      Y:    -5.6006      Z:     0.9975     Total:     5.9519

*** Psi4 exiting successfully. Buy a developer a beer!
