                               Psi4 1.3.2 release

  ==> Input File <==

--------------------------------------------------------------------------
#psi4
#
memory 32 gb

molecule  {
0 1
  O       -1.4243350     1.8531120    -0.0084660
  N       -1.1176450    -0.4263010     0.0065070
  N        0.7429240     1.0712790     0.0095610
  N        2.8919430     0.2615640    -0.0759850
  C       -0.2733660    -1.4960510    -0.0007800
  C        1.0765330    -1.3300920    -0.0040440
  C       -0.6338910     0.9109410     0.0155220
  C       -2.5617390    -0.6507120     0.0005160
  C        1.5376510     0.0247200    -0.0002060
  H       -0.7522370    -2.4720050    -0.0099570
  H        1.7553550    -2.1750520    -0.0313920
  H       -2.8635010    -1.2105310     0.8892080
  H       -2.8583950    -1.1972750    -0.8980640
  H       -3.0263160     0.3321150     0.0069490
  H        3.5027140    -0.4263080     0.3467730
  H        3.1154266     1.2463427     0.3142326
units angstrom
no_reorient  #important for SAPT in psi4, default
symmetry c1  #important for SAPT in psi4, default
}

set PROPERTIES_ORIGIN ["COM"]
properties('MP2/aug-cc-pvtz', properties = ['dipole'])
--------------------------------------------------------------------------

    Molecular point group: c1
  Charge       = 0
  Multiplicity = 1
  Basis Set: AUG-CC-PVTZ
    Blend: AUG-CC-PVTZ
  Basis Set: (AUG-CC-PVTZ AUX)
    Blend: AUG-CC-PVTZ-JKFIT

    Orbital Energies [Eh]
    ---------------------

    Doubly Occupied:

       1A    -20.504333     2A    -15.626391     3A    -15.597091
       4A    -15.544805     5A    -11.373039     6A    -11.349144
       7A    -11.327918     8A    -11.271071     9A    -11.246414
      10A     -1.383351    11A     -1.296057    12A     -1.266360
      13A     -1.168320    14A     -1.072812    15A     -0.964925
      16A     -0.898834    17A     -0.852957    18A     -0.753760
      19A     -0.722438    20A     -0.686163    21A     -0.662065
      22A     -0.656289    23A     -0.620132    24A     -0.597798
      25A     -0.590438    26A     -0.580812    27A     -0.559516
      28A     -0.523657    29A     -0.477120    30A     -0.441593
      31A     -0.420581    32A     -0.390663    33A     -0.339565

  @DF-RHF Final Energy:  -431.79439644511029

   => Energetics <=

    Nuclear Repulsion Energy =            440.6974549092150824
    One-Electron Energy =               -1461.4508832721287490
    Two-Electron Energy =                 588.9590319178032587
    Total Energy =                       -431.7943964451103511
  Basis Set: (AUG-CC-PVTZ AUX)
    Blend: AUG-CC-PVTZ-RI
    Molecular point group: c1

    Geometry (in Angstrom), charge = 0, multiplicity = 1:

       Center              X                  Y                   Z               Mass
    ------------   -----------------  -----------------  -----------------  -----------------
         O           -1.432916662628     1.806002100951    -0.006708783193    15.994914619570
         N           -1.126226662628    -0.473410899049     0.008264216807    14.003074004430
         N            0.734342337372     1.024169100951     0.011318216807    14.003074004430
         N            2.883361337372     0.214454100951    -0.074227783193    14.003074004430
         C           -0.281947662628    -1.543160899049     0.000977216807    12.000000000000
         C            1.067951337372    -1.377201899049    -0.002286783193    12.000000000000
         C           -0.642472662628     0.863831100951     0.017279216807    12.000000000000
         C           -2.570320662628    -0.697821899049     0.002273216807    12.000000000000
         C            1.529069337372    -0.022389899049     0.001551216807    12.000000000000
         H           -0.760818662628    -2.519114899049    -0.008199783193     1.007825032230
         H            1.746773337372    -2.222161899049    -0.029634783193     1.007825032230
         H           -2.872082662628    -1.257640899049     0.890965216807     1.007825032230
         H           -2.866976662628    -1.244384899049    -0.896306783193     1.007825032230
         H           -3.034897662628     0.285005100951     0.008706216807     1.007825032230
         H            3.494132337372    -0.473417899049     0.348530216807     1.007825032230
         H            3.106844937372     1.199232800951     0.315989816807     1.007825032230

  Basis Set: AUG-CC-PVTZ
    Blend: AUG-CC-PVTZ
  Basis Set: (AUG-CC-PVTZ AUX)
    Blend: AUG-CC-PVTZ-JKFIT
	 Reference Energy          =    -431.7943964451102943 [Eh]
	 Singles Energy            =      -0.0000000000000000 [Eh]
	 Same-Spin Energy          =      -0.4508924191949019 [Eh]
	 Opposite-Spin Energy      =      -1.3735875385904337 [Eh]
	 Correlation Energy        =      -1.8244799577853357 [Eh]
	 Total Energy              =    -433.6188764028956371 [Eh]

	 ================> DF-SCS-MP2 Energies <==================
	-----------------------------------------------------------
	 SCS Same-Spin Scale       =       0.3333333333333333 [-]
	 SCS Opposite-Spin Scale   =       1.2000000000000000 [-]
	 SCS Same-Spin Energy      =      -0.1502974730649673 [Eh]
	 SCS Opposite-Spin Energy  =      -1.6483050463085205 [Eh]
	 SCS Correlation Energy    =      -1.7986025193734878 [Eh]
	 SCS Total Energy          =    -433.5929989644837974 [Eh]
	-----------------------------------------------------------

  Dipole Moment: [D]
     X:     1.5401      Y:    -5.6805      Z:     1.0568     Total:     5.9797

*** Psi4 exiting successfully. Buy a developer a beer!
