                               Psi4 1.3.2 release

  ==> Input File <==

--------------------------------------------------------------------------
#psi4
#
memory 32 gb

molecule  {
0 1
  O       -1.4243350     1.8531120    -0.0084660
  N       -1.1176450    -0.4263010     0.0065070
  N        0.7429240     1.0712790     0.0095610
  N        2.8919430     0.2615640    -0.0759850
  C       -0.2733660    -1.4960510    -0.0007800
  C        1.0765330    -1.3300920    -0.0040440
  C       -0.6338910     0.9109410     0.0155220
  C       -2.5618414    -0.6510660     0.0505146
  C        1.5376510     0.0247200    -0.0002060
  H       -0.7522370    -2.4720050    -0.0099570
  H        1.7553550    -2.1750520    -0.0313920
  H       -2.8635010    -1.2105310     0.8892080
  H       -2.8583950    -1.1972750    -0.8980640
  H       -3.0263160     0.3321150     0.0069490
  H        3.5027140    -0.4263080     0.3467730
  H        3.1453740     1.2255370     0.1175850
units angstrom
no_reorient  #important for SAPT in psi4, default
symmetry c1  #important for SAPT in psi4, default
}

set PROPERTIES_ORIGIN ["COM"]
properties('MP2/aug-cc-pvtz', properties = ['dipole'])
--------------------------------------------------------------------------

    Molecular point group: c1
  Charge       = 0
  Multiplicity = 1
  Basis Set: AUG-CC-PVTZ
    Blend: AUG-CC-PVTZ
  Basis Set: (AUG-CC-PVTZ AUX)
    Blend: AUG-CC-PVTZ-JKFIT

    Orbital Energies [Eh]
    ---------------------

    Doubly Occupied:

       1A    -20.503642     2A    -15.625548     3A    -15.591567
       4A    -15.543607     5A    -11.372289     6A    -11.349297
       7A    -11.327217     8A    -11.270833     9A    -11.246008
      10A     -1.382614    11A     -1.296034    12A     -1.267437
      13A     -1.170709    14A     -1.072709    15A     -0.965618
      16A     -0.899448    17A     -0.853868    18A     -0.759045
      19A     -0.724020    20A     -0.686436    21A     -0.674078
      22A     -0.656174    23A     -0.622102    24A     -0.602162
      25A     -0.593164    26A     -0.580390    27A     -0.556578
      28A     -0.521257    29A     -0.476066    30A     -0.440883
      31A     -0.419557    32A     -0.387910    33A     -0.339015

  @DF-RHF Final Energy:  -431.79831954982672

   => Energetics <=

    Nuclear Repulsion Energy =            440.9034584761113251
    One-Electron Energy =               -1461.8489880588663254
    Two-Electron Energy =                 589.1472100329282284
    Total Energy =                       -431.7983195498267150
  Basis Set: (AUG-CC-PVTZ AUX)
    Blend: AUG-CC-PVTZ-RI
    Molecular point group: c1

    Geometry (in Angstrom), charge = 0, multiplicity = 1:

       Center              X                  Y                   Z               Mass
    ------------   -----------------  -----------------  -----------------  -----------------
         O           -1.433148177032     1.806203737963    -0.009921643598    15.994914619570
         N           -1.126458177032    -0.473209262037     0.005051356402    14.003074004430
         N            0.734110822968     1.024370737963     0.008105356402    14.003074004430
         N            2.883129822968     0.214655737963    -0.077440643598    14.003074004430
         C           -0.282179177032    -1.542959262037    -0.002235643598    12.000000000000
         C            1.067719822968    -1.377000262037    -0.005499643598    12.000000000000
         C           -0.642704177032     0.864032737963     0.014066356402    12.000000000000
         C           -2.570654577032    -0.697974262037     0.049058956402    12.000000000000
         C            1.528837822968    -0.022188262037    -0.001661643598    12.000000000000
         H           -0.761050177032    -2.518913262037    -0.011412643598     1.007825032230
         H            1.746541822968    -2.221960262037    -0.032847643598     1.007825032230
         H           -2.872314177032    -1.257439262037     0.887752356402     1.007825032230
         H           -2.867208177032    -1.244183262037    -0.899519643598     1.007825032230
         H           -3.035129177032     0.285206737963     0.005493356402     1.007825032230
         H            3.493900822968    -0.473216262037     0.345317356402     1.007825032230
         H            3.136560822968     1.178628737963     0.116129356402     1.007825032230

  Basis Set: AUG-CC-PVTZ
    Blend: AUG-CC-PVTZ
  Basis Set: (AUG-CC-PVTZ AUX)
    Blend: AUG-CC-PVTZ-JKFIT
	 Reference Energy          =    -431.7983195498267150 [Eh]
	 Singles Energy            =      -0.0000000000000000 [Eh]
	 Same-Spin Energy          =      -0.4504212789080257 [Eh]
	 Opposite-Spin Energy      =      -1.3722727565582065 [Eh]
	 Correlation Energy        =      -1.8226940354662322 [Eh]
	 Total Energy              =    -433.6210135852929284 [Eh]

	 ================> DF-SCS-MP2 Energies <==================
	-----------------------------------------------------------
	 SCS Same-Spin Scale       =       0.3333333333333333 [-]
	 SCS Opposite-Spin Scale   =       1.2000000000000000 [-]
	 SCS Same-Spin Energy      =      -0.1501404263026752 [Eh]
	 SCS Opposite-Spin Energy  =      -1.6467273078698477 [Eh]
	 SCS Correlation Energy    =      -1.7968677341725230 [Eh]
	 SCS Total Energy          =    -433.5951872839992234 [Eh]
	-----------------------------------------------------------

  Dipole Moment: [D]
     X:     1.7084      Y:    -5.6297      Z:     0.8890     Total:     5.9500

*** Psi4 exiting successfully. Buy a developer a beer!
