                               Psi4 1.3.2 release

  ==> Input File <==

--------------------------------------------------------------------------
#psi4
#
memory 32 gb

molecule  {
0 1
  O       -1.4243350     1.8531120    -0.0084660
  N       -1.1176450    -0.4263010     0.0065070
  N        0.7429240     1.0712790     0.0095610
  N        2.8919430     0.2615640    -0.0759850
  C       -0.2733660    -1.4960510    -0.0007800
  C        1.0765330    -1.3300920    -0.0040440
  C       -0.6338910     0.9109410     0.0155220
  C       -2.5617390    -0.6507120     0.0005160
  C        1.5376510     0.0247200    -0.0002060
  H       -0.7523982    -2.4712290    -0.1099539
  H        1.7553550    -2.1750520    -0.0313920
  H       -2.8635010    -1.2105310     0.8892080
  H       -2.8583950    -1.1972750    -0.8980640
  H       -3.0263160     0.3321150     0.0069490
  H        3.5027140    -0.4263080     0.3467730
  H        3.1453740     1.2255370     0.1175850
units angstrom
no_reorient  #important for SAPT in psi4, default
symmetry c1  #important for SAPT in psi4, default
}

set PROPERTIES_ORIGIN ["COM"]
properties('MP2/aug-cc-pvtz', properties = ['dipole'])
--------------------------------------------------------------------------

    Molecular point group: c1
  Charge       = 0
  Multiplicity = 1
  Basis Set: AUG-CC-PVTZ
    Blend: AUG-CC-PVTZ
  Basis Set: (AUG-CC-PVTZ AUX)
    Blend: AUG-CC-PVTZ-JKFIT

    Orbital Energies [Eh]
    ---------------------

    Doubly Occupied:

       1A    -20.503590     2A    -15.625365     3A    -15.591528
       4A    -15.543613     5A    -11.372263     6A    -11.349347
       7A    -11.327622     8A    -11.270432     9A    -11.246154
      10A     -1.382591    11A     -1.296016    12A     -1.267432
      13A     -1.170705    14A     -1.072672    15A     -0.965269
      16A     -0.898903    17A     -0.853714    18A     -0.759007
      19A     -0.723365    20A     -0.685769    21A     -0.673668
      22A     -0.655587    23A     -0.621948    24A     -0.601225
      25A     -0.592388    26A     -0.579729    27A     -0.559098
      28A     -0.521917    29A     -0.476246    30A     -0.440896
      31A     -0.419687    32A     -0.387849    33A     -0.339017

  @DF-RHF Final Energy:  -431.80035872948457

   => Energetics <=

    Nuclear Repulsion Energy =            440.8992164075478399
    One-Electron Energy =               -1461.8499240400401504
    Two-Electron Energy =                 589.1503489030078526
    Total Energy =                       -431.8003587294845147
  Basis Set: (AUG-CC-PVTZ AUX)
    Blend: AUG-CC-PVTZ-RI
    Molecular point group: c1

    Geometry (in Angstrom), charge = 0, multiplicity = 1:

       Center              X                  Y                   Z               Mass
    ------------   -----------------  -----------------  -----------------  -----------------
         O           -1.433156703722     1.806163516341    -0.004318183848    15.994914619570
         N           -1.126466703722    -0.473249483659     0.010654816152    14.003074004430
         N            0.734102296278     1.024330516341     0.013708816152    14.003074004430
         N            2.883121296278     0.214615516341    -0.071837183848    14.003074004430
         C           -0.282187703722    -1.542999483659     0.003367816152    12.000000000000
         C            1.067711296278    -1.377040483659     0.000103816152    12.000000000000
         C           -0.642712703722     0.863992516341     0.019669816152    12.000000000000
         C           -2.570560703722    -0.697660483659     0.004663816152    12.000000000000
         C            1.528829296278    -0.022228483659     0.003941816152    12.000000000000
         H           -0.761219903722    -2.518177483659    -0.105806083848     1.007825032230
         H            1.746533296278    -2.222000483659    -0.027244183848     1.007825032230
         H           -2.872322703722    -1.257479483659     0.893355816152     1.007825032230
         H           -2.867216703722    -1.244223483659    -0.893916183848     1.007825032230
         H           -3.035137703722     0.285166516341     0.011096816152     1.007825032230
         H            3.493892296278    -0.473256483659     0.350920816152     1.007825032230
         H            3.136552296278     1.178588516341     0.121732816152     1.007825032230

  Basis Set: AUG-CC-PVTZ
    Blend: AUG-CC-PVTZ
  Basis Set: (AUG-CC-PVTZ AUX)
    Blend: AUG-CC-PVTZ-JKFIT
	 Reference Energy          =    -431.8003587294845715 [Eh]
	 Singles Energy            =      -0.0000000000000000 [Eh]
	 Same-Spin Energy          =      -0.4504333471941519 [Eh]
	 Opposite-Spin Energy      =      -1.3722439148063490 [Eh]
	 Correlation Energy        =      -1.8226772620005010 [Eh]
	 Total Energy              =    -433.6230359914850965 [Eh]

	 ================> DF-SCS-MP2 Energies <==================
	-----------------------------------------------------------
	 SCS Same-Spin Scale       =       0.3333333333333333 [-]
	 SCS Opposite-Spin Scale   =       1.2000000000000000 [-]
	 SCS Same-Spin Energy      =      -0.1501444490647173 [Eh]
	 SCS Opposite-Spin Energy  =      -1.6466926977676188 [Eh]
	 SCS Correlation Energy    =      -1.7968371468323361 [Eh]
	 SCS Total Energy          =    -433.5971958763169027 [Eh]
	-----------------------------------------------------------

  Dipole Moment: [D]
     X:     1.7076      Y:    -5.6267      Z:     0.7736     Total:     5.9307

*** Psi4 exiting successfully. Buy a developer a beer!
