                               Psi4 1.3.2 release

  ==> Input File <==

--------------------------------------------------------------------------
#psi4
#
memory 32 gb

molecule  {
0 1
  O       -1.4243350     1.8531120    -0.0084660
  N       -1.1176450    -0.4263010     0.0065070
  N        0.7429240     1.0712790     0.0095610
  N        2.8919430     0.2615640    -0.0759850
  C       -0.2733660    -1.4960510    -0.0007800
  C        1.0765330    -1.3300920    -0.0040440
  C       -0.6338910     0.9109410     0.0155220
  C       -2.5617390    -0.6507120     0.0005160
  C        1.5376510     0.0247200    -0.0002060
  H       -0.7522370    -2.4720050    -0.0099570
  H        1.7553550    -2.1750520    -0.0313920
  H       -2.8635010    -1.2105310     0.8892080
  H       -2.8583950    -1.1972750    -0.8980640
  H       -3.0263160     0.3321150     0.0069490
  H        3.5027140    -0.4263080     0.3467730
  H        3.1229134     1.2411413     0.2650707
units angstrom
no_reorient  #important for SAPT in psi4, default
symmetry c1  #important for SAPT in psi4, default
}

set PROPERTIES_ORIGIN ["COM"]
properties('MP2/aug-cc-pvtz', properties = ['dipole'])
--------------------------------------------------------------------------

    Molecular point group: c1
  Charge       = 0
  Multiplicity = 1
  Basis Set: AUG-CC-PVTZ
    Blend: AUG-CC-PVTZ
  Basis Set: (AUG-CC-PVTZ AUX)
    Blend: AUG-CC-PVTZ-JKFIT

    Orbital Energies [Eh]
    ---------------------

    Doubly Occupied:

       1A    -20.504147     2A    -15.626130     3A    -15.595522
       4A    -15.544508     5A    -11.372851     6A    -11.349170
       7A    -11.327736     8A    -11.270916     9A    -11.246297
      10A     -1.383162    11A     -1.296072    12A     -1.266723
      13A     -1.169040    14A     -1.072799    15A     -0.965027
      16A     -0.898986    17A     -0.853164    18A     -0.755006
      19A     -0.722814    20A     -0.686062    21A     -0.665204
      22A     -0.656099    23A     -0.620669    24A     -0.598780
      25A     -0.591403    26A     -0.580750    27A     -0.559435
      28A     -0.523331    29A     -0.476915    30A     -0.441425
      31A     -0.420388    32A     -0.389967    33A     -0.339426

  @DF-RHF Final Energy:  -431.79704372388323

   => Energetics <=

    Nuclear Repulsion Energy =            440.7640952556004095
    One-Electron Energy =               -1461.5824260601502829
    Two-Electron Energy =                 589.0212870806666388
    Total Energy =                       -431.7970437238832346
  Basis Set: (AUG-CC-PVTZ AUX)
    Blend: AUG-CC-PVTZ-RI
    Molecular point group: c1

    Geometry (in Angstrom), charge = 0, multiplicity = 1:

       Center              X                  Y                   Z               Mass
    ------------   -----------------  -----------------  -----------------  -----------------
         O           -1.432976997269     1.806044018005    -0.006312597166    15.994914619570
         N           -1.126286997269    -0.473368981995     0.008660402834    14.003074004430
         N            0.734282002731     1.024211018005     0.011714402834    14.003074004430
         N            2.883301002731     0.214496018005    -0.073831597166    14.003074004430
         C           -0.282007997269    -1.543118981995     0.001373402834    12.000000000000
         C            1.067891002731    -1.377159981995    -0.001890597166    12.000000000000
         C           -0.642532997269     0.863873018005     0.017675402834    12.000000000000
         C           -2.570380997269    -0.697779981995     0.002669402834    12.000000000000
         C            1.529009002731    -0.022347981995     0.001947402834    12.000000000000
         H           -0.760878997269    -2.519072981995    -0.007803597166     1.007825032230
         H            1.746713002731    -2.222119981995    -0.029238597166     1.007825032230
         H           -2.872142997269    -1.257598981995     0.891361402834     1.007825032230
         H           -2.867036997269    -1.244342981995    -0.895910597166     1.007825032230
         H           -3.034957997269     0.285047018005     0.009102402834     1.007825032230
         H            3.494072002731    -0.473375981995     0.348926402834     1.007825032230
         H            3.114271402731     1.194073318005     0.267224102834     1.007825032230

  Basis Set: AUG-CC-PVTZ
    Blend: AUG-CC-PVTZ
  Basis Set: (AUG-CC-PVTZ AUX)
    Blend: AUG-CC-PVTZ-JKFIT
	 Reference Energy          =    -431.7970437238832346 [Eh]
	 Singles Energy            =      -0.0000000000000000 [Eh]
	 Same-Spin Energy          =      -0.4507353898555789 [Eh]
	 Opposite-Spin Energy      =      -1.3731476647378584 [Eh]
	 Correlation Energy        =      -1.8238830545934372 [Eh]
	 Total Energy              =    -433.6209267784766439 [Eh]

	 ================> DF-SCS-MP2 Energies <==================
	-----------------------------------------------------------
	 SCS Same-Spin Scale       =       0.3333333333333333 [-]
	 SCS Opposite-Spin Scale   =       1.2000000000000000 [-]
	 SCS Same-Spin Energy      =      -0.1502451299518596 [Eh]
	 SCS Opposite-Spin Energy  =      -1.6477771976854301 [Eh]
	 SCS Correlation Energy    =      -1.7980223276372898 [Eh]
	 SCS Total Energy          =    -433.5950660515205186 [Eh]
	-----------------------------------------------------------

  Dipole Moment: [D]
     X:     1.5828      Y:    -5.6666      Z:     1.0040     Total:     5.9686

*** Psi4 exiting successfully. Buy a developer a beer!
