                               Psi4 1.3.2 release

  ==> Input File <==

--------------------------------------------------------------------------
#psi4
#
memory 32 gb

molecule  {
0 1
  O       -1.4243350     1.8531120    -0.0084660
  N       -1.1176450    -0.4263010     0.0065070
  N        0.7429240     1.0712790     0.0095610
  N        2.8919430     0.2615640    -0.0759850
  C       -0.2733660    -1.4960510    -0.0007800
  C        1.0765330    -1.3300920    -0.0040440
  C       -0.6338910     0.9109410     0.0155220
  C       -2.5622512    -0.6524819     0.2505092
  C        1.5376510     0.0247200    -0.0002060
  H       -0.7522370    -2.4720050    -0.0099570
  H        1.7553550    -2.1750520    -0.0313920
  H       -2.8635010    -1.2105310     0.8892080
  H       -2.8583950    -1.1972750    -0.8980640
  H       -3.0263160     0.3321150     0.0069490
  H        3.5027140    -0.4263080     0.3467730
  H        3.1453740     1.2255370     0.1175850
units angstrom
no_reorient  #important for SAPT in psi4, default
symmetry c1  #important for SAPT in psi4, default
}

set PROPERTIES_ORIGIN ["COM"]
properties('MP2/aug-cc-pvtz', properties = ['dipole'])
--------------------------------------------------------------------------

    Molecular point group: c1
  Charge       = 0
  Multiplicity = 1
  Basis Set: AUG-CC-PVTZ
    Blend: AUG-CC-PVTZ
  Basis Set: (AUG-CC-PVTZ AUX)
    Blend: AUG-CC-PVTZ-JKFIT

    Orbital Energies [Eh]
    ---------------------

    Doubly Occupied:

       1A    -20.505218     2A    -15.628877     3A    -15.592491
       4A    -15.544566     5A    -11.373486     6A    -11.350286
       7A    -11.327352     8A    -11.279729     9A    -11.246899
      10A     -1.383432    11A     -1.296728    12A     -1.267160
      13A     -1.171256    14A     -1.072919    15A     -0.974537
      16A     -0.901027    17A     -0.857770    18A     -0.760657
      19A     -0.731124    20A     -0.703614    21A     -0.673944
      22A     -0.655832    23A     -0.625117    24A     -0.615324
      25A     -0.599805    26A     -0.571797    27A     -0.540659
      28A     -0.506490    29A     -0.467683    30A     -0.440557
      31A     -0.419002    32A     -0.387462    33A     -0.339222

  @DF-RHF Final Energy:  -431.73100754211822

   => Energetics <=

    Nuclear Repulsion Energy =            440.6021978431264188
    One-Electron Energy =               -1461.0423671908124561
    Two-Electron Energy =                 588.7091618055678737
    Total Energy =                       -431.7310075421181637
  Basis Set: (AUG-CC-PVTZ AUX)
    Blend: AUG-CC-PVTZ-RI
    Molecular point group: c1

    Geometry (in Angstrom), charge = 0, multiplicity = 1:

       Center              X                  Y                   Z               Mass
    ------------   -----------------  -----------------  -----------------  -----------------
         O           -1.433108854764     1.806339600332    -0.029112080843    15.994914619570
         N           -1.126418854764    -0.473073399668    -0.014139080843    14.003074004430
         N            0.734150145236     1.024506600332    -0.011085080843    14.003074004430
         N            2.883169145236     0.214791600332    -0.096631080843    14.003074004430
         C           -0.282139854764    -1.542823399668    -0.021426080843    12.000000000000
         C            1.067759145236    -1.376864399668    -0.024690080843    12.000000000000
         C           -0.642664854764     0.864168600332    -0.005124080843    12.000000000000
         C           -2.571025054764    -0.699254299668     0.229863119157    12.000000000000
         C            1.528877145236    -0.022052399668    -0.020852080843    12.000000000000
         H           -0.761010854764    -2.518777399668    -0.030603080843     1.007825032230
         H            1.746581145236    -2.221824399668    -0.052038080843     1.007825032230
         H           -2.872274854764    -1.257303399668     0.868561919157     1.007825032230
         H           -2.867168854764    -1.244047399668    -0.918710080843     1.007825032230
         H           -3.035089854764     0.285342600332    -0.013697080843     1.007825032230
         H            3.493940145236    -0.473080399668     0.326126919157     1.007825032230
         H            3.136600145236     1.178764600332     0.096938919157     1.007825032230

  Basis Set: AUG-CC-PVTZ
    Blend: AUG-CC-PVTZ
  Basis Set: (AUG-CC-PVTZ AUX)
    Blend: AUG-CC-PVTZ-JKFIT
	 Reference Energy          =    -431.7310075421182205 [Eh]
	 Singles Energy            =      -0.0000000000000000 [Eh]
	 Same-Spin Energy          =      -0.4512578213449907 [Eh]
	 Opposite-Spin Energy      =      -1.3751432366609089 [Eh]
	 Correlation Energy        =      -1.8264010580058996 [Eh]
	 Total Energy              =    -433.5574086001241199 [Eh]

	 ================> DF-SCS-MP2 Energies <==================
	-----------------------------------------------------------
	 SCS Same-Spin Scale       =       0.3333333333333333 [-]
	 SCS Opposite-Spin Scale   =       1.2000000000000000 [-]
	 SCS Same-Spin Energy      =      -0.1504192737816636 [Eh]
	 SCS Opposite-Spin Energy  =      -1.6501718839930906 [Eh]
	 SCS Correlation Energy    =      -1.8005911577747542 [Eh]
	 SCS Total Energy          =    -433.5315986998929816 [Eh]
	-----------------------------------------------------------

  Dipole Moment: [D]
     X:     1.8305      Y:    -5.5472      Z:     1.0905     Total:     5.9423

*** Psi4 exiting successfully. Buy a developer a beer!
