                               Psi4 1.3.2 release

  ==> Input File <==

--------------------------------------------------------------------------
#psi4
#
memory 32 gb

molecule  {
0 1
  O       -1.4243350     1.8531120    -0.0084660
  N       -1.1176450    -0.4263010     0.0065070
  N        0.7429240     1.0712790     0.0095610
  N        2.8919430     0.2615640    -0.0759850
  C       -0.2733660    -1.4960510    -0.0007800
  C        1.0666025    -1.3300563    -0.2538467
  C       -0.6338910     0.9109410     0.0155220
  C       -2.5617390    -0.6507120     0.0005160
  C        1.5376510     0.0247200    -0.0002060
  H       -0.7522370    -2.4720050    -0.0099570
  H        1.7553550    -2.1750520    -0.0313920
  H       -2.8635010    -1.2105310     0.8892080
  H       -2.8583950    -1.1972750    -0.8980640
  H       -3.0263160     0.3321150     0.0069490
  H        3.5027140    -0.4263080     0.3467730
  H        3.1453740     1.2255370     0.1175850
units angstrom
no_reorient  #important for SAPT in psi4, default
symmetry c1  #important for SAPT in psi4, default
}

set PROPERTIES_ORIGIN ["COM"]
properties('MP2/aug-cc-pvtz', properties = ['dipole'])
--------------------------------------------------------------------------

    Molecular point group: c1
  Charge       = 0
  Multiplicity = 1
  Basis Set: AUG-CC-PVTZ
    Blend: AUG-CC-PVTZ
  Basis Set: (AUG-CC-PVTZ AUX)
    Blend: AUG-CC-PVTZ-JKFIT

    Orbital Energies [Eh]
    ---------------------

    Doubly Occupied:

       1A    -20.506146     2A    -15.627048     3A    -15.591983
       4A    -15.544366     5A    -11.374033     6A    -11.351224
       7A    -11.330839     8A    -11.271450     9A    -11.249919
      10A     -1.384274    11A     -1.296373    12A     -1.268049
      13A     -1.171238    14A     -1.068899    15A     -0.965244
      16A     -0.897402    17A     -0.853153    18A     -0.755733
      19A     -0.720840    20A     -0.684361    21A     -0.673408
      22A     -0.656432    23A     -0.617065    24A     -0.599962
      25A     -0.591205    26A     -0.575910    27A     -0.558330
      28A     -0.520965    29A     -0.475145    30A     -0.441299
      31A     -0.420558    32A     -0.387672    33A     -0.340553

  @DF-RHF Final Energy:  -431.78572922916101

   => Energetics <=

    Nuclear Repulsion Energy =            440.3034973497532860
    One-Electron Energy =               -1460.6362904010554757
    Two-Electron Energy =                 588.5470638221411264
    Total Energy =                       -431.7857292291610065
  Basis Set: (AUG-CC-PVTZ AUX)
    Blend: AUG-CC-PVTZ-RI
    Molecular point group: c1

    Geometry (in Angstrom), charge = 0, multiplicity = 1:

       Center              X                  Y                   Z               Mass
    ------------   -----------------  -----------------  -----------------  -----------------
         O           -1.432205123888     1.806166344386     0.018845723290    15.994914619570
         N           -1.125515123888    -0.473246655614     0.033818723290    14.003074004430
         N            0.735053876112     1.024333344386     0.036872723290    14.003074004430
         N            2.884072876112     0.214618344386    -0.048673276710    14.003074004430
         C           -0.281236123888    -1.542996655614     0.026531723290    12.000000000000
         C            1.058732376112    -1.377001955614    -0.226534976710    12.000000000000
         C           -0.641761123888     0.863995344386     0.042833723290    12.000000000000
         C           -2.569609123888    -0.697657655614     0.027827723290    12.000000000000
         C            1.529780876112    -0.022225655614     0.027105723290    12.000000000000
         H           -0.760107123888    -2.518950655614     0.017354723290     1.007825032230
         H            1.747484876112    -2.221997655614    -0.004080276710     1.007825032230
         H           -2.871371123888    -1.257476655614     0.916519723290     1.007825032230
         H           -2.866265123888    -1.244220655614    -0.870752276710     1.007825032230
         H           -3.034186123888     0.285169344386     0.034260723290     1.007825032230
         H            3.494843876112    -0.473253655614     0.374084723290     1.007825032230
         H            3.137503876112     1.178591344386     0.144896723290     1.007825032230

  Basis Set: AUG-CC-PVTZ
    Blend: AUG-CC-PVTZ
  Basis Set: (AUG-CC-PVTZ AUX)
    Blend: AUG-CC-PVTZ-JKFIT
	 Reference Energy          =    -431.7857292291610065 [Eh]
	 Singles Energy            =      -0.0000000000000000 [Eh]
	 Same-Spin Energy          =      -0.4508821111012876 [Eh]
	 Opposite-Spin Energy      =      -1.3739910706841907 [Eh]
	 Correlation Energy        =      -1.8248731817854784 [Eh]
	 Total Energy              =    -433.6106024109465125 [Eh]

	 ================> DF-SCS-MP2 Energies <==================
	-----------------------------------------------------------
	 SCS Same-Spin Scale       =       0.3333333333333333 [-]
	 SCS Opposite-Spin Scale   =       1.2000000000000000 [-]
	 SCS Same-Spin Energy      =      -0.1502940370337625 [Eh]
	 SCS Opposite-Spin Energy  =      -1.6487892848210288 [Eh]
	 SCS Correlation Energy    =      -1.7990833218547913 [Eh]
	 SCS Total Energy          =    -433.5848125510157729 [Eh]
	-----------------------------------------------------------

  Dipole Moment: [D]
     X:     1.6165      Y:    -5.4764      Z:     1.0426     Total:     5.8044

*** Psi4 exiting successfully. Buy a developer a beer!
