                               Psi4 1.3.2 release

  ==> Input File <==

--------------------------------------------------------------------------
#psi4
#
memory 32 gb

molecule  {
0 1
  O       -1.4243350     1.8531120    -0.0084660
  N       -1.1176450    -0.4263010     0.0065070
  N        0.7429240     1.0712790     0.0095610
  N        2.8919430     0.2615640    -0.0759850
  C       -0.2733660    -1.4960510    -0.0007800
  C        1.0725608    -1.3300777    -0.1039651
  C       -0.6338910     0.9109410     0.0155220
  C       -2.5617390    -0.6507120     0.0005160
  C        1.5376510     0.0247200    -0.0002060
  H       -0.7522370    -2.4720050    -0.0099570
  H        1.7553550    -2.1750520    -0.0313920
  H       -2.8635010    -1.2105310     0.8892080
  H       -2.8583950    -1.1972750    -0.8980640
  H       -3.0263160     0.3321150     0.0069490
  H        3.5027140    -0.4263080     0.3467730
  H        3.1453740     1.2255370     0.1175850
units angstrom
no_reorient  #important for SAPT in psi4, default
symmetry c1  #important for SAPT in psi4, default
}

set PROPERTIES_ORIGIN ["COM"]
properties('MP2/aug-cc-pvtz', properties = ['dipole'])
--------------------------------------------------------------------------

    Molecular point group: c1
  Charge       = 0
  Multiplicity = 1
  Basis Set: AUG-CC-PVTZ
    Blend: AUG-CC-PVTZ
  Basis Set: (AUG-CC-PVTZ AUX)
    Blend: AUG-CC-PVTZ-JKFIT

    Orbital Energies [Eh]
    ---------------------

    Doubly Occupied:

       1A    -20.503915     2A    -15.625278     3A    -15.591799
       4A    -15.543915     5A    -11.372474     6A    -11.349630
       7A    -11.327054     8A    -11.270450     9A    -11.246530
      10A     -1.382766    11A     -1.296025    12A     -1.267482
      13A     -1.170879    14A     -1.072340    15A     -0.965095
      16A     -0.898779    17A     -0.853738    18A     -0.758476
      19A     -0.723102    20A     -0.685432    21A     -0.674202
      22A     -0.655509    23A     -0.620732    24A     -0.601556
      25A     -0.592721    26A     -0.578739    27A     -0.558871
      28A     -0.521588    29A     -0.476158    30A     -0.440932
      31A     -0.420115    32A     -0.387758    33A     -0.339227

  @DF-RHF Final Energy:  -431.79861213317315

   => Energetics <=

    Nuclear Repulsion Energy =            440.8450302713957285
    One-Electron Energy =               -1461.7407528706958146
    Two-Electron Energy =                 589.0971104661269919
    Total Energy =                       -431.7986121331731511
  Basis Set: (AUG-CC-PVTZ AUX)
    Blend: AUG-CC-PVTZ-RI
    Molecular point group: c1

    Geometry (in Angstrom), charge = 0, multiplicity = 1:

       Center              X                  Y                   Z               Mass
    ------------   -----------------  -----------------  -----------------  -----------------
         O           -1.432776851236     1.806168397819     0.004463867784    15.994914619570
         N           -1.126086851236    -0.473244602181     0.019436867784    14.003074004430
         N            0.734482148764     1.024335397819     0.022490867784    14.003074004430
         N            2.883501148764     0.214620397819    -0.063055132216    14.003074004430
         C           -0.281807851236    -1.542994602181     0.012149867784    12.000000000000
         C            1.064118948764    -1.377021302181    -0.091035232216    12.000000000000
         C           -0.642332851236     0.863997397819     0.028451867784    12.000000000000
         C           -2.570180851236    -0.697655602181     0.013445867784    12.000000000000
         C            1.529209148764    -0.022223602181     0.012723867784    12.000000000000
         H           -0.760678851236    -2.518948602181     0.002972867784     1.007825032230
         H            1.746913148764    -2.221995602181    -0.018462132216     1.007825032230
         H           -2.871942851236    -1.257474602181     0.902137867784     1.007825032230
         H           -2.866836851236    -1.244218602181    -0.885134132216     1.007825032230
         H           -3.034757851236     0.285171397819     0.019878867784     1.007825032230
         H            3.494272148764    -0.473251602181     0.359702867784     1.007825032230
         H            3.136932148764     1.178593397819     0.130514867784     1.007825032230

  Basis Set: AUG-CC-PVTZ
    Blend: AUG-CC-PVTZ
  Basis Set: (AUG-CC-PVTZ AUX)
    Blend: AUG-CC-PVTZ-JKFIT
	 Reference Energy          =    -431.7986121331731511 [Eh]
	 Singles Energy            =      -0.0000000000000000 [Eh]
	 Same-Spin Energy          =      -0.4504569402517007 [Eh]
	 Opposite-Spin Energy      =      -1.3724108738380312 [Eh]
	 Correlation Energy        =      -1.8228678140897319 [Eh]
	 Total Energy              =    -433.6214799472628556 [Eh]

	 ================> DF-SCS-MP2 Energies <==================
	-----------------------------------------------------------
	 SCS Same-Spin Scale       =       0.3333333333333333 [-]
	 SCS Opposite-Spin Scale   =       1.2000000000000000 [-]
	 SCS Same-Spin Energy      =      -0.1501523134172336 [Eh]
	 SCS Opposite-Spin Energy  =      -1.6468930486056375 [Eh]
	 SCS Correlation Energy    =      -1.7970453620228710 [Eh]
	 SCS Total Energy          =    -433.5956574951960079 [Eh]
	-----------------------------------------------------------

  Dipole Moment: [D]
     X:     1.7026      Y:    -5.6075      Z:     0.9149     Total:     5.9313

*** Psi4 exiting successfully. Buy a developer a beer!
