                               Psi4 1.3.2 release

  ==> Input File <==

--------------------------------------------------------------------------
#psi4
#
memory 32 gb

molecule  {
0 1
  O       -1.4243350     1.8531120    -0.0084660
  N       -1.1176450    -0.4263010     0.0065070
  N        0.7422989     1.0718517     0.1095574
  N        2.8919430     0.2615640    -0.0759850
  C       -0.2733660    -1.4960510    -0.0007800
  C        1.0765330    -1.3300920    -0.0040440
  C       -0.6338910     0.9109410     0.0155220
  C       -2.5617390    -0.6507120     0.0005160
  C        1.5376510     0.0247200    -0.0002060
  H       -0.7522370    -2.4720050    -0.0099570
  H        1.7553550    -2.1750520    -0.0313920
  H       -2.8635010    -1.2105310     0.8892080
  H       -2.8583950    -1.1972750    -0.8980640
  H       -3.0263160     0.3321150     0.0069490
  H        3.5027140    -0.4263080     0.3467730
  H        3.1453740     1.2255370     0.1175850
units angstrom
no_reorient  #important for SAPT in psi4, default
symmetry c1  #important for SAPT in psi4, default
}

set PROPERTIES_ORIGIN ["COM"]
properties('MP2/aug-cc-pvtz', properties = ['dipole'])
--------------------------------------------------------------------------

    Molecular point group: c1
  Charge       = 0
  Multiplicity = 1
  Basis Set: AUG-CC-PVTZ
    Blend: AUG-CC-PVTZ
  Basis Set: (AUG-CC-PVTZ AUX)
    Blend: AUG-CC-PVTZ-JKFIT

    Orbital Energies [Eh]
    ---------------------

    Doubly Occupied:

       1A    -20.503925     2A    -15.625438     3A    -15.591815
       4A    -15.544451     5A    -11.372326     6A    -11.350079
       7A    -11.327270     8A    -11.270533     9A    -11.246032
      10A     -1.382451    11A     -1.295606    12A     -1.267122
      13A     -1.169735    14A     -1.072721    15A     -0.965102
      16A     -0.899432    17A     -0.852459    18A     -0.758323
      19A     -0.723842    20A     -0.686972    21A     -0.674378
      22A     -0.655093    23A     -0.622065    24A     -0.601671
      25A     -0.593120    26A     -0.578276    27A     -0.559155
      28A     -0.519995    29A     -0.476617    30A     -0.441411
      31A     -0.419166    32A     -0.388548    33A     -0.338906

  @DF-RHF Final Energy:  -431.79961940392980

   => Energetics <=

    Nuclear Repulsion Energy =            440.7450071785817727
    One-Electron Energy =               -1461.5411807820089507
    Two-Electron Energy =                 588.9965541994973819
    Total Energy =                       -431.7996194039297961
  Basis Set: (AUG-CC-PVTZ AUX)
    Blend: AUG-CC-PVTZ-RI
    Molecular point group: c1

    Geometry (in Angstrom), charge = 0, multiplicity = 1:

       Center              X                  Y                   Z               Mass
    ------------   -----------------  -----------------  -----------------  -----------------
         O           -1.433088009216     1.806105643710    -0.016320818015    15.994914619570
         N           -1.126398009216    -0.473307356290    -0.001347818015    14.003074004430
         N            0.733545890784     1.024845343710     0.101702581985    14.003074004430
         N            2.883189990784     0.214557643710    -0.083839818015    14.003074004430
         C           -0.282119009216    -1.543057356290    -0.008634818015    12.000000000000
         C            1.067779990784    -1.377098356290    -0.011898818015    12.000000000000
         C           -0.642644009216     0.863934643710     0.007667181985    12.000000000000
         C           -2.570492009216    -0.697718356290    -0.007338818015    12.000000000000
         C            1.528897990784    -0.022286356290    -0.008060818015    12.000000000000
         H           -0.760990009216    -2.519011356290    -0.017811818015     1.007825032230
         H            1.746601990784    -2.222058356290    -0.039246818015     1.007825032230
         H           -2.872254009216    -1.257537356290     0.881353181985     1.007825032230
         H           -2.867148009216    -1.244281356290    -0.905918818015     1.007825032230
         H           -3.035069009216     0.285108643710    -0.000905818015     1.007825032230
         H            3.493960990784    -0.473314356290     0.338918181985     1.007825032230
         H            3.136620990784     1.178530643710     0.109730181985     1.007825032230

  Basis Set: AUG-CC-PVTZ
    Blend: AUG-CC-PVTZ
  Basis Set: (AUG-CC-PVTZ AUX)
    Blend: AUG-CC-PVTZ-JKFIT
	 Reference Energy          =    -431.7996194039297961 [Eh]
	 Singles Energy            =      -0.0000000000000000 [Eh]
	 Same-Spin Energy          =      -0.4504780546359620 [Eh]
	 Opposite-Spin Energy      =      -1.3723916517716701 [Eh]
	 Correlation Energy        =      -1.8228697064076320 [Eh]
	 Total Energy              =    -433.6224891103374262 [Eh]

	 ================> DF-SCS-MP2 Energies <==================
	-----------------------------------------------------------
	 SCS Same-Spin Scale       =       0.3333333333333333 [-]
	 SCS Opposite-Spin Scale   =       1.2000000000000000 [-]
	 SCS Same-Spin Energy      =      -0.1501593515453206 [Eh]
	 SCS Opposite-Spin Energy  =      -1.6468699821260040 [Eh]
	 SCS Correlation Energy    =      -1.7970293336713246 [Eh]
	 SCS Total Energy          =    -433.5966487376011287 [Eh]
	-----------------------------------------------------------

  Dipole Moment: [D]
     X:     1.6973      Y:    -5.6293      Z:     0.6949     Total:     5.9205

*** Psi4 exiting successfully. Buy a developer a beer!
