                               Psi4 1.3.2 release

  ==> Input File <==

--------------------------------------------------------------------------
#psi4
#
memory 32 gb

molecule  {
0 1
  O       -1.4243350     1.8531120    -0.0084660
  N       -1.1176450    -0.4263010     0.0065070
  N        0.7429240     1.0712790     0.0095610
  N        2.8919430     0.2615640    -0.0759850
  C       -0.2733660    -1.4960510    -0.0007800
  C        1.0745469    -1.3300849    -0.0540045
  C       -0.6338910     0.9109410     0.0155220
  C       -2.5617390    -0.6507120     0.0005160
  C        1.5376510     0.0247200    -0.0002060
  H       -0.7522370    -2.4720050    -0.0099570
  H        1.7553550    -2.1750520    -0.0313920
  H       -2.8635010    -1.2105310     0.8892080
  H       -2.8583950    -1.1972750    -0.8980640
  H       -3.0263160     0.3321150     0.0069490
  H        3.5027140    -0.4263080     0.3467730
  H        3.1453740     1.2255370     0.1175850
units angstrom
no_reorient  #important for SAPT in psi4, default
symmetry c1  #important for SAPT in psi4, default
}

set PROPERTIES_ORIGIN ["COM"]
properties('MP2/aug-cc-pvtz', properties = ['dipole'])
--------------------------------------------------------------------------

    Molecular point group: c1
  Charge       = 0
  Multiplicity = 1
  Basis Set: AUG-CC-PVTZ
    Blend: AUG-CC-PVTZ
  Basis Set: (AUG-CC-PVTZ AUX)
    Blend: AUG-CC-PVTZ-JKFIT

    Orbital Energies [Eh]
    ---------------------

    Doubly Occupied:

       1A    -20.503628     2A    -15.625206     3A    -15.591676
       4A    -15.543749     5A    -11.372276     6A    -11.349368
       7A    -11.326861     8A    -11.270390     9A    -11.246081
      10A     -1.382592    11A     -1.295996    12A     -1.267426
      13A     -1.170777    14A     -1.072713    15A     -0.965160
      16A     -0.899115    17A     -0.853766    18A     -0.758872
      19A     -0.723567    20A     -0.685653    21A     -0.674222
      22A     -0.655442    23A     -0.621513    24A     -0.601772
      25A     -0.592628    26A     -0.579348    27A     -0.558978
      28A     -0.521746    29A     -0.476277    30A     -0.440887
      31A     -0.419932    32A     -0.387787    33A     -0.339051

  @DF-RHF Final Energy:  -431.80041777759607

   => Energetics <=

    Nuclear Repulsion Energy =            440.9109919066282828
    One-Electron Energy =               -1461.8739051811758145
    Two-Electron Energy =                 589.1624954969514647
    Total Energy =                       -431.8004177775960670
  Basis Set: (AUG-CC-PVTZ AUX)
    Blend: AUG-CC-PVTZ-RI
    Molecular point group: c1

    Geometry (in Angstrom), charge = 0, multiplicity = 1:

       Center              X                  Y                   Z               Mass
    ------------   -----------------  -----------------  -----------------  -----------------
         O           -1.432967427018     1.806169088693    -0.000330090448    15.994914619570
         N           -1.126277427018    -0.473243911307     0.014642909552    14.003074004430
         N            0.734291572982     1.024336088693     0.017696909552    14.003074004430
         N            2.883310572982     0.214621088693    -0.067849090448    14.003074004430
         C           -0.281998427018    -1.542993911307     0.007355909552    12.000000000000
         C            1.065914472982    -1.377027811307    -0.045868590448    12.000000000000
         C           -0.642523427018     0.863998088693     0.023657909552    12.000000000000
         C           -2.570371427018    -0.697654911307     0.008651909552    12.000000000000
         C            1.529018572982    -0.022222911307     0.007929909552    12.000000000000
         H           -0.760869427018    -2.518947911307    -0.001821090448     1.007825032230
         H            1.746722572982    -2.221994911307    -0.023256090448     1.007825032230
         H           -2.872133427018    -1.257473911307     0.897343909552     1.007825032230
         H           -2.867027427018    -1.244217911307    -0.889928090448     1.007825032230
         H           -3.034948427018     0.285172088693     0.015084909552     1.007825032230
         H            3.494081572982    -0.473250911307     0.354908909552     1.007825032230
         H            3.136741572982     1.178594088693     0.125720909552     1.007825032230

  Basis Set: AUG-CC-PVTZ
    Blend: AUG-CC-PVTZ
  Basis Set: (AUG-CC-PVTZ AUX)
    Blend: AUG-CC-PVTZ-JKFIT
	 Reference Energy          =    -431.8004177775960670 [Eh]
	 Singles Energy            =      -0.0000000000000000 [Eh]
	 Same-Spin Energy          =      -0.4504007834819482 [Eh]
	 Opposite-Spin Energy      =      -1.3722306156068238 [Eh]
	 Correlation Energy        =      -1.8226313990887719 [Eh]
	 Total Energy              =    -433.6230491766848445 [Eh]

	 ================> DF-SCS-MP2 Energies <==================
	-----------------------------------------------------------
	 SCS Same-Spin Scale       =       0.3333333333333333 [-]
	 SCS Opposite-Spin Scale   =       1.2000000000000000 [-]
	 SCS Same-Spin Energy      =      -0.1501335944939827 [Eh]
	 SCS Opposite-Spin Energy  =      -1.6466767387281884 [Eh]
	 SCS Correlation Energy    =      -1.7968103332221712 [Eh]
	 SCS Total Energy          =    -433.5972281108182642 [Eh]
	-----------------------------------------------------------

  Dipole Moment: [D]
     X:     1.7086      Y:    -5.6266      Z:     0.8737     Total:     5.9448

*** Psi4 exiting successfully. Buy a developer a beer!
