                               Psi4 1.3.2 release

  ==> Input File <==

--------------------------------------------------------------------------
#psi4
#
memory 32 gb

molecule  {
0 1
  O       -1.4243350     1.8531120    -0.0084660
  N       -1.1176450    -0.4263010     0.0065070
  N        0.7429240     1.0712790     0.0095610
  N        2.8919430     0.2615640    -0.0759850
  C       -0.2733660    -1.4960510    -0.0007800
  C        1.0765330    -1.3300920    -0.0040440
  C       -0.6338910     0.9109410     0.0155220
  C       -2.5617390    -0.6507120     0.0005160
  C        1.5376510     0.0247200    -0.0002060
  H       -0.7522370    -2.4720050    -0.0099570
  H        1.7521458    -2.1711171    -0.3313490
  H       -2.8635010    -1.2105310     0.8892080
  H       -2.8583950    -1.1972750    -0.8980640
  H       -3.0263160     0.3321150     0.0069490
  H        3.5027140    -0.4263080     0.3467730
  H        3.1453740     1.2255370     0.1175850
units angstrom
no_reorient  #important for SAPT in psi4, default
symmetry c1  #important for SAPT in psi4, default
}

set PROPERTIES_ORIGIN ["COM"]
properties('MP2/aug-cc-pvtz', properties = ['dipole'])
--------------------------------------------------------------------------

    Molecular point group: c1
  Charge       = 0
  Multiplicity = 1
  Basis Set: AUG-CC-PVTZ
    Blend: AUG-CC-PVTZ
  Basis Set: (AUG-CC-PVTZ AUX)
    Blend: AUG-CC-PVTZ-JKFIT

    Orbital Energies [Eh]
    ---------------------

    Doubly Occupied:

       1A    -20.504561     2A    -15.626658     3A    -15.591174
       4A    -15.543760     5A    -11.372996     6A    -11.349220
       7A    -11.328641     8A    -11.271119     9A    -11.248635
      10A     -1.383415    11A     -1.296496    12A     -1.267800
      13A     -1.170743    14A     -1.071861    15A     -0.965507
      16A     -0.899351    17A     -0.852923    18A     -0.759145
      19A     -0.722258    20A     -0.682920    21A     -0.672464
      22A     -0.656095    23A     -0.619763    24A     -0.601849
      25A     -0.588364    26A     -0.579983    27A     -0.558899
      28A     -0.522312    29A     -0.476273    30A     -0.441144
      31A     -0.419751    32A     -0.387980    33A     -0.339313

  @DF-RHF Final Energy:  -431.79552414402150

   => Energetics <=

    Nuclear Repulsion Energy =            440.7541286134479037
    One-Electron Energy =               -1461.5525647411579939
    Two-Electron Energy =                 589.0029119836887048
    Total Energy =                       -431.7955241440214422
  Basis Set: (AUG-CC-PVTZ AUX)
    Blend: AUG-CC-PVTZ-RI
    Molecular point group: c1

    Geometry (in Angstrom), charge = 0, multiplicity = 1:

       Center              X                  Y                   Z               Mass
    ------------   -----------------  -----------------  -----------------  -----------------
         O           -1.433132140493     1.806138059391    -0.002706744957    15.994914619570
         N           -1.126442140493    -0.473274940609     0.012266255043    14.003074004430
         N            0.734126859507     1.024305059391     0.015320255043    14.003074004430
         N            2.883145859507     0.214590059391    -0.070225744957    14.003074004430
         C           -0.282163140493    -1.543024940609     0.004979255043    12.000000000000
         C            1.067735859507    -1.377065940609     0.001715255043    12.000000000000
         C           -0.642688140493     0.863967059391     0.021281255043    12.000000000000
         C           -2.570536140493    -0.697685940609     0.006275255043    12.000000000000
         C            1.528853859507    -0.022253940609     0.005553255043    12.000000000000
         H           -0.761034140493    -2.518978940609    -0.004197744957     1.007825032230
         H            1.743348659507    -2.218091040609    -0.325589744957     1.007825032230
         H           -2.872298140493    -1.257504940609     0.894967255043     1.007825032230
         H           -2.867192140493    -1.244248940609    -0.892304744957     1.007825032230
         H           -3.035113140493     0.285141059391     0.012708255043     1.007825032230
         H            3.493916859507    -0.473281940609     0.352532255043     1.007825032230
         H            3.136576859507     1.178563059391     0.123344255043     1.007825032230

  Basis Set: AUG-CC-PVTZ
    Blend: AUG-CC-PVTZ
  Basis Set: (AUG-CC-PVTZ AUX)
    Blend: AUG-CC-PVTZ-JKFIT
	 Reference Energy          =    -431.7955241440214991 [Eh]
	 Singles Energy            =      -0.0000000000000000 [Eh]
	 Same-Spin Energy          =      -0.4505870593759527 [Eh]
	 Opposite-Spin Energy      =      -1.3726031024050585 [Eh]
	 Correlation Energy        =      -1.8231901617810111 [Eh]
	 Total Energy              =    -433.6187143058024844 [Eh]

	 ================> DF-SCS-MP2 Energies <==================
	-----------------------------------------------------------
	 SCS Same-Spin Scale       =       0.3333333333333333 [-]
	 SCS Opposite-Spin Scale   =       1.2000000000000000 [-]
	 SCS Same-Spin Energy      =      -0.1501956864586509 [Eh]
	 SCS Opposite-Spin Energy  =      -1.6471237228860700 [Eh]
	 SCS Correlation Energy    =      -1.7973194093447209 [Eh]
	 SCS Total Energy          =    -433.5928435533662082 [Eh]
	-----------------------------------------------------------

  Dipole Moment: [D]
     X:     1.6276      Y:    -5.5557      Z:     0.6133     Total:     5.8216

*** Psi4 exiting successfully. Buy a developer a beer!
