                               Psi4 1.3.2 release

  ==> Input File <==

--------------------------------------------------------------------------
#psi4
#
memory 32 gb

molecule  {
0 1
  O       -1.4243350     1.8531120    -0.0084660
  N       -1.1176450    -0.4263010     0.0065070
  N        0.7410486     1.0729972     0.3095502
  N        2.8919430     0.2615640    -0.0759850
  C       -0.2733660    -1.4960510    -0.0007800
  C        1.0765330    -1.3300920    -0.0040440
  C       -0.6338910     0.9109410     0.0155220
  C       -2.5617390    -0.6507120     0.0005160
  C        1.5376510     0.0247200    -0.0002060
  H       -0.7522370    -2.4720050    -0.0099570
  H        1.7553550    -2.1750520    -0.0313920
  H       -2.8635010    -1.2105310     0.8892080
  H       -2.8583950    -1.1972750    -0.8980640
  H       -3.0263160     0.3321150     0.0069490
  H        3.5027140    -0.4263080     0.3467730
  H        3.1453740     1.2255370     0.1175850
units angstrom
no_reorient  #important for SAPT in psi4, default
symmetry c1  #important for SAPT in psi4, default
}

set PROPERTIES_ORIGIN ["COM"]
properties('MP2/aug-cc-pvtz', properties = ['dipole'])
--------------------------------------------------------------------------

    Molecular point group: c1
  Charge       = 0
  Multiplicity = 1
  Basis Set: AUG-CC-PVTZ
    Blend: AUG-CC-PVTZ
  Basis Set: (AUG-CC-PVTZ AUX)
    Blend: AUG-CC-PVTZ-JKFIT

    Orbital Energies [Eh]
    ---------------------

    Doubly Occupied:

       1A    -20.506637     2A    -15.625628     3A    -15.593864
       4A    -15.549019     5A    -11.373471     6A    -11.353851
       7A    -11.327276     8A    -11.270872     9A    -11.246592
      10A     -1.381398    11A     -1.293425    12A     -1.265113
      13A     -1.161115    14A     -1.072254    15A     -0.964031
      16A     -0.899446    17A     -0.844397    18A     -0.753090
      19A     -0.723225    20A     -0.689258    21A     -0.673906
      22A     -0.653710    23A     -0.622947    24A     -0.600903
      25A     -0.592993    26A     -0.572822    27A     -0.559287
      28A     -0.513751    29A     -0.478367    30A     -0.444983
      31A     -0.417411    32A     -0.386106    33A     -0.337932

  @DF-RHF Final Energy:  -431.78510601631297

   => Energetics <=

    Nuclear Repulsion Energy =            439.5862265492514780
    One-Electron Energy =               -1459.2445026459779456
    Two-Electron Energy =                 587.8731700804135016
    Total Energy =                       -431.7851060163129659
  Basis Set: (AUG-CC-PVTZ AUX)
    Blend: AUG-CC-PVTZ-RI
    Molecular point group: c1

    Geometry (in Angstrom), charge = 0, multiplicity = 1:

       Center              X                  Y                   Z               Mass
    ------------   -----------------  -----------------  -----------------  -----------------
         O           -1.432948010849     1.805977379990    -0.038714375876    15.994914619570
         N           -1.126258010849    -0.473435620010    -0.023741375876    14.003074004430
         N            0.732435589151     1.025862579990     0.279301824124    14.003074004430
         N            2.883329989151     0.214429379990    -0.106233375876    14.003074004430
         C           -0.281979010849    -1.543185620010    -0.031028375876    12.000000000000
         C            1.067919989151    -1.377226620010    -0.034292375876    12.000000000000
         C           -0.642504010849     0.863806379990    -0.014726375876    12.000000000000
         C           -2.570352010849    -0.697846620010    -0.029732375876    12.000000000000
         C            1.529037989151    -0.022414620010    -0.030454375876    12.000000000000
         H           -0.760850010849    -2.519139620010    -0.040205375876     1.007825032230
         H            1.746741989151    -2.222186620010    -0.061640375876     1.007825032230
         H           -2.872114010849    -1.257665620010     0.858959624124     1.007825032230
         H           -2.867008010849    -1.244409620010    -0.928312375876     1.007825032230
         H           -3.034929010849     0.284980379990    -0.023299375876     1.007825032230
         H            3.494100989151    -0.473442620010     0.316524624124     1.007825032230
         H            3.136760989151     1.178402379990     0.087336624124     1.007825032230

  Basis Set: AUG-CC-PVTZ
    Blend: AUG-CC-PVTZ
  Basis Set: (AUG-CC-PVTZ AUX)
    Blend: AUG-CC-PVTZ-JKFIT
	 Reference Energy          =    -431.7851060163129659 [Eh]
	 Singles Energy            =      -0.0000000000000000 [Eh]
	 Same-Spin Energy          =      -0.4513895488385090 [Eh]
	 Opposite-Spin Energy      =      -1.3749491648473073 [Eh]
	 Correlation Energy        =      -1.8263387136858165 [Eh]
	 Total Energy              =    -433.6114447299987660 [Eh]

	 ================> DF-SCS-MP2 Energies <==================
	-----------------------------------------------------------
	 SCS Same-Spin Scale       =       0.3333333333333333 [-]
	 SCS Opposite-Spin Scale   =       1.2000000000000000 [-]
	 SCS Same-Spin Energy      =      -0.1504631829461697 [Eh]
	 SCS Opposite-Spin Energy  =      -1.6499389978167687 [Eh]
	 SCS Correlation Energy    =      -1.8004021807629385 [Eh]
	 SCS Total Energy          =    -433.5855081970759102 [Eh]
	-----------------------------------------------------------

  Dipole Moment: [D]
     X:     1.6804      Y:    -5.5858      Z:     0.4181     Total:     5.8480

*** Psi4 exiting successfully. Buy a developer a beer!
