                               Psi4 1.3.2 release

  ==> Input File <==

--------------------------------------------------------------------------
#psi4
#
memory 32 gb

molecule  {
0 1
  O       -1.4243350     1.8531120    -0.0084660
  N       -1.1176450    -0.4263010     0.0065070
  N        0.7416737     1.0724245     0.2095538
  N        2.8919430     0.2615640    -0.0759850
  C       -0.2733660    -1.4960510    -0.0007800
  C        1.0765330    -1.3300920    -0.0040440
  C       -0.6338910     0.9109410     0.0155220
  C       -2.5617390    -0.6507120     0.0005160
  C        1.5376510     0.0247200    -0.0002060
  H       -0.7522370    -2.4720050    -0.0099570
  H        1.7553550    -2.1750520    -0.0313920
  H       -2.8635010    -1.2105310     0.8892080
  H       -2.8583950    -1.1972750    -0.8980640
  H       -3.0263160     0.3321150     0.0069490
  H        3.5027140    -0.4263080     0.3467730
  H        3.1453740     1.2255370     0.1175850
units angstrom
no_reorient  #important for SAPT in psi4, default
symmetry c1  #important for SAPT in psi4, default
}

set PROPERTIES_ORIGIN ["COM"]
properties('MP2/aug-cc-pvtz', properties = ['dipole'])
--------------------------------------------------------------------------

    Molecular point group: c1
  Charge       = 0
  Multiplicity = 1
  Basis Set: AUG-CC-PVTZ
    Blend: AUG-CC-PVTZ
  Basis Set: (AUG-CC-PVTZ AUX)
    Blend: AUG-CC-PVTZ-JKFIT

    Orbital Energies [Eh]
    ---------------------

    Doubly Occupied:

       1A    -20.504959     2A    -15.625520     3A    -15.592625
       4A    -15.546274     5A    -11.372749     6A    -11.351655
       7A    -11.327283     8A    -11.270670     9A    -11.246249
      10A     -1.382019    11A     -1.294681    12A     -1.266338
      13A     -1.166603    14A     -1.072591    15A     -0.964652
      16A     -0.899452    17A     -0.849153    18A     -0.756335
      19A     -0.723656    20A     -0.688205    21A     -0.674325
      22A     -0.654461    23A     -0.622390    24A     -0.601387
      25A     -0.593344    26A     -0.575879    27A     -0.559232
      28A     -0.517268    29A     -0.477335    30A     -0.442804
      31A     -0.418382    32A     -0.387969    33A     -0.338563

  @DF-RHF Final Energy:  -431.79444597519478

   => Energetics <=

    Nuclear Repulsion Energy =            440.2958349096844586
    One-Electron Energy =               -1460.6505501745248239
    Two-Electron Energy =                 588.5602692896455892
    Total Energy =                       -431.7944459751947761
  Basis Set: (AUG-CC-PVTZ AUX)
    Blend: AUG-CC-PVTZ-RI
    Molecular point group: c1

    Geometry (in Angstrom), charge = 0, multiplicity = 1:

       Center              X                  Y                   Z               Mass
    ------------   -----------------  -----------------  -----------------  -----------------
         O           -1.433018004434     1.806041506252    -0.027517596946    15.994914619570
         N           -1.126328004434    -0.473371493748    -0.012544596946    14.003074004430
         N            0.732990695566     1.025354006252     0.190502203054    14.003074004430
         N            2.883259995566     0.214493506252    -0.095036596946    14.003074004430
         C           -0.282049004434    -1.543121493748    -0.019831596946    12.000000000000
         C            1.067849995566    -1.377162493748    -0.023095596946    12.000000000000
         C           -0.642574004434     0.863870506252    -0.003529596946    12.000000000000
         C           -2.570422004434    -0.697782493748    -0.018535596946    12.000000000000
         C            1.528967995566    -0.022350493748    -0.019257596946    12.000000000000
         H           -0.760920004434    -2.519075493748    -0.029008596946     1.007825032230
         H            1.746671995566    -2.222122493748    -0.050443596946     1.007825032230
         H           -2.872184004434    -1.257601493748     0.870156403054     1.007825032230
         H           -2.867078004434    -1.244345493748    -0.917115596946     1.007825032230
         H           -3.034999004434     0.285044506252    -0.012102596946     1.007825032230
         H            3.494030995566    -0.473378493748     0.327721403054     1.007825032230
         H            3.136690995566     1.178466506252     0.098533403054     1.007825032230

  Basis Set: AUG-CC-PVTZ
    Blend: AUG-CC-PVTZ
  Basis Set: (AUG-CC-PVTZ AUX)
    Blend: AUG-CC-PVTZ-JKFIT
	 Reference Energy          =    -431.7944459751947761 [Eh]
	 Singles Energy            =      -0.0000000000000000 [Eh]
	 Same-Spin Energy          =      -0.4508080972654803 [Eh]
	 Opposite-Spin Energy      =      -1.3732872751803411 [Eh]
	 Correlation Energy        =      -1.8240953724458213 [Eh]
	 Total Energy              =    -433.6185413476405870 [Eh]

	 ================> DF-SCS-MP2 Energies <==================
	-----------------------------------------------------------
	 SCS Same-Spin Scale       =       0.3333333333333333 [-]
	 SCS Opposite-Spin Scale   =       1.2000000000000000 [-]
	 SCS Same-Spin Energy      =      -0.1502693657551601 [Eh]
	 SCS Opposite-Spin Energy  =      -1.6479447302164092 [Eh]
	 SCS Correlation Energy    =      -1.7982140959715693 [Eh]
	 SCS Total Energy          =    -433.5926600711663355 [Eh]
	-----------------------------------------------------------

  Dipole Moment: [D]
     X:     1.6902      Y:    -5.6140      Z:     0.5562     Total:     5.8892

*** Psi4 exiting successfully. Buy a developer a beer!
