                               Psi4 1.3.2 release

  ==> Input File <==

--------------------------------------------------------------------------
#psi4
#
memory 32 gb

molecule  {
0 1
  O       -1.4243350     1.8531120    -0.0084660
  N       -1.1176450    -0.4263010     0.0065070
  N        0.7429240     1.0712790     0.0095610
  N        2.8919430     0.2615640    -0.0759850
  C       -0.2733660    -1.4960510    -0.0007800
  C        1.0765330    -1.3300920    -0.0040440
  C       -0.6338910     0.9109410     0.0155220
  C       -2.5617390    -0.6507120     0.0005160
  C        1.5376510     0.0247200    -0.0002060
  H       -0.7522370    -2.4720050    -0.0099570
  H        1.7553550    -2.1750520    -0.0313920
  H       -2.8635010    -1.2105310     0.8892080
  H       -2.8583950    -1.1972750    -0.8980640
  H       -3.0263160     0.3321150     0.0069490
  H        3.5027140    -0.4263080     0.3467730
  H        3.1304003     1.2359399     0.2159088
units angstrom
no_reorient  #important for SAPT in psi4, default
symmetry c1  #important for SAPT in psi4, default
}

set PROPERTIES_ORIGIN ["COM"]
properties('MP2/aug-cc-pvtz', properties = ['dipole'])
--------------------------------------------------------------------------

    Molecular point group: c1
  Charge       = 0
  Multiplicity = 1
  Basis Set: AUG-CC-PVTZ
    Blend: AUG-CC-PVTZ
  Basis Set: (AUG-CC-PVTZ AUX)
    Blend: AUG-CC-PVTZ-JKFIT

    Orbital Energies [Eh]
    ---------------------

    Doubly Occupied:

       1A    -20.503956     2A    -15.625874     3A    -15.594061
       4A    -15.544201     5A    -11.372653     6A    -11.349200
       7A    -11.327558     8A    -11.270763     9A    -11.246185
      10A     -1.382969    11A     -1.296073    12A     -1.267033
      13A     -1.169685    14A     -1.072777    15A     -0.965123
      16A     -0.899132    17A     -0.853361    18A     -0.756319
      19A     -0.723171    20A     -0.685958    21A     -0.668327
      22A     -0.655902    23A     -0.621167    24A     -0.599833
      25A     -0.591959    26A     -0.580531    27A     -0.559335
      28A     -0.522929    29A     -0.476706    30A     -0.441248
      31A     -0.420185    32A     -0.389254    33A     -0.339285

  @DF-RHF Final Energy:  -431.79898187554443

   => Energetics <=

    Nuclear Repulsion Energy =            440.8237179313298384
    One-Electron Energy =               -1461.6999746355456864
    Two-Electron Energy =                 589.0772748286714204
    Total Energy =                       -431.7989818755444276
  Basis Set: (AUG-CC-PVTZ AUX)
    Blend: AUG-CC-PVTZ-RI
    Molecular point group: c1

    Geometry (in Angstrom), charge = 0, multiplicity = 1:

       Center              X                  Y                   Z               Mass
    ------------   -----------------  -----------------  -----------------  -----------------
         O           -1.433037332715     1.806085935059    -0.005916411139    15.994914619570
         N           -1.126347332715    -0.473327064941     0.009056588861    14.003074004430
         N            0.734221667285     1.024252935059     0.012110588861    14.003074004430
         N            2.883240667285     0.214537935059    -0.073435411139    14.003074004430
         C           -0.282068332715    -1.543077064941     0.001769588861    12.000000000000
         C            1.067830667285    -1.377118064941    -0.001494411139    12.000000000000
         C           -0.642593332715     0.863914935059     0.018071588861    12.000000000000
         C           -2.570441332715    -0.697738064941     0.003065588861    12.000000000000
         C            1.528948667285    -0.022306064941     0.002343588861    12.000000000000
         H           -0.760939332715    -2.519031064941    -0.007407411139     1.007825032230
         H            1.746652667285    -2.222078064941    -0.028842411139     1.007825032230
         H           -2.872203332715    -1.257557064941     0.891757588861     1.007825032230
         H           -2.867097332715    -1.244301064941    -0.895514411139     1.007825032230
         H           -3.035018332715     0.285088935059     0.009498588861     1.007825032230
         H            3.494011667285    -0.473334064941     0.349322588861     1.007825032230
         H            3.121697967285     1.188913835059     0.218458388861     1.007825032230

  Basis Set: AUG-CC-PVTZ
    Blend: AUG-CC-PVTZ
  Basis Set: (AUG-CC-PVTZ AUX)
    Blend: AUG-CC-PVTZ-JKFIT
	 Reference Energy          =    -431.7989818755444276 [Eh]
	 Singles Energy            =      -0.0000000000000000 [Eh]
	 Same-Spin Energy          =      -0.4505976208789705 [Eh]
	 Opposite-Spin Energy      =      -1.3727635561130236 [Eh]
	 Correlation Energy        =      -1.8233611769919942 [Eh]
	 Total Energy              =    -433.6223430525363938 [Eh]

	 ================> DF-SCS-MP2 Energies <==================
	-----------------------------------------------------------
	 SCS Same-Spin Scale       =       0.3333333333333333 [-]
	 SCS Opposite-Spin Scale   =       1.2000000000000000 [-]
	 SCS Same-Spin Energy      =      -0.1501992069596568 [Eh]
	 SCS Opposite-Spin Energy  =      -1.6473162673356283 [Eh]
	 SCS Correlation Energy    =      -1.7975154742952850 [Eh]
	 SCS Total Energy          =    -433.5964973498396944 [Eh]
	-----------------------------------------------------------

  Dipole Moment: [D]
     X:     1.6244      Y:    -5.6540      Z:     0.9490     Total:     5.9588

*** Psi4 exiting successfully. Buy a developer a beer!
