                               Psi4 1.3.2 release

  ==> Input File <==

--------------------------------------------------------------------------
#psi4
#
memory 32 gb

molecule  {
0 1
  O       -1.4243350     1.8531120    -0.0084660
  N       -1.1176450    -0.4263010     0.0065070
  N        0.7429240     1.0712790     0.0095610
  N        2.8919430     0.2615640    -0.0759850
  C       -0.2733660    -1.4960510    -0.0007800
  C        1.0765330    -1.3300920    -0.0040440
  C       -0.6338910     0.9109410     0.0155220
  C       -2.5617390    -0.6507120     0.0005160
  C        1.5376510     0.0247200    -0.0002060
  H       -0.7522370    -2.4720050    -0.0099570
  H        1.7542853    -2.1737404    -0.1313777
  H       -2.8635010    -1.2105310     0.8892080
  H       -2.8583950    -1.1972750    -0.8980640
  H       -3.0263160     0.3321150     0.0069490
  H        3.5027140    -0.4263080     0.3467730
  H        3.1453740     1.2255370     0.1175850
units angstrom
no_reorient  #important for SAPT in psi4, default
symmetry c1  #important for SAPT in psi4, default
}

set PROPERTIES_ORIGIN ["COM"]
properties('MP2/aug-cc-pvtz', properties = ['dipole'])
--------------------------------------------------------------------------

    Molecular point group: c1
  Charge       = 0
  Multiplicity = 1
  Basis Set: AUG-CC-PVTZ
    Blend: AUG-CC-PVTZ
  Basis Set: (AUG-CC-PVTZ AUX)
    Blend: AUG-CC-PVTZ-JKFIT

    Orbital Energies [Eh]
    ---------------------

    Doubly Occupied:

       1A    -20.503714     2A    -15.625591     3A    -15.591440
       4A    -15.543577     5A    -11.372349     6A    -11.349232
       7A    -11.327442     8A    -11.270569     9A    -11.246217
      10A     -1.382701    11A     -1.296065    12A     -1.267486
      13A     -1.170672    14A     -1.072577    15A     -0.965316
      16A     -0.899374    17A     -0.853557    18A     -0.758993
      19A     -0.723604    20A     -0.685044    21A     -0.674104
      22A     -0.655587    23A     -0.621735    24A     -0.601738
      25A     -0.591395    26A     -0.580193    27A     -0.559149
      28A     -0.522055    29A     -0.476231    30A     -0.440910
      31A     -0.419690    32A     -0.387866    33A     -0.339059

  @DF-RHF Final Energy:  -431.80046807676490

   => Energetics <=

    Nuclear Repulsion Energy =            440.8980573471105231
    One-Electron Energy =               -1461.8465870132806685
    Two-Electron Energy =                 589.1480615894051880
    Total Energy =                       -431.8004680767649006
  Basis Set: (AUG-CC-PVTZ AUX)
    Blend: AUG-CC-PVTZ-RI
    Molecular point group: c1

    Geometry (in Angstrom), charge = 0, multiplicity = 1:

       Center              X                  Y                   Z               Mass
    ------------   -----------------  -----------------  -----------------  -----------------
         O           -1.433149382300     1.806159200047    -0.004318274107    15.994914619570
         N           -1.126459382300    -0.473253799953     0.010654725893    14.003074004430
         N            0.734109617700     1.024326200047     0.013708725893    14.003074004430
         N            2.883128617700     0.214611200047    -0.071837274107    14.003074004430
         C           -0.282180382300    -1.543003799953     0.003367725893    12.000000000000
         C            1.067718617700    -1.377044799953     0.000103725893    12.000000000000
         C           -0.642705382300     0.863988200047     0.019669725893    12.000000000000
         C           -2.570553382300    -0.697664799953     0.004663725893    12.000000000000
         C            1.528836617700    -0.022232799953     0.003941725893    12.000000000000
         H           -0.761051382300    -2.518957799953    -0.005809274107     1.007825032230
         H            1.745470917700    -2.220693199953    -0.127229974107     1.007825032230
         H           -2.872315382300    -1.257483799953     0.893355725893     1.007825032230
         H           -2.867209382300    -1.244227799953    -0.893916274107     1.007825032230
         H           -3.035130382300     0.285162200047     0.011096725893     1.007825032230
         H            3.493899617700    -0.473260799953     0.350920725893     1.007825032230
         H            3.136559617700     1.178584200047     0.121732725893     1.007825032230

  Basis Set: AUG-CC-PVTZ
    Blend: AUG-CC-PVTZ
  Basis Set: (AUG-CC-PVTZ AUX)
    Blend: AUG-CC-PVTZ-JKFIT
	 Reference Energy          =    -431.8004680767649006 [Eh]
	 Singles Energy            =      -0.0000000000000000 [Eh]
	 Same-Spin Energy          =      -0.4504120575901250 [Eh]
	 Opposite-Spin Energy      =      -1.3721987357267160 [Eh]
	 Correlation Energy        =      -1.8226107933168412 [Eh]
	 Total Energy              =    -433.6230788700817698 [Eh]

	 ================> DF-SCS-MP2 Energies <==================
	-----------------------------------------------------------
	 SCS Same-Spin Scale       =       0.3333333333333333 [-]
	 SCS Opposite-Spin Scale   =       1.2000000000000000 [-]
	 SCS Same-Spin Energy      =      -0.1501373525300417 [Eh]
	 SCS Opposite-Spin Energy  =      -1.6466384828720593 [Eh]
	 SCS Correlation Energy    =      -1.7967758354021011 [Eh]
	 SCS Total Energy          =    -433.5972439121670163 [Eh]
	-----------------------------------------------------------

  Dipole Moment: [D]
     X:     1.6910      Y:    -5.6220      Z:     0.7579     Total:     5.9195

*** Psi4 exiting successfully. Buy a developer a beer!
