                               Psi4 1.3.2 release

  ==> Input File <==

--------------------------------------------------------------------------
#psi4
#
memory 32 gb

molecule  {
0 1
  O       -1.4243350     1.8531120    -0.0084660
  N       -1.1176450    -0.4263010     0.0065070
  N        0.7426114     1.0715654     0.0595592
  N        2.8919430     0.2615640    -0.0759850
  C       -0.2733660    -1.4960510    -0.0007800
  C        1.0765330    -1.3300920    -0.0040440
  C       -0.6338910     0.9109410     0.0155220
  C       -2.5617390    -0.6507120     0.0005160
  C        1.5376510     0.0247200    -0.0002060
  H       -0.7522370    -2.4720050    -0.0099570
  H        1.7553550    -2.1750520    -0.0313920
  H       -2.8635010    -1.2105310     0.8892080
  H       -2.8583950    -1.1972750    -0.8980640
  H       -3.0263160     0.3321150     0.0069490
  H        3.5027140    -0.4263080     0.3467730
  H        3.1453740     1.2255370     0.1175850
units angstrom
no_reorient  #important for SAPT in psi4, default
symmetry c1  #important for SAPT in psi4, default
}

set PROPERTIES_ORIGIN ["COM"]
properties('MP2/aug-cc-pvtz', properties = ['dipole'])
--------------------------------------------------------------------------

    Molecular point group: c1
  Charge       = 0
  Multiplicity = 1
  Basis Set: AUG-CC-PVTZ
    Blend: AUG-CC-PVTZ
  Basis Set: (AUG-CC-PVTZ AUX)
    Blend: AUG-CC-PVTZ-JKFIT

    Orbital Energies [Eh]
    ---------------------

    Doubly Occupied:

       1A    -20.503662     2A    -15.625409     3A    -15.591598
       4A    -15.543892     5A    -11.372241     6A    -11.349568
       7A    -11.327249     8A    -11.270491     9A    -11.245982
      10A     -1.382558    11A     -1.295879    12A     -1.267340
      13A     -1.170474    14A     -1.072727    15A     -0.965229
      16A     -0.899410    17A     -0.853361    18A     -0.758819
      19A     -0.723844    20A     -0.686342    21A     -0.674294
      22A     -0.655332    23A     -0.622001    24A     -0.601731
      25A     -0.592810    26A     -0.579157    27A     -0.559124
      28A     -0.521045    29A     -0.476397    30A     -0.441035
      31A     -0.419491    32A     -0.388339    33A     -0.338981

  @DF-RHF Final Energy:  -431.80077510555213

   => Energetics <=

    Nuclear Repulsion Energy =            440.8666740307127725
    One-Electron Energy =               -1461.7832732454392044
    Two-Electron Energy =                 589.1158241091742411
    Total Energy =                       -431.8007751055521339
  Basis Set: (AUG-CC-PVTZ AUX)
    Blend: AUG-CC-PVTZ-RI
    Molecular point group: c1

    Geometry (in Angstrom), charge = 0, multiplicity = 1:

       Center              X                  Y                   Z               Mass
    ------------   -----------------  -----------------  -----------------  -----------------
         O           -1.433123000410     1.806137701242    -0.010722428550    15.994914619570
         N           -1.126433000410    -0.473275298758     0.004250571450    14.003074004430
         N            0.733823399590     1.024591101242     0.057302771450    14.003074004430
         N            2.883154999590     0.214589701242    -0.078241428550    14.003074004430
         C           -0.282154000410    -1.543025298758    -0.003036428550    12.000000000000
         C            1.067744999590    -1.377066298758    -0.006300428550    12.000000000000
         C           -0.642679000410     0.863966701242     0.013265571450    12.000000000000
         C           -2.570527000410    -0.697686298758    -0.001740428550    12.000000000000
         C            1.528862999590    -0.022254298758    -0.002462428550    12.000000000000
         H           -0.761025000410    -2.518979298758    -0.012213428550     1.007825032230
         H            1.746566999590    -2.222026298758    -0.033648428550     1.007825032230
         H           -2.872289000410    -1.257505298758     0.886951571450     1.007825032230
         H           -2.867183000410    -1.244249298758    -0.900320428550     1.007825032230
         H           -3.035104000410     0.285140701242     0.004692571450     1.007825032230
         H            3.493925999590    -0.473282298758     0.344516571450     1.007825032230
         H            3.136585999590     1.178562701242     0.115328571450     1.007825032230

  Basis Set: AUG-CC-PVTZ
    Blend: AUG-CC-PVTZ
  Basis Set: (AUG-CC-PVTZ AUX)
    Blend: AUG-CC-PVTZ-JKFIT
	 Reference Energy          =    -431.8007751055521339 [Eh]
	 Singles Energy            =      -0.0000000000000000 [Eh]
	 Same-Spin Energy          =      -0.4504026858042987 [Eh]
	 Opposite-Spin Energy      =      -1.3722020697082749 [Eh]
	 Correlation Energy        =      -1.8226047555125735 [Eh]
	 Total Energy              =    -433.6233798610647341 [Eh]

	 ================> DF-SCS-MP2 Energies <==================
	-----------------------------------------------------------
	 SCS Same-Spin Scale       =       0.3333333333333333 [-]
	 SCS Opposite-Spin Scale   =       1.2000000000000000 [-]
	 SCS Same-Spin Energy      =      -0.1501342286014329 [Eh]
	 SCS Opposite-Spin Energy  =      -1.6466424836499298 [Eh]
	 SCS Correlation Energy    =      -1.7967767122513627 [Eh]
	 SCS Total Energy          =    -433.5975518178034918 [Eh]
	-----------------------------------------------------------

  Dipole Moment: [D]
     X:     1.7003      Y:    -5.6325      Z:     0.7638     Total:     5.9329

*** Psi4 exiting successfully. Buy a developer a beer!
