                               Psi4 1.3.2 release

  ==> Input File <==

--------------------------------------------------------------------------
#psi4
#
memory 32 gb

molecule  {
0 1
  O       -1.4243350     1.8531120    -0.0084660
  N       -1.1176450    -0.4263010     0.0065070
  N        0.7429240     1.0712790     0.0095610
  N        2.8919430     0.2615640    -0.0759850
  C       -0.2733660    -1.4960510    -0.0007800
  C        1.0765330    -1.3300920    -0.0040440
  C       -0.6338910     0.9109410     0.0155220
  C       -2.5623537    -0.6528358     0.3005079
  C        1.5376510     0.0247200    -0.0002060
  H       -0.7522370    -2.4720050    -0.0099570
  H        1.7553550    -2.1750520    -0.0313920
  H       -2.8635010    -1.2105310     0.8892080
  H       -2.8583950    -1.1972750    -0.8980640
  H       -3.0263160     0.3321150     0.0069490
  H        3.5027140    -0.4263080     0.3467730
  H        3.1453740     1.2255370     0.1175850
units angstrom
no_reorient  #important for SAPT in psi4, default
symmetry c1  #important for SAPT in psi4, default
}

set PROPERTIES_ORIGIN ["COM"]
properties('MP2/aug-cc-pvtz', properties = ['dipole'])
--------------------------------------------------------------------------

    Molecular point group: c1
  Charge       = 0
  Multiplicity = 1
  Basis Set: AUG-CC-PVTZ
    Blend: AUG-CC-PVTZ
  Basis Set: (AUG-CC-PVTZ AUX)
    Blend: AUG-CC-PVTZ-JKFIT

    Orbital Energies [Eh]
    ---------------------

    Doubly Occupied:

       1A    -20.505901     2A    -15.630277     3A    -15.592885
       4A    -15.544985     5A    -11.374007     6A    -11.350720
       7A    -11.327420     8A    -11.283745     9A    -11.247295
      10A     -1.383783    11A     -1.297026    12A     -1.267008
      13A     -1.171485    14A     -1.073031    15A     -0.979078
      16A     -0.901659    17A     -0.859442    18A     -0.761557
      19A     -0.735041    20A     -0.707693    21A     -0.673959
      22A     -0.654608    23A     -0.626981    24A     -0.616955
      25A     -0.600013    26A     -0.569931    27A     -0.538919
      28A     -0.502655    29A     -0.463237    30A     -0.440007
      31A     -0.418827    32A     -0.386976    33A     -0.339228

  @DF-RHF Final Energy:  -431.69918871341929

   => Energetics <=

    Nuclear Repulsion Energy =            440.4688350965260497
    One-Electron Energy =               -1460.6833819700414097
    Two-Electron Energy =                 588.5153581600960706
    Total Energy =                       -431.6991887134192893
  Basis Set: (AUG-CC-PVTZ AUX)
    Blend: AUG-CC-PVTZ-RI
    Molecular point group: c1

    Geometry (in Angstrom), charge = 0, multiplicity = 1:

       Center              X                  Y                   Z               Mass
    ------------   -----------------  -----------------  -----------------  -----------------
         O           -1.433099019399     1.806373558727    -0.033909694953    15.994914619570
         N           -1.126409019399    -0.473039441273    -0.018936694953    14.003074004430
         N            0.734159980601     1.024540558727    -0.015882694953    14.003074004430
         N            2.883178980601     0.214825558727    -0.101428694953    14.003074004430
         C           -0.282130019399    -1.542789441273    -0.026223694953    12.000000000000
         C            1.067768980601    -1.376830441273    -0.029487694953    12.000000000000
         C           -0.642655019399     0.864202558727    -0.009921694953    12.000000000000
         C           -2.571117719399    -0.699574241273     0.275064205047    12.000000000000
         C            1.528886980601    -0.022018441273    -0.025649694953    12.000000000000
         H           -0.761001019399    -2.518743441273    -0.035400694953     1.007825032230
         H            1.746590980601    -2.221790441273    -0.056835694953     1.007825032230
         H           -2.872265019399    -1.257269441273     0.863764305047     1.007825032230
         H           -2.867159019399    -1.244013441273    -0.923507694953     1.007825032230
         H           -3.035080019399     0.285376558727    -0.018494694953     1.007825032230
         H            3.493949980601    -0.473046441273     0.321329305047     1.007825032230
         H            3.136609980601     1.178798558727     0.092141305047     1.007825032230

  Basis Set: AUG-CC-PVTZ
    Blend: AUG-CC-PVTZ
  Basis Set: (AUG-CC-PVTZ AUX)
    Blend: AUG-CC-PVTZ-JKFIT
	 Reference Energy          =    -431.6991887134192893 [Eh]
	 Singles Energy            =      -0.0000000000000000 [Eh]
	 Same-Spin Energy          =      -0.4516508864231787 [Eh]
	 Opposite-Spin Energy      =      -1.3765663390015677 [Eh]
	 Correlation Energy        =      -1.8282172254247464 [Eh]
	 Total Energy              =    -433.5274059388440264 [Eh]

	 ================> DF-SCS-MP2 Energies <==================
	-----------------------------------------------------------
	 SCS Same-Spin Scale       =       0.3333333333333333 [-]
	 SCS Opposite-Spin Scale   =       1.2000000000000000 [-]
	 SCS Same-Spin Energy      =      -0.1505502954743929 [Eh]
	 SCS Opposite-Spin Energy  =      -1.6518796068018811 [Eh]
	 SCS Correlation Energy    =      -1.8024299022762740 [Eh]
	 SCS Total Energy          =    -433.5016186156955769 [Eh]
	-----------------------------------------------------------

  Dipole Moment: [D]
     X:     1.8821      Y:    -5.5152      Z:     1.1274     Total:     5.9356

*** Psi4 exiting successfully. Buy a developer a beer!
