                               Psi4 1.3.2 release

  ==> Input File <==

--------------------------------------------------------------------------
#psi4
#
memory 32 gb

molecule  {
0 1
  O       -1.4243350     1.8531120    -0.0084660
  N       -1.1176450    -0.4263010     0.0065070
  N        0.7429240     1.0712790     0.0095610
  N        2.8919430     0.2615640    -0.0759850
  C       -0.2733660    -1.4960510    -0.0007800
  C        1.0765330    -1.3300920    -0.0040440
  C       -0.6338910     0.9109410     0.0155220
  C       -2.5617390    -0.6507120     0.0005160
  C        1.5376510     0.0247200    -0.0002060
  H       -0.7525594    -2.4704530    -0.2099507
  H        1.7553550    -2.1750520    -0.0313920
  H       -2.8635010    -1.2105310     0.8892080
  H       -2.8583950    -1.1972750    -0.8980640
  H       -3.0263160     0.3321150     0.0069490
  H        3.5027140    -0.4263080     0.3467730
  H        3.1453740     1.2255370     0.1175850
units angstrom
no_reorient  #important for SAPT in psi4, default
symmetry c1  #important for SAPT in psi4, default
}

set PROPERTIES_ORIGIN ["COM"]
properties('MP2/aug-cc-pvtz', properties = ['dipole'])
--------------------------------------------------------------------------

    Molecular point group: c1
  Charge       = 0
  Multiplicity = 1
  Basis Set: AUG-CC-PVTZ
    Blend: AUG-CC-PVTZ
  Basis Set: (AUG-CC-PVTZ AUX)
    Blend: AUG-CC-PVTZ-JKFIT

    Orbital Energies [Eh]
    ---------------------

    Doubly Occupied:

       1A    -20.503637     2A    -15.625283     3A    -15.591628
       4A    -15.543795     5A    -11.372331     6A    -11.349550
       7A    -11.328772     8A    -11.270329     9A    -11.246598
      10A     -1.382623    11A     -1.296061    12A     -1.267423
      13A     -1.170803    14A     -1.072573    15A     -0.965242
      16A     -0.897583    17A     -0.853777    18A     -0.759074
      19A     -0.722061    20A     -0.685854    21A     -0.672926
      22A     -0.655529    23A     -0.621723    24A     -0.599684
      25A     -0.592333    26A     -0.579635    27A     -0.559061
      28A     -0.522001    29A     -0.475979    30A     -0.440978
      31A     -0.419572    32A     -0.387947    33A     -0.339077

  @DF-RHF Final Energy:  -431.79823620598762

   => Energetics <=

    Nuclear Repulsion Energy =            440.8435952165155527
    One-Electron Energy =               -1461.7407759813127086
    Two-Electron Energy =                 589.0989445588095350
    Total Energy =                       -431.7982362059876777
  Basis Set: (AUG-CC-PVTZ AUX)
    Blend: AUG-CC-PVTZ-RI
    Molecular point group: c1

    Geometry (in Angstrom), charge = 0, multiplicity = 1:

       Center              X                  Y                   Z               Mass
    ------------   -----------------  -----------------  -----------------  -----------------
         O           -1.433155404643     1.806157262711    -0.003512329418    15.994914619570
         N           -1.126465404643    -0.473255737289     0.011460670582    14.003074004430
         N            0.734103595357     1.024324262711     0.014514670582    14.003074004430
         N            2.883122595357     0.214609262711    -0.071031329418    14.003074004430
         C           -0.282186404643    -1.543005737289     0.004173670582    12.000000000000
         C            1.067712595357    -1.377046737289     0.000909670582    12.000000000000
         C           -0.642711404643     0.863986262711     0.020475670582    12.000000000000
         C           -2.570559404643    -0.697666737289     0.005469670582    12.000000000000
         C            1.528830595357    -0.022234737289     0.004747670582    12.000000000000
         H           -0.761379804643    -2.517407737289    -0.204997029418     1.007825032230
         H            1.746534595357    -2.222006737289    -0.026438329418     1.007825032230
         H           -2.872321404643    -1.257485737289     0.894161670582     1.007825032230
         H           -2.867215404643    -1.244229737289    -0.893110329418     1.007825032230
         H           -3.035136404643     0.285160262711     0.011902670582     1.007825032230
         H            3.493893595357    -0.473262737289     0.351726670582     1.007825032230
         H            3.136553595357     1.178582262711     0.122538670582     1.007825032230

  Basis Set: AUG-CC-PVTZ
    Blend: AUG-CC-PVTZ
  Basis Set: (AUG-CC-PVTZ AUX)
    Blend: AUG-CC-PVTZ-JKFIT
	 Reference Energy          =    -431.7982362059876209 [Eh]
	 Singles Energy            =      -0.0000000000000000 [Eh]
	 Same-Spin Energy          =      -0.4505841889822981 [Eh]
	 Opposite-Spin Energy      =      -1.3725336017677807 [Eh]
	 Correlation Energy        =      -1.8231177907500788 [Eh]
	 Total Energy              =    -433.6213539967376960 [Eh]

	 ================> DF-SCS-MP2 Energies <==================
	-----------------------------------------------------------
	 SCS Same-Spin Scale       =       0.3333333333333333 [-]
	 SCS Opposite-Spin Scale   =       1.2000000000000000 [-]
	 SCS Same-Spin Energy      =      -0.1501947296607660 [Eh]
	 SCS Opposite-Spin Energy  =      -1.6470403221213368 [Eh]
	 SCS Correlation Energy    =      -1.7972350517821027 [Eh]
	 SCS Total Energy          =    -433.5954712577697023 [Eh]
	-----------------------------------------------------------

  Dipole Moment: [D]
     X:     1.7230      Y:    -5.6081      Z:     0.7156     Total:     5.9103

*** Psi4 exiting successfully. Buy a developer a beer!
