                               Psi4 1.3.2 release

  ==> Input File <==

--------------------------------------------------------------------------
#psi4
#
memory 32 gb

molecule  {
0 1
  O       -1.4243350     1.8531120    -0.0084660
  N       -1.1176450    -0.4263010     0.0065070
  N        0.7429240     1.0712790     0.0095610
  N        2.8919430     0.2615640    -0.0759850
  C       -0.2733660    -1.4960510    -0.0007800
  C        1.0765330    -1.3300920    -0.0040440
  C       -0.6338910     0.9109410     0.0155220
  C       -2.5621488    -0.6521279     0.2005106
  C        1.5376510     0.0247200    -0.0002060
  H       -0.7522370    -2.4720050    -0.0099570
  H        1.7553550    -2.1750520    -0.0313920
  H       -2.8635010    -1.2105310     0.8892080
  H       -2.8583950    -1.1972750    -0.8980640
  H       -3.0263160     0.3321150     0.0069490
  H        3.5027140    -0.4263080     0.3467730
  H        3.1453740     1.2255370     0.1175850
units angstrom
no_reorient  #important for SAPT in psi4, default
symmetry c1  #important for SAPT in psi4, default
}

set PROPERTIES_ORIGIN ["COM"]
properties('MP2/aug-cc-pvtz', properties = ['dipole'])
--------------------------------------------------------------------------

    Molecular point group: c1
  Charge       = 0
  Multiplicity = 1
  Basis Set: AUG-CC-PVTZ
    Blend: AUG-CC-PVTZ
  Basis Set: (AUG-CC-PVTZ AUX)
    Blend: AUG-CC-PVTZ-JKFIT

    Orbital Energies [Eh]
    ---------------------

    Doubly Occupied:

       1A    -20.504641     2A    -15.627676     3A    -15.592156
       4A    -15.544213     5A    -11.373045     6A    -11.349921
       7A    -11.327298     8A    -11.276411     9A    -11.246567
      10A     -1.383133    11A     -1.296475    12A     -1.267274
      13A     -1.171058    14A     -1.072836    15A     -0.971011
      16A     -0.900464    17A     -0.856335    18A     -0.759995
      19A     -0.728070    20A     -0.698556    21A     -0.673967
      22A     -0.656621    23A     -0.623683    24A     -0.612543
      25A     -0.599542    26A     -0.573551    27A     -0.543259
      28A     -0.511143    29A     -0.471253    30A     -0.440795
      31A     -0.419136    32A     -0.387752    33A     -0.339176

  @DF-RHF Final Energy:  -431.75664262269925

   => Energetics <=

    Nuclear Repulsion Energy =            440.7129542418074379
    One-Electron Energy =               -1461.3400759584751540
    Two-Electron Energy =                 588.8704790939684699
    Total Energy =                       -431.7566426226992462
  Basis Set: (AUG-CC-PVTZ AUX)
    Blend: AUG-CC-PVTZ-RI
    Molecular point group: c1

    Geometry (in Angstrom), charge = 0, multiplicity = 1:

       Center              X                  Y                   Z               Mass
    ------------   -----------------  -----------------  -----------------  -----------------
         O           -1.433118680533     1.806305632341    -0.024314476330    15.994914619570
         N           -1.126428680533    -0.473107367659    -0.009341476330    14.003074004430
         N            0.734140319467     1.024472632341    -0.006287476330    14.003074004430
         N            2.883159319467     0.214757632341    -0.091833476330    14.003074004430
         C           -0.282149680533    -1.542857367659    -0.016628476330    12.000000000000
         C            1.067749319467    -1.376898367659    -0.019892476330    12.000000000000
         C           -0.642674680533     0.864134632341    -0.000326476330    12.000000000000
         C           -2.570932480533    -0.698934267659     0.184662123670    12.000000000000
         C            1.528867319467    -0.022086367659    -0.016054476330    12.000000000000
         H           -0.761020680533    -2.518811367659    -0.025805476330     1.007825032230
         H            1.746571319467    -2.221858367659    -0.047240476330     1.007825032230
         H           -2.872284680533    -1.257337367659     0.873359523670     1.007825032230
         H           -2.867178680533    -1.244081367659    -0.913912476330     1.007825032230
         H           -3.035099680533     0.285308632341    -0.008899476330     1.007825032230
         H            3.493930319467    -0.473114367659     0.330924523670     1.007825032230
         H            3.136590319467     1.178730632341     0.101736523670     1.007825032230

  Basis Set: AUG-CC-PVTZ
    Blend: AUG-CC-PVTZ
  Basis Set: (AUG-CC-PVTZ AUX)
    Blend: AUG-CC-PVTZ-JKFIT
	 Reference Energy          =    -431.7566426226992462 [Eh]
	 Singles Energy            =      -0.0000000000000000 [Eh]
	 Same-Spin Energy          =      -0.4509415049643914 [Eh]
	 Opposite-Spin Energy      =      -1.3740201505823606 [Eh]
	 Correlation Energy        =      -1.8249616555467520 [Eh]
	 Total Energy              =    -433.5816042782460045 [Eh]

	 ================> DF-SCS-MP2 Energies <==================
	-----------------------------------------------------------
	 SCS Same-Spin Scale       =       0.3333333333333333 [-]
	 SCS Opposite-Spin Scale   =       1.2000000000000000 [-]
	 SCS Same-Spin Energy      =      -0.1503138349881304 [Eh]
	 SCS Opposite-Spin Energy  =      -1.6488241806988326 [Eh]
	 SCS Correlation Energy    =      -1.7991380156869630 [Eh]
	 SCS Total Energy          =    -433.5557806383861816 [Eh]
	-----------------------------------------------------------

  Dipole Moment: [D]
     X:     1.7862      Y:    -5.5763      Z:     1.0466     Total:     5.9482

*** Psi4 exiting successfully. Buy a developer a beer!
