                               Psi4 1.3.2 release

  ==> Input File <==

--------------------------------------------------------------------------
#psi4
#
memory 32 gb

molecule  {
0 1
  O       -1.4243350     1.8531120    -0.0084660
  N       -1.1176450    -0.4263010     0.0065070
  N        0.7429240     1.0712790     0.0095610
  N        2.8919430     0.2615640    -0.0759850
  C       -0.2733660    -1.4960510    -0.0007800
  C        1.0765330    -1.3300920    -0.0040440
  C       -0.6338910     0.9109410     0.0155220
  C       -2.5617390    -0.6507120     0.0005160
  C        1.5376510     0.0247200    -0.0002060
  H       -0.7522370    -2.4720050    -0.0099570
  H        1.7553550    -2.1750520    -0.0313920
  H       -2.8635010    -1.2105310     0.8892080
  H       -2.8583950    -1.1972750    -0.8980640
  H       -3.0263160     0.3321150     0.0069490
  H        3.5027140    -0.4263080     0.3467730
  H        3.1378871     1.2307384     0.1667469
units angstrom
no_reorient  #important for SAPT in psi4, default
symmetry c1  #important for SAPT in psi4, default
}

set PROPERTIES_ORIGIN ["COM"]
properties('MP2/aug-cc-pvtz', properties = ['dipole'])
--------------------------------------------------------------------------

    Molecular point group: c1
  Charge       = 0
  Multiplicity = 1
  Basis Set: AUG-CC-PVTZ
    Blend: AUG-CC-PVTZ
  Basis Set: (AUG-CC-PVTZ AUX)
    Blend: AUG-CC-PVTZ-JKFIT

    Orbital Energies [Eh]
    ---------------------

    Doubly Occupied:

       1A    -20.503764     2A    -15.625625     3A    -15.592722
       4A    -15.543886     5A    -11.372449     6A    -11.349231
       7A    -11.327385     8A    -11.270612     9A    -11.246079
      10A     -1.382775    11A     -1.296051    12A     -1.267276
      13A     -1.170238    14A     -1.072745    15A     -0.965208
      16A     -0.899265    17A     -0.853542    18A     -0.757662
      19A     -0.723499    20A     -0.685848    21A     -0.671332
      22A     -0.655703    23A     -0.621614    24A     -0.600838
      25A     -0.592246    26A     -0.580205    27A     -0.559222
      28A     -0.522447    29A     -0.476494    30A     -0.441062
      31A     -0.419972    32A     -0.388534    33A     -0.339141

  @DF-RHF Final Energy:  -431.80027903077735

   => Energetics <=

    Nuclear Repulsion Energy =            440.8753632436311705
    One-Electron Energy =               -1461.8019447957478860
    Two-Electron Energy =                 589.1263025213393121
    Total Energy =                       -431.8002790307773466
  Basis Set: (AUG-CC-PVTZ AUX)
    Blend: AUG-CC-PVTZ-RI
    Molecular point group: c1

    Geometry (in Angstrom), charge = 0, multiplicity = 1:

       Center              X                  Y                   Z               Mass
    ------------   -----------------  -----------------  -----------------  -----------------
         O           -1.433097667355     1.806127852918    -0.005520225112    15.994914619570
         N           -1.126407667355    -0.473285147082     0.009452774888    14.003074004430
         N            0.734161332645     1.024294852918     0.012506774888    14.003074004430
         N            2.883180332645     0.214579852918    -0.073039225112    14.003074004430
         C           -0.282128667355    -1.543035147082     0.002165774888    12.000000000000
         C            1.067770332645    -1.377076147082    -0.001098225112    12.000000000000
         C           -0.642653667355     0.863956852918     0.018467774888    12.000000000000
         C           -2.570501667355    -0.697696147082     0.003461774888    12.000000000000
         C            1.528888332645    -0.022264147082     0.002739774888    12.000000000000
         H           -0.760999667355    -2.518989147082    -0.007011225112     1.007825032230
         H            1.746592332645    -2.222036147082    -0.028446225112     1.007825032230
         H           -2.872263667355    -1.257515147082     0.892153774888     1.007825032230
         H           -2.867157667355    -1.244259147082    -0.895118225112     1.007825032230
         H           -3.035078667355     0.285130852918     0.009894774888     1.007825032230
         H            3.493951332645    -0.473292147082     0.349718774888     1.007825032230
         H            3.129124432645     1.183754252918     0.169692674888     1.007825032230

  Basis Set: AUG-CC-PVTZ
    Blend: AUG-CC-PVTZ
  Basis Set: (AUG-CC-PVTZ AUX)
    Blend: AUG-CC-PVTZ-JKFIT
	 Reference Energy          =    -431.8002790307773466 [Eh]
	 Singles Energy            =      -0.0000000000000000 [Eh]
	 Same-Spin Energy          =      -0.4504805436606942 [Eh]
	 Opposite-Spin Energy      =      -1.3724354030190955 [Eh]
	 Correlation Energy        =      -1.8229159466797897 [Eh]
	 Total Energy              =    -433.6231949774571603 [Eh]

	 ================> DF-SCS-MP2 Energies <==================
	-----------------------------------------------------------
	 SCS Same-Spin Scale       =       0.3333333333333333 [-]
	 SCS Opposite-Spin Scale   =       1.2000000000000000 [-]
	 SCS Same-Spin Energy      =      -0.1501601812202314 [Eh]
	 SCS Opposite-Spin Energy  =      -1.6469224836229146 [Eh]
	 SCS Correlation Energy    =      -1.7970826648431459 [Eh]
	 SCS Total Energy          =    -433.5973616956205205 [Eh]
	-----------------------------------------------------------

  Dipole Moment: [D]
     X:     1.6646      Y:    -5.6428      Z:     0.8918     Total:     5.9504

*** Psi4 exiting successfully. Buy a developer a beer!
