                               Psi4 1.3.2 release

  ==> Input File <==

--------------------------------------------------------------------------
#psi4
#
memory 32 gb

molecule  {
0 1
  O       -1.4243350     1.8531120    -0.0084660
  N       -1.1176450    -0.4263010     0.0065070
  N        0.7429240     1.0712790     0.0095610
  N        2.8919430     0.2615640    -0.0759850
  C       -0.2733660    -1.4960510    -0.0007800
  C        1.0765330    -1.3300920    -0.0040440
  C       -0.6338910     0.9109410     0.0155220
  C       -2.5617390    -0.6507120     0.0005160
  C        1.5376510     0.0247200    -0.0002060
  H       -0.7522370    -2.4720050    -0.0099570
  H        1.7548201    -2.1743962    -0.0813848
  H       -2.8635010    -1.2105310     0.8892080
  H       -2.8583950    -1.1972750    -0.8980640
  H       -3.0263160     0.3321150     0.0069490
  H        3.5027140    -0.4263080     0.3467730
  H        3.1453740     1.2255370     0.1175850
units angstrom
no_reorient  #important for SAPT in psi4, default
symmetry c1  #important for SAPT in psi4, default
}

set PROPERTIES_ORIGIN ["COM"]
properties('MP2/aug-cc-pvtz', properties = ['dipole'])
--------------------------------------------------------------------------

    Molecular point group: c1
  Charge       = 0
  Multiplicity = 1
  Basis Set: AUG-CC-PVTZ
    Blend: AUG-CC-PVTZ
  Basis Set: (AUG-CC-PVTZ AUX)
    Blend: AUG-CC-PVTZ-JKFIT

    Orbital Energies [Eh]
    ---------------------

    Doubly Occupied:

       1A    -20.503618     2A    -15.625460     3A    -15.591485
       4A    -15.543567     5A    -11.372276     6A    -11.349244
       7A    -11.327296     8A    -11.270502     9A    -11.246013
      10A     -1.382620    11A     -1.296021    12A     -1.267453
      13A     -1.170674    14A     -1.072661    15A     -0.965293
      16A     -0.899377    17A     -0.853647    18A     -0.758984
      19A     -0.723752    20A     -0.685446    21A     -0.674175
      22A     -0.655530    23A     -0.621939    24A     -0.601735
      25A     -0.591924    26A     -0.580024    27A     -0.559132
      28A     -0.521973    29A     -0.476249    30A     -0.440884
      31A     -0.419713    32A     -0.387840    33A     -0.339022

  @DF-RHF Final Energy:  -431.80087838712780

   => Energetics <=

    Nuclear Repulsion Energy =            440.9126411096056017
    One-Electron Energy =               -1461.8759809425007461
    Two-Electron Energy =                 589.1624614457673488
    Total Energy =                       -431.8008783871277956
  Basis Set: (AUG-CC-PVTZ AUX)
    Blend: AUG-CC-PVTZ-RI
    Molecular point group: c1

    Geometry (in Angstrom), charge = 0, multiplicity = 1:

       Center              X                  Y                   Z               Mass
    ------------   -----------------  -----------------  -----------------  -----------------
         O           -1.433153692148     1.806164485009    -0.004721156999    15.994914619570
         N           -1.126463692148    -0.473248514991     0.010251843001    14.003074004430
         N            0.734105307852     1.024331485009     0.013305843001    14.003074004430
         N            2.883124307852     0.214616485009    -0.072240156999    14.003074004430
         C           -0.282184692148    -1.542998514991     0.002964843001    12.000000000000
         C            1.067714307852    -1.377039514991    -0.000299156999    12.000000000000
         C           -0.642709692148     0.863993485009     0.019266843001    12.000000000000
         C           -2.570557692148    -0.697659514991     0.004260843001    12.000000000000
         C            1.528832307852    -0.022227514991     0.003538843001    12.000000000000
         H           -0.761055692148    -2.518952514991    -0.006212156999     1.007825032230
         H            1.746001407852    -2.221343714991    -0.077639956999     1.007825032230
         H           -2.872319692148    -1.257478514991     0.892952843001     1.007825032230
         H           -2.867213692148    -1.244222514991    -0.894319156999     1.007825032230
         H           -3.035134692148     0.285167485009     0.010693843001     1.007825032230
         H            3.493895307852    -0.473255514991     0.350517843001     1.007825032230
         H            3.136555307852     1.178589485009     0.121329843001     1.007825032230

  Basis Set: AUG-CC-PVTZ
    Blend: AUG-CC-PVTZ
  Basis Set: (AUG-CC-PVTZ AUX)
    Blend: AUG-CC-PVTZ-JKFIT
	 Reference Energy          =    -431.8008783871277956 [Eh]
	 Singles Energy            =      -0.0000000000000000 [Eh]
	 Same-Spin Energy          =      -0.4503934620148278 [Eh]
	 Opposite-Spin Energy      =      -1.3721707205150651 [Eh]
	 Correlation Energy        =      -1.8225641825298928 [Eh]
	 Total Energy              =    -433.6234425696576977 [Eh]

	 ================> DF-SCS-MP2 Energies <==================
	-----------------------------------------------------------
	 SCS Same-Spin Scale       =       0.3333333333333333 [-]
	 SCS Opposite-Spin Scale   =       1.2000000000000000 [-]
	 SCS Same-Spin Energy      =      -0.1501311540049426 [Eh]
	 SCS Opposite-Spin Energy  =      -1.6466048646180780 [Eh]
	 SCS Correlation Energy    =      -1.7967360186230206 [Eh]
	 SCS Total Energy          =    -433.5976144057507895 [Eh]
	-----------------------------------------------------------

  Dipole Moment: [D]
     X:     1.6988      Y:    -5.6294      Z:     0.7951     Total:     5.9336

*** Psi4 exiting successfully. Buy a developer a beer!
