                               Psi4 1.4a3.dev225

  ==> Input File <==

--------------------------------------------------------------------------
#psi4
#
memory 32 gb

molecule  {
0 1
  C       -0.1211700     0.4020020    -0.0021590
  H       -0.1135610     1.4981820    -0.0182380
  N       -1.1713390    -0.3373500     0.0193110
  H       -1.9639197     0.2239291    -0.0011926
  N        1.1420860    -0.1478600    -0.0823680
  H        1.8904430     0.3751290     0.3530900
  H        1.1596200    -1.1416750     0.1217560
units angstrom
no_reorient  #important for SAPT in psi4, default
symmetry c1  #important for SAPT in psi4, default
}

set PROPERTIES_ORIGIN ["COM"]
properties('MP2/aug-cc-pvtz', properties = ['dipole'])
--------------------------------------------------------------------------

    Molecular point group: c1
  Charge       = 0
  Multiplicity = 1
  Basis Set: AUG-CC-PVTZ
    Blend: AUG-CC-PVTZ
  Basis Set: (AUG-CC-PVTZ AUX)
    Blend: AUG-CC-PVTZ-JKFIT

    Orbital Energies [Eh]
    ---------------------

    Doubly Occupied:

       1A    -15.577298     2A    -15.526540     3A    -11.318428
       4A     -1.256853     5A     -1.145353     6A     -0.827284
       7A     -0.740124     8A     -0.631157     9A     -0.622617
      10A     -0.524802    11A     -0.429928    12A     -0.373689

  @DF-RHF Final Energy:  -149.14290161703718

   => Energetics <=

    Nuclear Repulsion Energy =             72.0779996282753785
    One-Electron Energy =                -344.4936531478318216
    Two-Electron Energy =                 123.2727519025192464
    Total Energy =                       -149.1429016170371824
  Basis Set: (AUG-CC-PVTZ AUX)
    Blend: AUG-CC-PVTZ-RI
    Molecular point group: c1

    Geometry (in Angstrom), charge = 0, multiplicity = 1:

       Center              X                  Y                   Z               Mass
    ------------   -----------------  -----------------  -----------------  -----------------
         C           -0.101108003373     0.424877192650     0.008057777228    12.000000000000
         H           -0.093499003373     1.521057192650    -0.008021222772     1.007825032230
         N           -1.151277003373    -0.314474807350     0.029527777228    14.003074004430
         H           -1.943857703373     0.246804292650     0.009024177228     1.007825032230
         N            1.162147996627    -0.124984807350    -0.072151222772    14.003074004430
         H            1.910504996627     0.398004192650     0.363306777228     1.007825032230
         H            1.179681996627    -1.118799807350     0.131972777228     1.007825032230

  Basis Set: AUG-CC-PVTZ
    Blend: AUG-CC-PVTZ
  Basis Set: (AUG-CC-PVTZ AUX)
    Blend: AUG-CC-PVTZ-JKFIT
	 Reference Energy          =    -149.1429016170371824 [Eh]
	 Singles Energy            =      -0.0000000000000000 [Eh]
	 Same-Spin Energy          =      -0.1513143513667282 [Eh]
	 Opposite-Spin Energy      =      -0.4918354174987881 [Eh]
	 Correlation Energy        =      -0.6431497688655163 [Eh]
	 Total Energy              =    -149.7860513859027094 [Eh]

	 ================> DF-SCS-MP2 Energies <==================
	-----------------------------------------------------------
	 SCS Same-Spin Scale       =       0.3333333333333333 [-]
	 SCS Opposite-Spin Scale   =       1.2000000000000000 [-]
	 SCS Same-Spin Energy      =      -0.0504381171222427 [Eh]
	 SCS Opposite-Spin Energy  =      -0.5902025009985457 [Eh]
	 SCS Correlation Energy    =      -0.6406406181207884 [Eh]
	 SCS Total Energy          =    -149.7835422351579666 [Eh]
	-----------------------------------------------------------

  Dipole Moment: [D]
     X:     1.6177      Y:     1.8056      Z:     0.8685     Total:     2.5752

*** Psi4 exiting successfully. Buy a developer a beer!
