                               Psi4 1.4a3.dev225

  ==> Input File <==

--------------------------------------------------------------------------
#psi4
#
memory 32 gb

molecule  {
0 1
  C       -0.1211700     0.4020020    -0.0021590
  H       -0.1139080     1.4481886    -0.0175047
  N       -1.1713390    -0.3373500     0.0193110
  H       -2.0047150     0.2528190    -0.0022480
  N        1.1420860    -0.1478600    -0.0823680
  H        1.8904430     0.3751290     0.3530900
  H        1.1596200    -1.1416750     0.1217560
units angstrom
no_reorient  #important for SAPT in psi4, default
symmetry c1  #important for SAPT in psi4, default
}

set PROPERTIES_ORIGIN ["COM"]
properties('MP2/aug-cc-pvtz', properties = ['dipole'])
--------------------------------------------------------------------------

    Molecular point group: c1
  Charge       = 0
  Multiplicity = 1
  Basis Set: AUG-CC-PVTZ
    Blend: AUG-CC-PVTZ
  Basis Set: (AUG-CC-PVTZ AUX)
    Blend: AUG-CC-PVTZ-JKFIT

    Orbital Energies [Eh]
    ---------------------

    Doubly Occupied:

       1A    -15.576653     2A    -15.532035     3A    -11.312277
       4A     -1.255748     5A     -1.139283     6A     -0.831746
       7A     -0.738356     8A     -0.632302     9A     -0.619836
      10A     -0.524296    11A     -0.429168    12A     -0.372900

  @DF-RHF Final Energy:  -149.14266076283147

   => Energetics <=

    Nuclear Repulsion Energy =             72.0523565093377414
    One-Electron Energy =                -344.4608350540252104
    Two-Electron Energy =                 123.2658177818559864
    Total Energy =                       -149.1426607628314684
  Basis Set: (AUG-CC-PVTZ AUX)
    Blend: AUG-CC-PVTZ-RI
    Molecular point group: c1

    Geometry (in Angstrom), charge = 0, multiplicity = 1:

       Center              X                  Y                   Z               Mass
    ------------   -----------------  -----------------  -----------------  -----------------
         C           -0.100166435649     0.425360159681     0.008065148692    12.000000000000
         H           -0.092904435649     1.471546759681    -0.007280551308     1.007825032230
         N           -1.150335435649    -0.313991840319     0.029535148692    14.003074004430
         H           -1.983711435649     0.276177159681     0.007976148692     1.007825032230
         N            1.163089564351    -0.124501840319    -0.072143851308    14.003074004430
         H            1.911446564351     0.398487159681     0.363314148692     1.007825032230
         H            1.180623564351    -1.118316840319     0.131980148692     1.007825032230

  Basis Set: AUG-CC-PVTZ
    Blend: AUG-CC-PVTZ
  Basis Set: (AUG-CC-PVTZ AUX)
    Blend: AUG-CC-PVTZ-JKFIT
	 Reference Energy          =    -149.1426607628314684 [Eh]
	 Singles Energy            =      -0.0000000000000000 [Eh]
	 Same-Spin Energy          =      -0.1514648721066687 [Eh]
	 Opposite-Spin Energy      =      -0.4924823391181397 [Eh]
	 Correlation Energy        =      -0.6439472112248084 [Eh]
	 Total Energy              =    -149.7866079740562668 [Eh]

	 ================> DF-SCS-MP2 Energies <==================
	-----------------------------------------------------------
	 SCS Same-Spin Scale       =       0.3333333333333333 [-]
	 SCS Opposite-Spin Scale   =       1.2000000000000000 [-]
	 SCS Same-Spin Energy      =      -0.0504882907022229 [Eh]
	 SCS Opposite-Spin Energy  =      -0.5909788069417676 [Eh]
	 SCS Correlation Energy    =      -0.6414670976439906 [Eh]
	 SCS Total Energy          =    -149.7841278604754507 [Eh]
	-----------------------------------------------------------

  Dipole Moment: [D]
     X:     1.6125      Y:     1.8371      Z:     0.8693     Total:     2.5943

*** Psi4 exiting successfully. Buy a developer a beer!
