                               Psi4 1.4a3.dev225

  ==> Input File <==

--------------------------------------------------------------------------
#psi4
#
memory 32 gb

molecule  {
0 1
  C       -0.1211700     0.4020020    -0.0021590
  H       -0.1134222     1.5181794    -0.0185313
  N       -1.1713390    -0.3373500     0.0193110
  H       -2.0047150     0.2528190    -0.0022480
  N        1.1420860    -0.1478600    -0.0823680
  H        1.8904430     0.3751290     0.3530900
  H        1.1596200    -1.1416750     0.1217560
units angstrom
no_reorient  #important for SAPT in psi4, default
symmetry c1  #important for SAPT in psi4, default
}

set PROPERTIES_ORIGIN ["COM"]
properties('MP2/aug-cc-pvtz', properties = ['dipole'])
--------------------------------------------------------------------------

    Molecular point group: c1
  Charge       = 0
  Multiplicity = 1
  Basis Set: AUG-CC-PVTZ
    Blend: AUG-CC-PVTZ
  Basis Set: (AUG-CC-PVTZ AUX)
    Blend: AUG-CC-PVTZ-JKFIT

    Orbital Energies [Eh]
    ---------------------

    Doubly Occupied:

       1A    -15.577674     2A    -15.532908     3A    -11.320491
       4A     -1.255350     5A     -1.139993     6A     -0.820352
       7A     -0.734824     8A     -0.626833     9A     -0.618081
      10A     -0.524908    11A     -0.427605    12A     -0.373670

  @DF-RHF Final Energy:  -149.14267938923922

   => Energetics <=

    Nuclear Repulsion Energy =             71.7520168742562134
    One-Electron Energy =                -343.8840183513817692
    Two-Electron Energy =                 122.9893220878863076
    Total Energy =                       -149.1426793892392197
  Basis Set: (AUG-CC-PVTZ AUX)
    Blend: AUG-CC-PVTZ-RI
    Molecular point group: c1

    Geometry (in Angstrom), charge = 0, multiplicity = 1:

       Center              X                  Y                   Z               Mass
    ------------   -----------------  -----------------  -----------------  -----------------
         C           -0.100177553491     0.423758375671     0.008088643086    12.000000000000
         H           -0.092429753491     1.539935775671    -0.008283656914     1.007825032230
         N           -1.150346553491    -0.315593624329     0.029558643086    14.003074004430
         H           -1.983722553491     0.274575375671     0.007999643086     1.007825032230
         N            1.163078446509    -0.126103624329    -0.072120356914    14.003074004430
         H            1.911435446509     0.396885375671     0.363337643086     1.007825032230
         H            1.180612446509    -1.119918624329     0.132003643086     1.007825032230

  Basis Set: AUG-CC-PVTZ
    Blend: AUG-CC-PVTZ
  Basis Set: (AUG-CC-PVTZ AUX)
    Blend: AUG-CC-PVTZ-JKFIT
	 Reference Energy          =    -149.1426793892392197 [Eh]
	 Singles Energy            =      -0.0000000000000000 [Eh]
	 Same-Spin Energy          =      -0.1516250489795410 [Eh]
	 Opposite-Spin Energy      =      -0.4927695847721465 [Eh]
	 Correlation Energy        =      -0.6443946337516875 [Eh]
	 Total Energy              =    -149.7870740229909075 [Eh]

	 ================> DF-SCS-MP2 Energies <==================
	-----------------------------------------------------------
	 SCS Same-Spin Scale       =       0.3333333333333333 [-]
	 SCS Opposite-Spin Scale   =       1.2000000000000000 [-]
	 SCS Same-Spin Energy      =      -0.0505416829931803 [Eh]
	 SCS Opposite-Spin Energy  =      -0.5913235017265758 [Eh]
	 SCS Correlation Energy    =      -0.6418651847197561 [Eh]
	 SCS Total Energy          =    -149.7845445739589820 [Eh]
	-----------------------------------------------------------

  Dipole Moment: [D]
     X:     1.5991      Y:     1.7865      Z:     0.8680     Total:     2.5500

*** Psi4 exiting successfully. Buy a developer a beer!
