                               Psi4 1.3.2 release

  ==> Input File <==

--------------------------------------------------------------------------
#psi4
#
memory 32 gb

molecule  {
0 1
  C        0.0000000     0.4159560     0.0000000
  H       -0.3340900     1.4603970     0.0000000
  N        1.2245270     0.0209870     0.0000000
  H        1.8415280     0.8339110     0.0000000
  N       -0.9606729    -0.4069557     0.0000000
  H       -0.8260900    -1.4592660     0.0000000
  H       -1.9967030    -0.1736100     0.0000000
units angstrom
no_reorient  #important for SAPT in psi4, default
symmetry c1  #important for SAPT in psi4, default
}

set PROPERTIES_ORIGIN ["COM"]
properties('MP2/aug-cc-pvtz', properties = ['dipole'])
--------------------------------------------------------------------------

    Molecular point group: c1
  Charge       = 0
  Multiplicity = 1
  Basis Set: AUG-CC-PVTZ
    Blend: AUG-CC-PVTZ
  Basis Set: (AUG-CC-PVTZ AUX)
    Blend: AUG-CC-PVTZ-JKFIT

    Orbital Energies [Eh]
    ---------------------

    Doubly Occupied:

       1A    -15.591353     2A    -15.506321     3A    -11.305121
       4A     -1.282461     5A     -1.126266     6A     -0.838957
       7A     -0.742619     8A     -0.638807     9A     -0.590657
      10A     -0.549983    11A     -0.412072    12A     -0.349757

  @DF-RHF Final Energy:  -149.12619260874845

   => Energetics <=

    Nuclear Repulsion Energy =             73.4251789953414118
    One-Electron Energy =                -347.2339946208381889
    Two-Electron Energy =                 124.6826230167483232
    Total Energy =                       -149.1261926087484539
  Basis Set: (AUG-CC-PVTZ AUX)
    Blend: AUG-CC-PVTZ-RI
    Molecular point group: c1

    Geometry (in Angstrom), charge = 0, multiplicity = 1:

       Center              X                  Y                   Z               Mass
    ------------   -----------------  -----------------  -----------------  -----------------
         C           -0.053797867351     0.410203362916     0.000000000000    12.000000000000
         H           -0.387887867351     1.454644362916     0.000000000000     1.007825032230
         N            1.170729132649     0.015234362916     0.000000000000    14.003074004430
         H            1.787730132649     0.828158362916     0.000000000000     1.007825032230
         N           -1.014470767351    -0.412708337084     0.000000000000    14.003074004430
         H           -0.879887867351    -1.465018637084     0.000000000000     1.007825032230
         H           -2.050500867351    -0.179362637084     0.000000000000     1.007825032230

  Basis Set: AUG-CC-PVTZ
    Blend: AUG-CC-PVTZ
  Basis Set: (AUG-CC-PVTZ AUX)
    Blend: AUG-CC-PVTZ-JKFIT
	 Reference Energy          =    -149.1261926087484539 [Eh]
	 Singles Energy            =      -0.0000000000000000 [Eh]
	 Same-Spin Energy          =      -0.1529971822954117 [Eh]
	 Opposite-Spin Energy      =      -0.4929822370433620 [Eh]
	 Correlation Energy        =      -0.6459794193387737 [Eh]
	 Total Energy              =    -149.7721720280872262 [Eh]

	 ================> DF-SCS-MP2 Energies <==================
	-----------------------------------------------------------
	 SCS Same-Spin Scale       =       0.3333333333333333 [-]
	 SCS Opposite-Spin Scale   =       1.2000000000000000 [-]
	 SCS Same-Spin Energy      =      -0.0509990607651372 [Eh]
	 SCS Opposite-Spin Energy  =      -0.5915786844520344 [Eh]
	 SCS Correlation Energy    =      -0.6425777452171717 [Eh]
	 SCS Total Energy          =    -149.7687703539656354 [Eh]
	-----------------------------------------------------------

  Dipole Moment: [D]
     X:    -3.1931      Y:     0.8658      Z:    -0.0000     Total:     3.3084

*** Psi4 exiting successfully. Buy a developer a beer!
