                               Psi4 1.3.2 release

  ==> Input File <==

--------------------------------------------------------------------------
#psi4
#
memory 32 gb

molecule  {
0 1
  C        0.0000000     0.4159560     0.0000000
  H       -0.3703369     1.4481012     0.0000000
  N        1.2245270     0.0209870     0.0000000
  H        1.8415280     0.8339110     0.0000000
  N       -1.0366190    -0.4720110     0.0000000
  H       -0.8260900    -1.4592660     0.0000000
  H       -1.9967030    -0.1736100     0.0000000
units angstrom
no_reorient  #important for SAPT in psi4, default
symmetry c1  #important for SAPT in psi4, default
}

set PROPERTIES_ORIGIN ["COM"]
properties('MP2/aug-cc-pvtz', properties = ['dipole'])
--------------------------------------------------------------------------

    Molecular point group: c1
  Charge       = 0
  Multiplicity = 1
  Basis Set: AUG-CC-PVTZ
    Blend: AUG-CC-PVTZ
  Basis Set: (AUG-CC-PVTZ AUX)
    Blend: AUG-CC-PVTZ-JKFIT

    Orbital Energies [Eh]
    ---------------------

    Doubly Occupied:

       1A    -15.577288     2A    -15.524450     3A    -11.318259
       4A     -1.254198     5A     -1.135897     6A     -0.829981
       7A     -0.742920     8A     -0.631146     9A     -0.618555
      10A     -0.525728    11A     -0.423916    12A     -0.361142

  @DF-RHF Final Energy:  -149.14277363714848

   => Energetics <=

    Nuclear Repulsion Energy =             71.9629910890971018
    One-Electron Energy =                -344.3245693628235813
    Two-Electron Energy =                 123.2188046365779854
    Total Energy =                       -149.1427736371484798
  Basis Set: (AUG-CC-PVTZ AUX)
    Blend: AUG-CC-PVTZ-RI
    Molecular point group: c1

    Geometry (in Angstrom), charge = 0, multiplicity = 1:

       Center              X                  Y                   Z               Mass
    ------------   -----------------  -----------------  -----------------  -----------------
         C           -0.028818913340     0.431171112737     0.000000000000    12.000000000000
         H           -0.399155813340     1.463316312737     0.000000000000     1.007825032230
         N            1.195708086660     0.036202112737     0.000000000000    14.003074004430
         H            1.812709086660     0.849126112737     0.000000000000     1.007825032230
         N           -1.065437913340    -0.456795887263     0.000000000000    14.003074004430
         H           -0.854908913340    -1.444050887263     0.000000000000     1.007825032230
         H           -2.025521913340    -0.158394887263     0.000000000000     1.007825032230

  Basis Set: AUG-CC-PVTZ
    Blend: AUG-CC-PVTZ
  Basis Set: (AUG-CC-PVTZ AUX)
    Blend: AUG-CC-PVTZ-JKFIT
	 Reference Energy          =    -149.1427736371484798 [Eh]
	 Singles Energy            =      -0.0000000000000000 [Eh]
	 Same-Spin Energy          =      -0.1519546318342231 [Eh]
	 Opposite-Spin Energy      =      -0.4924284353638496 [Eh]
	 Correlation Energy        =      -0.6443830671980727 [Eh]
	 Total Energy              =    -149.7871567043465575 [Eh]

	 ================> DF-SCS-MP2 Energies <==================
	-----------------------------------------------------------
	 SCS Same-Spin Scale       =       0.3333333333333333 [-]
	 SCS Opposite-Spin Scale   =       1.2000000000000000 [-]
	 SCS Same-Spin Energy      =      -0.0506515439447410 [Eh]
	 SCS Opposite-Spin Energy  =      -0.5909141224366196 [Eh]
	 SCS Correlation Energy    =      -0.6415656663813606 [Eh]
	 SCS Total Energy          =    -149.7843393035298334 [Eh]
	-----------------------------------------------------------

  Dipole Moment: [D]
     X:    -2.5615      Y:     1.1257      Z:    -0.0000     Total:     2.7979

*** Psi4 exiting successfully. Buy a developer a beer!
