                               Psi4 1.3.2 release

  ==> Input File <==

--------------------------------------------------------------------------
#psi4
#
memory 32 gb

molecule  {
0 1
  C        0.0000000     0.4159560     0.0000000
  H       -0.3340900     1.4603970     0.0000000
  N        1.2099968    -0.0215078     0.0000000
  H        1.8415280     0.8339110     0.0000000
  N       -1.0366190    -0.4720110     0.0000000
  H       -0.8260900    -1.4592660     0.0000000
  H       -1.9967030    -0.1736100     0.0000000
units angstrom
no_reorient  #important for SAPT in psi4, default
symmetry c1  #important for SAPT in psi4, default
}

set PROPERTIES_ORIGIN ["COM"]
properties('MP2/aug-cc-pvtz', properties = ['dipole'])
--------------------------------------------------------------------------

    Molecular point group: c1
  Charge       = 0
  Multiplicity = 1
  Basis Set: AUG-CC-PVTZ
    Blend: AUG-CC-PVTZ
  Basis Set: (AUG-CC-PVTZ AUX)
    Blend: AUG-CC-PVTZ-JKFIT

    Orbital Energies [Eh]
    ---------------------

    Doubly Occupied:

       1A    -15.575867     2A    -15.529534     3A    -11.317659
       4A     -1.254655     5A     -1.131326     6A     -0.826032
       7A     -0.739998     8A     -0.633841     9A     -0.604491
      10A     -0.525829    11A     -0.427402    12A     -0.360049

  @DF-RHF Final Energy:  -149.13954026667267

   => Energetics <=

    Nuclear Repulsion Energy =             71.9344036360954249
    One-Electron Energy =                -344.2945209858779663
    Two-Electron Energy =                 123.2205770831098448
    Total Energy =                       -149.1395402666726682
  Basis Set: (AUG-CC-PVTZ AUX)
    Blend: AUG-CC-PVTZ-RI
    Molecular point group: c1

    Geometry (in Angstrom), charge = 0, multiplicity = 1:

       Center              X                  Y                   Z               Mass
    ------------   -----------------  -----------------  -----------------  -----------------
         C           -0.025028118464     0.444402256657     0.000000000000    12.000000000000
         H           -0.359118118464     1.488843256657     0.000000000000     1.007825032230
         N            1.184968681536     0.006938456657     0.000000000000    14.003074004430
         H            1.816499881536     0.862357256657     0.000000000000     1.007825032230
         N           -1.061647118464    -0.443564743343     0.000000000000    14.003074004430
         H           -0.851118118464    -1.430819743343     0.000000000000     1.007825032230
         H           -2.021731118464    -0.145163743343     0.000000000000     1.007825032230

  Basis Set: AUG-CC-PVTZ
    Blend: AUG-CC-PVTZ
  Basis Set: (AUG-CC-PVTZ AUX)
    Blend: AUG-CC-PVTZ-JKFIT
	 Reference Energy          =    -149.1395402666726682 [Eh]
	 Singles Energy            =      -0.0000000000000000 [Eh]
	 Same-Spin Energy          =      -0.1522841072123480 [Eh]
	 Opposite-Spin Energy      =      -0.4933657356981634 [Eh]
	 Correlation Energy        =      -0.6456498429105115 [Eh]
	 Total Energy              =    -149.7851901095831693 [Eh]

	 ================> DF-SCS-MP2 Energies <==================
	-----------------------------------------------------------
	 SCS Same-Spin Scale       =       0.3333333333333333 [-]
	 SCS Opposite-Spin Scale   =       1.2000000000000000 [-]
	 SCS Same-Spin Energy      =      -0.0507613690707827 [Eh]
	 SCS Opposite-Spin Energy  =      -0.5920388828377962 [Eh]
	 SCS Correlation Energy    =      -0.6428002519085788 [Eh]
	 SCS Total Energy          =    -149.7823405185812362 [Eh]
	-----------------------------------------------------------

  Dipole Moment: [D]
     X:    -2.5323      Y:     1.2061      Z:     0.0000     Total:     2.8049

*** Psi4 exiting successfully. Buy a developer a beer!
