                               Psi4 1.4a3.dev225

  ==> Input File <==

--------------------------------------------------------------------------
#psi4
#
memory 32 gb

molecule  {
0 1
  C       -0.1211700     0.4020020    -0.0021590
  H       -0.1135610     1.4981820    -0.0182380
  N       -1.1549877    -0.3258382     0.0189767
  H       -2.0047150     0.2528190    -0.0022480
  N        1.1420860    -0.1478600    -0.0823680
  H        1.8904430     0.3751290     0.3530900
  H        1.1596200    -1.1416750     0.1217560
units angstrom
no_reorient  #important for SAPT in psi4, default
symmetry c1  #important for SAPT in psi4, default
}

set PROPERTIES_ORIGIN ["COM"]
properties('MP2/aug-cc-pvtz', properties = ['dipole'])
--------------------------------------------------------------------------

    Molecular point group: c1
  Charge       = 0
  Multiplicity = 1
  Basis Set: AUG-CC-PVTZ
    Blend: AUG-CC-PVTZ
  Basis Set: (AUG-CC-PVTZ AUX)
    Blend: AUG-CC-PVTZ-JKFIT

    Orbital Energies [Eh]
    ---------------------

    Doubly Occupied:

       1A    -15.574766     2A    -15.531060     3A    -11.313878
       4A     -1.258222     5A     -1.142957     6A     -0.820329
       7A     -0.736279     8A     -0.628380     9A     -0.620561
      10A     -0.526542    11A     -0.425951    12A     -0.375948

  @DF-RHF Final Energy:  -149.14432627066222

   => Energetics <=

    Nuclear Repulsion Energy =             72.1967361939290981
    One-Electron Energy =                -344.7723769920997938
    Two-Electron Energy =                 123.4313145275084764
    Total Energy =                       -149.1443262706622193
  Basis Set: (AUG-CC-PVTZ AUX)
    Blend: AUG-CC-PVTZ-RI
    Molecular point group: c1

    Geometry (in Angstrom), charge = 0, multiplicity = 1:

       Center              X                  Y                   Z               Mass
    ------------   -----------------  -----------------  -----------------  -----------------
         C           -0.105373780510     0.420555494646     0.008188231794    12.000000000000
         H           -0.097764780510     1.516735494646    -0.007890768206     1.007825032230
         N           -1.139191480510    -0.307284705354     0.029323931794    14.003074004430
         H           -1.988918780510     0.271372494646     0.008099231794     1.007825032230
         N            1.157882219490    -0.129306505354    -0.072020768206    14.003074004430
         H            1.906239219490     0.393682494646     0.363437231794     1.007825032230
         H            1.175416219490    -1.123121505354     0.132103231794     1.007825032230

  Basis Set: AUG-CC-PVTZ
    Blend: AUG-CC-PVTZ
  Basis Set: (AUG-CC-PVTZ AUX)
    Blend: AUG-CC-PVTZ-JKFIT
	 Reference Energy          =    -149.1443262706622193 [Eh]
	 Singles Energy            =      -0.0000000000000000 [Eh]
	 Same-Spin Energy          =      -0.1513082502382166 [Eh]
	 Opposite-Spin Energy      =      -0.4918370794379807 [Eh]
	 Correlation Energy        =      -0.6431453296761973 [Eh]
	 Total Energy              =    -149.7874716003384208 [Eh]

	 ================> DF-SCS-MP2 Energies <==================
	-----------------------------------------------------------
	 SCS Same-Spin Scale       =       0.3333333333333333 [-]
	 SCS Opposite-Spin Scale   =       1.2000000000000000 [-]
	 SCS Same-Spin Energy      =      -0.0504360834127389 [Eh]
	 SCS Opposite-Spin Energy  =      -0.5902044953255768 [Eh]
	 SCS Correlation Energy    =      -0.6406405787383157 [Eh]
	 SCS Total Energy          =    -149.7849668494005471 [Eh]
	-----------------------------------------------------------

  Dipole Moment: [D]
     X:     1.4983      Y:     1.7757      Z:     0.8727     Total:     2.4819

*** Psi4 exiting successfully. Buy a developer a beer!
