                               Psi4 1.3.2 release

  ==> Input File <==

--------------------------------------------------------------------------
#psi4
#
memory 32 gb

molecule  {
0 1
  C       -0.1211700     0.4020020    -0.0021590
  H       -0.1135610     1.4981820    -0.0182380
  N       -1.1713390    -0.3373500     0.0193110
  H       -2.0455103     0.2817089    -0.0033034
  N        1.1420860    -0.1478600    -0.0823680
  H        1.8904430     0.3751290     0.3530900
  H        1.1596200    -1.1416750     0.1217560
units angstrom
no_reorient  #important for SAPT in psi4, default
symmetry c1  #important for SAPT in psi4, default
}

set PROPERTIES_ORIGIN ["COM"]
properties('MP2/aug-cc-pvtz', properties = ['dipole'])
--------------------------------------------------------------------------

    Molecular point group: c1
  Charge       = 0
  Multiplicity = 1
  Basis Set: AUG-CC-PVTZ
    Blend: AUG-CC-PVTZ
  Basis Set: (AUG-CC-PVTZ AUX)
    Blend: AUG-CC-PVTZ-JKFIT

    Orbital Energies [Eh]
    ---------------------

    Doubly Occupied:

       1A    -15.577549     2A    -15.538429     3A    -11.318036
       4A     -1.254450     5A     -1.135082     6A     -0.820075
       7A     -0.731931     8A     -0.626888     9A     -0.613197
      10A     -0.524734    11A     -0.426067    12A     -0.373326

  @DF-RHF Final Energy:  -149.13980904343953

   => Energetics <=

    Nuclear Repulsion Energy =             71.6105463527668462
    One-Electron Energy =                -343.6211807698170446
    Two-Electron Energy =                 122.8708253736106855
    Total Energy =                       -149.1398090434395272
  Basis Set: (AUG-CC-PVTZ AUX)
    Blend: AUG-CC-PVTZ-RI
    Molecular point group: c1

    Geometry (in Angstrom), charge = 0, multiplicity = 1:

       Center              X                  Y                   Z               Mass
    ------------   -----------------  -----------------  -----------------  -----------------
         C           -0.099240750556     0.423554865148     0.008106084230    12.000000000000
         H           -0.091631750556     1.519734865148    -0.007972915770     1.007825032230
         N           -1.149409750556    -0.315797134852     0.029576084230    14.003074004430
         H           -2.023581050556     0.303261765148     0.006961684230     1.007825032230
         N            1.164015249444    -0.126307134852    -0.072102915770    14.003074004430
         H            1.912372249444     0.396681865148     0.363355084230     1.007825032230
         H            1.181549249444    -1.120122134852     0.132021084230     1.007825032230

  Basis Set: AUG-CC-PVTZ
    Blend: AUG-CC-PVTZ
  Basis Set: (AUG-CC-PVTZ AUX)
    Blend: AUG-CC-PVTZ-JKFIT
	 Reference Energy          =    -149.1398090434395272 [Eh]
	 Singles Energy            =      -0.0000000000000000 [Eh]
	 Same-Spin Energy          =      -0.1518339715437841 [Eh]
	 Opposite-Spin Energy      =      -0.4935720146631851 [Eh]
	 Correlation Energy        =      -0.6454059862069692 [Eh]
	 Total Energy              =    -149.7852150296465084 [Eh]

	 ================> DF-SCS-MP2 Energies <==================
	-----------------------------------------------------------
	 SCS Same-Spin Scale       =       0.3333333333333333 [-]
	 SCS Opposite-Spin Scale   =       1.2000000000000000 [-]
	 SCS Same-Spin Energy      =      -0.0506113238479280 [Eh]
	 SCS Opposite-Spin Energy  =      -0.5922864175958221 [Eh]
	 SCS Correlation Energy    =      -0.6428977414437502 [Eh]
	 SCS Total Energy          =    -149.7827067848832883 [Eh]
	-----------------------------------------------------------

  Dipole Moment: [D]
     X:     1.5945      Y:     1.7987      Z:     0.8683     Total:     2.5557

*** Psi4 exiting successfully. Buy a developer a beer!
