                               Psi4 1.4a3.dev225

  ==> Input File <==

--------------------------------------------------------------------------
#psi4
#
memory 32 gb

molecule  {
0 1
  C       -0.1211700     0.4020020    -0.0021590
  H       -0.1135610     1.4981820    -0.0182380
  N       -1.1713390    -0.3373500     0.0193110
  H       -2.0047150     0.2528190    -0.0022480
  N        1.1420860    -0.1478600    -0.0823680
  H        1.8534514     0.3492774     0.3315651
  H        1.1596200    -1.1416750     0.1217560
units angstrom
no_reorient  #important for SAPT in psi4, default
symmetry c1  #important for SAPT in psi4, default
}

set PROPERTIES_ORIGIN ["COM"]
properties('MP2/aug-cc-pvtz', properties = ['dipole'])
--------------------------------------------------------------------------

    Molecular point group: c1
  Charge       = 0
  Multiplicity = 1
  Basis Set: AUG-CC-PVTZ
    Blend: AUG-CC-PVTZ
  Basis Set: (AUG-CC-PVTZ AUX)
    Blend: AUG-CC-PVTZ-JKFIT

    Orbital Energies [Eh]
    ---------------------

    Doubly Occupied:

       1A    -15.572267     2A    -15.532847     3A    -11.318330
       4A     -1.259406     5A     -1.144378     6A     -0.826024
       7A     -0.744553     8A     -0.628483     9A     -0.624551
      10A     -0.525387    11A     -0.428293    12A     -0.374133

  @DF-RHF Final Energy:  -149.14263519574604

   => Energetics <=

    Nuclear Repulsion Energy =             72.0839546869495820
    One-Electron Energy =                -344.4958781499391307
    Two-Electron Energy =                 123.2692882672434962
    Total Energy =                       -149.1426351957460383
  Basis Set: (AUG-CC-PVTZ AUX)
    Blend: AUG-CC-PVTZ-RI
    Molecular point group: c1

    Geometry (in Angstrom), charge = 0, multiplicity = 1:

       Center              X                  Y                   Z               Mass
    ------------   -----------------  -----------------  -----------------  -----------------
         C           -0.099327800652     0.424807659221     0.008574541767    12.000000000000
         H           -0.091718800652     1.520987659221    -0.007504458233     1.007825032230
         N           -1.149496800652    -0.314544340779     0.030044541767    14.003074004430
         H           -1.982872800652     0.275624659221     0.008485541767     1.007825032230
         N            1.163928199348    -0.125054340779    -0.071634458233    14.003074004430
         H            1.875293599348     0.372083059221     0.342298641767     1.007825032230
         H            1.181462199348    -1.118869340779     0.132489541767     1.007825032230

  Basis Set: AUG-CC-PVTZ
    Blend: AUG-CC-PVTZ
  Basis Set: (AUG-CC-PVTZ AUX)
    Blend: AUG-CC-PVTZ-JKFIT
	 Reference Energy          =    -149.1426351957460383 [Eh]
	 Singles Energy            =      -0.0000000000000000 [Eh]
	 Same-Spin Energy          =      -0.1513254426219351 [Eh]
	 Opposite-Spin Energy      =      -0.4919528404269096 [Eh]
	 Correlation Energy        =      -0.6432782830488447 [Eh]
	 Total Energy              =    -149.7859134787948960 [Eh]

	 ================> DF-SCS-MP2 Energies <==================
	-----------------------------------------------------------
	 SCS Same-Spin Scale       =       0.3333333333333333 [-]
	 SCS Opposite-Spin Scale   =       1.2000000000000000 [-]
	 SCS Same-Spin Energy      =      -0.0504418142073117 [Eh]
	 SCS Opposite-Spin Energy  =      -0.5903434085122915 [Eh]
	 SCS Correlation Energy    =      -0.6407852227196033 [Eh]
	 SCS Total Energy          =    -149.7834204184656528 [Eh]
	-----------------------------------------------------------

  Dipole Moment: [D]
     X:     1.5724      Y:     1.7836      Z:     0.8554     Total:     2.5270

*** Psi4 exiting successfully. Buy a developer a beer!
