                               Psi4 1.4a3.dev225

  ==> Input File <==

--------------------------------------------------------------------------
#psi4
#
memory 32 gb

molecule  {
0 1
  C       -0.1211700     0.4020020    -0.0021590
  H       -0.1135610     1.4981820    -0.0182380
  N       -1.1713390    -0.3373500     0.0193110
  H       -2.0047150     0.2528190    -0.0022480
  N        1.1237789    -0.1398914    -0.0812056
  H        1.8904430     0.3751290     0.3530900
  H        1.1596200    -1.1416750     0.1217560
units angstrom
no_reorient  #important for SAPT in psi4, default
symmetry c1  #important for SAPT in psi4, default
}

set PROPERTIES_ORIGIN ["COM"]
properties('MP2/aug-cc-pvtz', properties = ['dipole'])
--------------------------------------------------------------------------

    Molecular point group: c1
  Charge       = 0
  Multiplicity = 1
  Basis Set: AUG-CC-PVTZ
    Blend: AUG-CC-PVTZ
  Basis Set: (AUG-CC-PVTZ AUX)
    Blend: AUG-CC-PVTZ-JKFIT

    Orbital Energies [Eh]
    ---------------------

    Doubly Occupied:

       1A    -15.579314     2A    -15.529542     3A    -11.315990
       4A     -1.259764     5A     -1.138303     6A     -0.825023
       7A     -0.735839     8A     -0.630948     9A     -0.614217
      10A     -0.528223    11A     -0.426435    12A     -0.371005

  @DF-RHF Final Energy:  -149.14273767136396

   => Energetics <=

    Nuclear Repulsion Energy =             72.1179321738697041
    One-Electron Energy =                -344.6121339425655492
    Two-Electron Energy =                 123.3514640973318990
    Total Energy =                       -149.1427376713639603
  Basis Set: (AUG-CC-PVTZ AUX)
    Blend: AUG-CC-PVTZ-RI
    Molecular point group: c1

    Geometry (in Angstrom), charge = 0, multiplicity = 1:

       Center              X                  Y                   Z               Mass
    ------------   -----------------  -----------------  -----------------  -----------------
         C           -0.094353066081     0.421682165103     0.007712309556    12.000000000000
         H           -0.086744066081     1.517862165103    -0.008366690444     1.007825032230
         N           -1.144522066081    -0.317669834897     0.029182309556    14.003074004430
         H           -1.977898066081     0.272499165103     0.007623309556     1.007825032230
         N            1.150595833919    -0.120211234897    -0.071334290444    14.003074004430
         H            1.917259933919     0.394809165103     0.362961309556     1.007825032230
         H            1.186436933919    -1.121994834897     0.131627309556     1.007825032230

  Basis Set: AUG-CC-PVTZ
    Blend: AUG-CC-PVTZ
  Basis Set: (AUG-CC-PVTZ AUX)
    Blend: AUG-CC-PVTZ-JKFIT
	 Reference Energy          =    -149.1427376713639603 [Eh]
	 Singles Energy            =      -0.0000000000000000 [Eh]
	 Same-Spin Energy          =      -0.1517683679935619 [Eh]
	 Opposite-Spin Energy      =      -0.4927047082799232 [Eh]
	 Correlation Energy        =      -0.6444730762734852 [Eh]
	 Total Energy              =    -149.7872107476374595 [Eh]

	 ================> DF-SCS-MP2 Energies <==================
	-----------------------------------------------------------
	 SCS Same-Spin Scale       =       0.3333333333333333 [-]
	 SCS Opposite-Spin Scale   =       1.2000000000000000 [-]
	 SCS Same-Spin Energy      =      -0.0505894559978540 [Eh]
	 SCS Opposite-Spin Energy  =      -0.5912456499359078 [Eh]
	 SCS Correlation Energy    =      -0.6418351059337617 [Eh]
	 SCS Total Energy          =    -149.7845727772977114 [Eh]
	-----------------------------------------------------------

  Dipole Moment: [D]
     X:     1.7305      Y:     1.7842      Z:     0.8562     Total:     2.6289

*** Psi4 exiting successfully. Buy a developer a beer!
