                               Psi4 1.3.2 release

  ==> Input File <==

--------------------------------------------------------------------------
#psi4
#
memory 32 gb

molecule  {
0 1
  C        0.0000000     0.4159560     0.0000000
  H       -0.3340900     1.4603970     0.0000000
  N        1.1765334    -0.1048472     0.0000000
  H        1.8415280     0.8339110     0.0000000
  N       -1.0366190    -0.4720110     0.0000000
  H       -0.8260900    -1.4592660     0.0000000
  H       -1.9967030    -0.1736100     0.0000000
units angstrom
no_reorient  #important for SAPT in psi4, default
symmetry c1  #important for SAPT in psi4, default
}

set PROPERTIES_ORIGIN ["COM"]
properties('MP2/aug-cc-pvtz', properties = ['dipole'])
--------------------------------------------------------------------------

    Molecular point group: c1
  Charge       = 0
  Multiplicity = 1
  Basis Set: AUG-CC-PVTZ
    Blend: AUG-CC-PVTZ
  Basis Set: (AUG-CC-PVTZ AUX)
    Blend: AUG-CC-PVTZ-JKFIT

    Orbital Energies [Eh]
    ---------------------

    Doubly Occupied:

       1A    -15.572327     2A    -15.540823     3A    -11.318207
       4A     -1.256904     5A     -1.123001     6A     -0.823512
       7A     -0.734604     8A     -0.635043     9A     -0.578094
      10A     -0.526588    11A     -0.433910    12A     -0.358477

  @DF-RHF Final Energy:  -149.12341281358738

   => Energetics <=

    Nuclear Repulsion Energy =             71.9436009483621035
    One-Electron Energy =                -344.3310467164633337
    Two-Electron Energy =                 123.2640329545138229
    Total Energy =                       -149.1234128135873789
  Basis Set: (AUG-CC-PVTZ AUX)
    Blend: AUG-CC-PVTZ-RI
    Molecular point group: c1

    Geometry (in Angstrom), charge = 0, multiplicity = 1:

       Center              X                  Y                   Z               Mass
    ------------   -----------------  -----------------  -----------------  -----------------
         C           -0.014387391391     0.470902606588     0.000000000000    12.000000000000
         H           -0.348477391391     1.515343606588     0.000000000000     1.007825032230
         N            1.162146008609    -0.049900593412     0.000000000000    14.003074004430
         H            1.827140608609     0.888857606588     0.000000000000     1.007825032230
         N           -1.051006391391    -0.417064393412     0.000000000000    14.003074004430
         H           -0.840477391391    -1.404319393412     0.000000000000     1.007825032230
         H           -2.011090391391    -0.118663393412     0.000000000000     1.007825032230

  Basis Set: AUG-CC-PVTZ
    Blend: AUG-CC-PVTZ
  Basis Set: (AUG-CC-PVTZ AUX)
    Blend: AUG-CC-PVTZ-JKFIT
	 Reference Energy          =    -149.1234128135873789 [Eh]
	 Singles Energy            =      -0.0000000000000000 [Eh]
	 Same-Spin Energy          =      -0.1532351051756265 [Eh]
	 Opposite-Spin Energy      =      -0.4959688948340170 [Eh]
	 Correlation Energy        =      -0.6492040000096435 [Eh]
	 Total Energy              =    -149.7726168135970113 [Eh]

	 ================> DF-SCS-MP2 Energies <==================
	-----------------------------------------------------------
	 SCS Same-Spin Scale       =       0.3333333333333333 [-]
	 SCS Opposite-Spin Scale   =       1.2000000000000000 [-]
	 SCS Same-Spin Energy      =      -0.0510783683918755 [Eh]
	 SCS Opposite-Spin Energy  =      -0.5951626738008204 [Eh]
	 SCS Correlation Energy    =      -0.6462410421926960 [Eh]
	 SCS Total Energy          =    -149.7696538557800636 [Eh]
	-----------------------------------------------------------

  Dipole Moment: [D]
     X:    -2.4791      Y:     1.3269      Z:    -0.0000     Total:     2.8119

*** Psi4 exiting successfully. Buy a developer a beer!
