                               Psi4 1.4a3.dev225

  ==> Input File <==

--------------------------------------------------------------------------
#psi4
#
memory 32 gb

molecule  {
0 1
  C       -0.1211700     0.4020020    -0.0021590
  H       -0.1135610     1.4981820    -0.0182380
  N       -1.1304607    -0.3085704     0.0184753
  H       -2.0047150     0.2528190    -0.0022480
  N        1.1420860    -0.1478600    -0.0823680
  H        1.8904430     0.3751290     0.3530900
  H        1.1596200    -1.1416750     0.1217560
units angstrom
no_reorient  #important for SAPT in psi4, default
symmetry c1  #important for SAPT in psi4, default
}

set PROPERTIES_ORIGIN ["COM"]
properties('MP2/aug-cc-pvtz', properties = ['dipole'])
--------------------------------------------------------------------------

    Molecular point group: c1
  Charge       = 0
  Multiplicity = 1
  Basis Set: AUG-CC-PVTZ
    Blend: AUG-CC-PVTZ
  Basis Set: (AUG-CC-PVTZ AUX)
    Blend: AUG-CC-PVTZ-JKFIT

    Orbital Energies [Eh]
    ---------------------

    Doubly Occupied:

       1A    -15.570830     2A    -15.528574     3A    -11.307242
       4A     -1.263585     5A     -1.147149     6A     -0.815815
       7A     -0.737117     8A     -0.630271     9A     -0.621219
      10A     -0.529844    11A     -0.422582    12A     -0.379509

  @DF-RHF Final Energy:  -149.14358604478966

   => Energetics <=

    Nuclear Repulsion Energy =             72.7570216737229600
    One-Electron Energy =                -345.8937412582517368
    Two-Electron Energy =                 123.9931335397391479
    Total Energy =                       -149.1435860447896573
  Basis Set: (AUG-CC-PVTZ AUX)
    Blend: AUG-CC-PVTZ-RI
    Molecular point group: c1

    Geometry (in Angstrom), charge = 0, multiplicity = 1:

       Center              X                  Y                   Z               Mass
    ------------   -----------------  -----------------  -----------------  -----------------
         C           -0.113172901727     0.415064661469     0.008347667492    12.000000000000
         H           -0.105563901727     1.511244661469    -0.007731332508     1.007825032230
         N           -1.122463601727    -0.295507738531     0.028981967492    14.003074004430
         H           -1.996717901727     0.265881661469     0.008258667492     1.007825032230
         N            1.150083098273    -0.134797338531    -0.071861332508    14.003074004430
         H            1.898440098273     0.388191661469     0.363596667492     1.007825032230
         H            1.167617098273    -1.128612338531     0.132262667492     1.007825032230

  Basis Set: AUG-CC-PVTZ
    Blend: AUG-CC-PVTZ
  Basis Set: (AUG-CC-PVTZ AUX)
    Blend: AUG-CC-PVTZ-JKFIT
	 Reference Energy          =    -149.1435860447896573 [Eh]
	 Singles Energy            =      -0.0000000000000000 [Eh]
	 Same-Spin Energy          =      -0.1509537834539804 [Eh]
	 Opposite-Spin Energy      =      -0.4906719315993874 [Eh]
	 Correlation Energy        =      -0.6416257150533677 [Eh]
	 Total Energy              =    -149.7852117598430368 [Eh]

	 ================> DF-SCS-MP2 Energies <==================
	-----------------------------------------------------------
	 SCS Same-Spin Scale       =       0.3333333333333333 [-]
	 SCS Opposite-Spin Scale   =       1.2000000000000000 [-]
	 SCS Same-Spin Energy      =      -0.0503179278179935 [Eh]
	 SCS Opposite-Spin Energy  =      -0.5888063179192649 [Eh]
	 SCS Correlation Energy    =      -0.6391242457372583 [Eh]
	 SCS Total Energy          =    -149.7827102905269214 [Eh]
	-----------------------------------------------------------

  Dipole Moment: [D]
     X:     1.3344      Y:     1.7318      Z:     0.8795     Total:     2.3565

*** Psi4 exiting successfully. Buy a developer a beer!
