                               Psi4 1.3.2 release

  ==> Input File <==

--------------------------------------------------------------------------
#psi4
#
memory 32 gb

molecule  {
0 1
  C        0.0000000     0.4159560     0.0000000
  H       -0.3522671     1.4544073     0.0000000
  N        1.2245270     0.0209870     0.0000000
  H        1.8415280     0.8339110     0.0000000
  N       -1.0366190    -0.4720110     0.0000000
  H       -0.8260900    -1.4592660     0.0000000
  H       -1.9967030    -0.1736100     0.0000000
units angstrom
no_reorient  #important for SAPT in psi4, default
symmetry c1  #important for SAPT in psi4, default
}

set PROPERTIES_ORIGIN ["COM"]
properties('MP2/aug-cc-pvtz', properties = ['dipole'])
--------------------------------------------------------------------------

    Molecular point group: c1
  Charge       = 0
  Multiplicity = 1
  Basis Set: AUG-CC-PVTZ
    Blend: AUG-CC-PVTZ
  Basis Set: (AUG-CC-PVTZ AUX)
    Blend: AUG-CC-PVTZ-JKFIT

    Orbital Energies [Eh]
    ---------------------

    Doubly Occupied:

       1A    -15.577545     2A    -15.524124     3A    -11.318085
       4A     -1.254113     5A     -1.135914     6A     -0.829313
       7A     -0.742844     8A     -0.632621     9A     -0.618206
      10A     -0.525746    11A     -0.423416    12A     -0.361078

  @DF-RHF Final Energy:  -149.14304383035955

   => Energetics <=

    Nuclear Repulsion Energy =             71.9591334208799367
    One-Electron Energy =                -344.3183396405051440
    Two-Electron Energy =                 123.2161623892656479
    Total Energy =                       -149.1430438303595452
  Basis Set: (AUG-CC-PVTZ AUX)
    Blend: AUG-CC-PVTZ-RI
    Molecular point group: c1

    Geometry (in Angstrom), charge = 0, multiplicity = 1:

       Center              X                  Y                   Z               Mass
    ------------   -----------------  -----------------  -----------------  -----------------
         C           -0.029232452215     0.431026793625     0.000000000000    12.000000000000
         H           -0.381499552215     1.469478093625     0.000000000000     1.007825032230
         N            1.195294547785     0.036057793625     0.000000000000    14.003074004430
         H            1.812295547785     0.848981793625     0.000000000000     1.007825032230
         N           -1.065851452215    -0.456940206375     0.000000000000    14.003074004430
         H           -0.855322452215    -1.444195206375     0.000000000000     1.007825032230
         H           -2.025935452215    -0.158539206375     0.000000000000     1.007825032230

  Basis Set: AUG-CC-PVTZ
    Blend: AUG-CC-PVTZ
  Basis Set: (AUG-CC-PVTZ AUX)
    Blend: AUG-CC-PVTZ-JKFIT
	 Reference Energy          =    -149.1430438303595452 [Eh]
	 Singles Energy            =      -0.0000000000000000 [Eh]
	 Same-Spin Energy          =      -0.1519180737866596 [Eh]
	 Opposite-Spin Energy      =      -0.4923602609310388 [Eh]
	 Correlation Energy        =      -0.6442783347176984 [Eh]
	 Total Energy              =    -149.7873221650772564 [Eh]

	 ================> DF-SCS-MP2 Energies <==================
	-----------------------------------------------------------
	 SCS Same-Spin Scale       =       0.3333333333333333 [-]
	 SCS Opposite-Spin Scale   =       1.2000000000000000 [-]
	 SCS Same-Spin Energy      =      -0.0506393579288865 [Eh]
	 SCS Opposite-Spin Energy  =      -0.5908323131172465 [Eh]
	 SCS Correlation Energy    =      -0.6414716710461330 [Eh]
	 SCS Total Energy          =    -149.7845155014056786 [Eh]
	-----------------------------------------------------------

  Dipole Moment: [D]
     X:    -2.5619      Y:     1.1307      Z:     0.0000     Total:     2.8003

*** Psi4 exiting successfully. Buy a developer a beer!
