                               Psi4 1.3.2 release

  ==> Input File <==

--------------------------------------------------------------------------
#psi4
#
memory 32 gb

molecule  {
0 1
  C        0.0000000     0.4159560     0.0000000
  H       -0.3340900     1.4603970     0.0000000
  N        1.1293552     0.0516845     0.0000000
  H        1.8415280     0.8339110     0.0000000
  N       -1.0366190    -0.4720110     0.0000000
  H       -0.8260900    -1.4592660     0.0000000
  H       -1.9967030    -0.1736100     0.0000000
units angstrom
no_reorient  #important for SAPT in psi4, default
symmetry c1  #important for SAPT in psi4, default
}

set PROPERTIES_ORIGIN ["COM"]
properties('MP2/aug-cc-pvtz', properties = ['dipole'])
--------------------------------------------------------------------------

    Molecular point group: c1
  Charge       = 0
  Multiplicity = 1
  Basis Set: AUG-CC-PVTZ
    Blend: AUG-CC-PVTZ
  Basis Set: (AUG-CC-PVTZ AUX)
    Blend: AUG-CC-PVTZ-JKFIT

    Orbital Energies [Eh]
    ---------------------

    Doubly Occupied:

       1A    -15.563394     2A    -15.516149     3A    -11.295633
       4A     -1.272541     5A     -1.149942     6A     -0.813013
       7A     -0.743400     8A     -0.634925     9A     -0.626824
      10A     -0.537775    11A     -0.412478    12A     -0.371490

  @DF-RHF Final Energy:  -149.13491948579582

   => Energetics <=

    Nuclear Repulsion Energy =             73.8612887892152941
    One-Electron Energy =                -348.1172884806254615
    Two-Electron Energy =                 125.1210802056143478
    Total Energy =                       -149.1349194857958196
  Basis Set: (AUG-CC-PVTZ AUX)
    Blend: AUG-CC-PVTZ-RI
    Molecular point group: c1

    Geometry (in Angstrom), charge = 0, multiplicity = 1:

       Center              X                  Y                   Z               Mass
    ------------   -----------------  -----------------  -----------------  -----------------
         C            0.000614382189     0.421128492241     0.000000000000    12.000000000000
         H           -0.333475617811     1.465569492241     0.000000000000     1.007825032230
         N            1.129969582189     0.056856992241     0.000000000000    14.003074004430
         H            1.842142382189     0.839083492241     0.000000000000     1.007825032230
         N           -1.036004617811    -0.466838507759     0.000000000000    14.003074004430
         H           -0.825475617811    -1.454093507759     0.000000000000     1.007825032230
         H           -1.996088617811    -0.168437507759     0.000000000000     1.007825032230

  Basis Set: AUG-CC-PVTZ
    Blend: AUG-CC-PVTZ
  Basis Set: (AUG-CC-PVTZ AUX)
    Blend: AUG-CC-PVTZ-JKFIT
	 Reference Energy          =    -149.1349194857958196 [Eh]
	 Singles Energy            =      -0.0000000000000000 [Eh]
	 Same-Spin Energy          =      -0.1508600091191728 [Eh]
	 Opposite-Spin Energy      =      -0.4887110699870011 [Eh]
	 Correlation Energy        =      -0.6395710791061738 [Eh]
	 Total Energy              =    -149.7744905649019813 [Eh]

	 ================> DF-SCS-MP2 Energies <==================
	-----------------------------------------------------------
	 SCS Same-Spin Scale       =       0.3333333333333333 [-]
	 SCS Opposite-Spin Scale   =       1.2000000000000000 [-]
	 SCS Same-Spin Energy      =      -0.0502866697063909 [Eh]
	 SCS Opposite-Spin Energy  =      -0.5864532839844013 [Eh]
	 SCS Correlation Energy    =      -0.6367399536907923 [Eh]
	 SCS Total Energy          =    -149.7716594394865979 [Eh]
	-----------------------------------------------------------

  Dipole Moment: [D]
     X:    -1.9481      Y:     1.1597      Z:    -0.0000     Total:     2.2672

*** Psi4 exiting successfully. Buy a developer a beer!
