                               Psi4 1.3.2 release

  ==> Input File <==

--------------------------------------------------------------------------
#psi4
#
memory 32 gb

molecule  {
0 1
  C        0.0000000     0.4159560     0.0000000
  H       -0.4061327     1.4345479     0.0000000
  N        1.2245270     0.0209870     0.0000000
  H        1.8415280     0.8339110     0.0000000
  N       -1.0366190    -0.4720110     0.0000000
  H       -0.8260900    -1.4592660     0.0000000
  H       -1.9967030    -0.1736100     0.0000000
units angstrom
no_reorient  #important for SAPT in psi4, default
symmetry c1  #important for SAPT in psi4, default
}

set PROPERTIES_ORIGIN ["COM"]
properties('MP2/aug-cc-pvtz', properties = ['dipole'])
--------------------------------------------------------------------------

    Molecular point group: c1
  Charge       = 0
  Multiplicity = 1
  Basis Set: AUG-CC-PVTZ
    Blend: AUG-CC-PVTZ
  Basis Set: (AUG-CC-PVTZ AUX)
    Blend: AUG-CC-PVTZ-JKFIT

    Orbital Energies [Eh]
    ---------------------

    Doubly Occupied:

       1A    -15.576799     2A    -15.525112     3A    -11.318608
       4A     -1.254410     5A     -1.135908     6A     -0.831312
       7A     -0.743101     8A     -0.628119     9A     -0.619250
      10A     -0.525714    11A     -0.424844    12A     -0.361291

  @DF-RHF Final Energy:  -149.14193883478936

   => Energetics <=

    Nuclear Repulsion Energy =             71.9723422541758708
    One-Electron Energy =                -344.3396284107548695
    Two-Electron Energy =                 123.2253473217896129
    Total Energy =                       -149.1419388347893573
  Basis Set: (AUG-CC-PVTZ AUX)
    Blend: AUG-CC-PVTZ-RI
    Molecular point group: c1

    Geometry (in Angstrom), charge = 0, multiplicity = 1:

       Center              X                  Y                   Z               Mass
    ------------   -----------------  -----------------  -----------------  -----------------
         C           -0.027999703671     0.431481288635     0.000000000000    12.000000000000
         H           -0.434132403671     1.450073188635     0.000000000000     1.007825032230
         N            1.196527296329     0.036512288635     0.000000000000    14.003074004430
         H            1.813528296329     0.849436288635     0.000000000000     1.007825032230
         N           -1.064618703671    -0.456485711365     0.000000000000    14.003074004430
         H           -0.854089703671    -1.443740711365     0.000000000000     1.007825032230
         H           -2.024702703671    -0.158084711365     0.000000000000     1.007825032230

  Basis Set: AUG-CC-PVTZ
    Blend: AUG-CC-PVTZ
  Basis Set: (AUG-CC-PVTZ AUX)
    Blend: AUG-CC-PVTZ-JKFIT
	 Reference Energy          =    -149.1419388347893573 [Eh]
	 Singles Energy            =      -0.0000000000000000 [Eh]
	 Same-Spin Energy          =      -0.1520398727159802 [Eh]
	 Opposite-Spin Energy      =      -0.4925860347280439 [Eh]
	 Correlation Energy        =      -0.6446259074440241 [Eh]
	 Total Energy              =    -149.7865647422333950 [Eh]

	 ================> DF-SCS-MP2 Energies <==================
	-----------------------------------------------------------
	 SCS Same-Spin Scale       =       0.3333333333333333 [-]
	 SCS Opposite-Spin Scale   =       1.2000000000000000 [-]
	 SCS Same-Spin Energy      =      -0.0506799575719934 [Eh]
	 SCS Opposite-Spin Energy  =      -0.5911032416736527 [Eh]
	 SCS Correlation Energy    =      -0.6417831992456461 [Eh]
	 SCS Total Energy          =    -149.7837220340350086 [Eh]
	-----------------------------------------------------------

  Dipole Moment: [D]
     X:    -2.5604      Y:     1.1148      Z:     0.0000     Total:     2.7926

*** Psi4 exiting successfully. Buy a developer a beer!
