                               Psi4 1.3.2 release

  ==> Input File <==

--------------------------------------------------------------------------
#psi4
#
memory 32 gb

molecule  {
0 1
  C        0.0000000     0.4159560     0.0000000
  H       -0.3340900     1.4603970     0.0000000
  N        1.2375653     0.0639630     0.0000000
  H        1.8415280     0.8339110     0.0000000
  N       -1.0366190    -0.4720110     0.0000000
  H       -0.8260900    -1.4592660     0.0000000
  H       -1.9967030    -0.1736100     0.0000000
units angstrom
no_reorient  #important for SAPT in psi4, default
symmetry c1  #important for SAPT in psi4, default
}

set PROPERTIES_ORIGIN ["COM"]
properties('MP2/aug-cc-pvtz', properties = ['dipole'])
--------------------------------------------------------------------------

    Molecular point group: c1
  Charge       = 0
  Multiplicity = 1
  Basis Set: AUG-CC-PVTZ
    Blend: AUG-CC-PVTZ
  Basis Set: (AUG-CC-PVTZ AUX)
    Blend: AUG-CC-PVTZ-JKFIT

    Orbital Energies [Eh]
    ---------------------

    Doubly Occupied:

       1A    -15.579842     2A    -15.518061     3A    -11.318518
       4A     -1.253740     5A     -1.140881     6A     -0.832352
       7A     -0.745574     8A     -0.638903     9A     -0.626735
      10A     -0.525906    11A     -0.417770    12A     -0.362102

  @DF-RHF Final Energy:  -149.14315818952622

   => Energetics <=

    Nuclear Repulsion Energy =             71.9948329238268769
    One-Electron Energy =                -344.3552160075518600
    Two-Electron Energy =                 123.2172248941987505
    Total Energy =                       -149.1431581895262184
  Basis Set: (AUG-CC-PVTZ AUX)
    Blend: AUG-CC-PVTZ-RI
    Molecular point group: c1

    Geometry (in Angstrom), charge = 0, multiplicity = 1:

       Center              X                  Y                   Z               Mass
    ------------   -----------------  -----------------  -----------------  -----------------
         C           -0.033794379045     0.417224161917     0.000000000000    12.000000000000
         H           -0.367884379045     1.461665161917     0.000000000000     1.007825032230
         N            1.203770920955     0.065231161917     0.000000000000    14.003074004430
         H            1.807733620955     0.835179161917     0.000000000000     1.007825032230
         N           -1.070413379045    -0.470742838083     0.000000000000    14.003074004430
         H           -0.859884379045    -1.457997838083     0.000000000000     1.007825032230
         H           -2.030497379045    -0.172341838083     0.000000000000     1.007825032230

  Basis Set: AUG-CC-PVTZ
    Blend: AUG-CC-PVTZ
  Basis Set: (AUG-CC-PVTZ AUX)
    Blend: AUG-CC-PVTZ-JKFIT
	 Reference Energy          =    -149.1431581895262184 [Eh]
	 Singles Energy            =      -0.0000000000000000 [Eh]
	 Same-Spin Energy          =      -0.1515504275562550 [Eh]
	 Opposite-Spin Energy      =      -0.4913998478353084 [Eh]
	 Correlation Energy        =      -0.6429502753915635 [Eh]
	 Total Energy              =    -149.7861084649177883 [Eh]

	 ================> DF-SCS-MP2 Energies <==================
	-----------------------------------------------------------
	 SCS Same-Spin Scale       =       0.3333333333333333 [-]
	 SCS Opposite-Spin Scale   =       1.2000000000000000 [-]
	 SCS Same-Spin Energy      =      -0.0505168091854183 [Eh]
	 SCS Opposite-Spin Energy  =      -0.5896798174023701 [Eh]
	 SCS Correlation Energy    =      -0.6401966265877884 [Eh]
	 SCS Total Energy          =    -149.7833548161140129 [Eh]
	-----------------------------------------------------------

  Dipole Moment: [D]
     X:    -2.5939      Y:     1.0573      Z:    -0.0000     Total:     2.8011

*** Psi4 exiting successfully. Buy a developer a beer!
