                               Psi4 1.4a3.dev225

  ==> Input File <==

--------------------------------------------------------------------------
#psi4
#
memory 32 gb

molecule  {
0 1
  C       -0.1211700     0.4020020    -0.0021590
  H       -0.1135610     1.4981820    -0.0182380
  N       -1.2122173    -0.3661296     0.0201467
  H       -2.0047150     0.2528190    -0.0022480
  N        1.1420860    -0.1478600    -0.0823680
  H        1.8904430     0.3751290     0.3530900
  H        1.1596200    -1.1416750     0.1217560
units angstrom
no_reorient  #important for SAPT in psi4, default
symmetry c1  #important for SAPT in psi4, default
}

set PROPERTIES_ORIGIN ["COM"]
properties('MP2/aug-cc-pvtz', properties = ['dipole'])
--------------------------------------------------------------------------

    Molecular point group: c1
  Charge       = 0
  Multiplicity = 1
  Basis Set: AUG-CC-PVTZ
    Blend: AUG-CC-PVTZ
  Basis Set: (AUG-CC-PVTZ AUX)
    Blend: AUG-CC-PVTZ-JKFIT

    Orbital Energies [Eh]
    ---------------------

    Doubly Occupied:

       1A    -15.583773     2A    -15.536243     3A    -11.328431
       4A     -1.250759     5A     -1.130759     6A     -0.830304
       7A     -0.735237     8A     -0.629574     9A     -0.612053
      10A     -0.521259    11A     -0.432898    12A     -0.366840

  @DF-RHF Final Energy:  -149.13650220251893

   => Energetics <=

    Nuclear Repulsion Energy =             70.9677755393082919
    One-Electron Energy =                -342.2922948065029232
    Two-Electron Energy =                 122.1880170646757335
    Total Energy =                       -149.1365022025189262
  Basis Set: (AUG-CC-PVTZ AUX)
    Blend: AUG-CC-PVTZ-RI
    Molecular point group: c1

    Geometry (in Angstrom), charge = 0, multiplicity = 1:

       Center              X                  Y                   Z               Mass
    ------------   -----------------  -----------------  -----------------  -----------------
         C           -0.087175852203     0.433367396330     0.007816193965    12.000000000000
         H           -0.079566852203     1.529547396330    -0.008262806035     1.007825032230
         N           -1.178223152203    -0.334764203670     0.030121893965    14.003074004430
         H           -1.970720852203     0.284184396330     0.007727193965     1.007825032230
         N            1.176080147797    -0.116494603670    -0.072392806035    14.003074004430
         H            1.924437147797     0.406494396330     0.363065193965     1.007825032230
         H            1.193614147797    -1.110309603670     0.131731193965     1.007825032230

  Basis Set: AUG-CC-PVTZ
    Blend: AUG-CC-PVTZ
  Basis Set: (AUG-CC-PVTZ AUX)
    Blend: AUG-CC-PVTZ-JKFIT
	 Reference Energy          =    -149.1365022025189262 [Eh]
	 Singles Energy            =      -0.0000000000000000 [Eh]
	 Same-Spin Energy          =      -0.1523277644010747 [Eh]
	 Opposite-Spin Energy      =      -0.4948907888760298 [Eh]
	 Correlation Energy        =      -0.6472185532771045 [Eh]
	 Total Energy              =    -149.7837207557960255 [Eh]

	 ================> DF-SCS-MP2 Energies <==================
	-----------------------------------------------------------
	 SCS Same-Spin Scale       =       0.3333333333333333 [-]
	 SCS Opposite-Spin Scale   =       1.2000000000000000 [-]
	 SCS Same-Spin Energy      =      -0.0507759214670249 [Eh]
	 SCS Opposite-Spin Energy  =      -0.5938689466512358 [Eh]
	 SCS Correlation Energy    =      -0.6446448681182607 [Eh]
	 SCS Total Energy          =    -149.7811470706371892 [Eh]
	-----------------------------------------------------------

  Dipole Moment: [D]
     X:     1.8490      Y:     1.8596      Z:     0.8580     Total:     2.7592

*** Psi4 exiting successfully. Buy a developer a beer!
