                               Psi4 1.3.2 release

  ==> Input File <==

--------------------------------------------------------------------------
#psi4
#
memory 32 gb

molecule  {
0 1
  C        0.0000000     0.4159560     0.0000000
  H       -0.3340900     1.4603970     0.0000000
  N        1.2245270     0.0209870     0.0000000
  H        1.8415280     0.8339110     0.0000000
  N       -0.8847269    -0.3419003     0.0000000
  H       -0.8260900    -1.4592660     0.0000000
  H       -1.9967030    -0.1736100     0.0000000
units angstrom
no_reorient  #important for SAPT in psi4, default
symmetry c1  #important for SAPT in psi4, default
}

set PROPERTIES_ORIGIN ["COM"]
properties('MP2/aug-cc-pvtz', properties = ['dipole'])
--------------------------------------------------------------------------

    Molecular point group: c1
  Charge       = 0
  Multiplicity = 1
  Basis Set: AUG-CC-PVTZ
    Blend: AUG-CC-PVTZ
  Basis Set: (AUG-CC-PVTZ AUX)
    Blend: AUG-CC-PVTZ-JKFIT

    Orbital Energies [Eh]
    ---------------------

    Doubly Occupied:

       1A    -15.605292     2A    -15.487133     3A    -11.290322
       4A     -1.323654     5A     -1.115173     6A     -0.847713
       7A     -0.750082     8A     -0.637624     9A     -0.581684
      10A     -0.556987    11A     -0.399424    12A     -0.337287

  @DF-RHF Final Energy:  -149.06835014099329

   => Energetics <=

    Nuclear Repulsion Energy =             75.1524034989192700
    One-Electron Energy =                -350.5767551615389266
    Two-Electron Energy =                 126.3560015216263537
    Total Energy =                       -149.0683501409932887
  Basis Set: (AUG-CC-PVTZ AUX)
    Blend: AUG-CC-PVTZ-RI
    Molecular point group: c1

    Geometry (in Angstrom), charge = 0, multiplicity = 1:

       Center              X                  Y                   Z               Mass
    ------------   -----------------  -----------------  -----------------  -----------------
         C           -0.077947256185     0.389516978507     0.000000000000    12.000000000000
         H           -0.412037256185     1.433957978507     0.000000000000     1.007825032230
         N            1.146579743815    -0.005452021493     0.000000000000    14.003074004430
         H            1.763580743815     0.807471978507     0.000000000000     1.007825032230
         N           -0.962674156185    -0.368339321493     0.000000000000    14.003074004430
         H           -0.904037256185    -1.485705021493     0.000000000000     1.007825032230
         H           -2.074650256185    -0.200049021493     0.000000000000     1.007825032230

  Basis Set: AUG-CC-PVTZ
    Blend: AUG-CC-PVTZ
  Basis Set: (AUG-CC-PVTZ AUX)
    Blend: AUG-CC-PVTZ-JKFIT
	 Reference Energy          =    -149.0683501409932887 [Eh]
	 Singles Energy            =      -0.0000000000000000 [Eh]
	 Same-Spin Energy          =      -0.1545730858093447 [Eh]
	 Opposite-Spin Energy      =      -0.4946811263726132 [Eh]
	 Correlation Energy        =      -0.6492542121819579 [Eh]
	 Total Energy              =    -149.7176043531752327 [Eh]

	 ================> DF-SCS-MP2 Energies <==================
	-----------------------------------------------------------
	 SCS Same-Spin Scale       =       0.3333333333333333 [-]
	 SCS Opposite-Spin Scale   =       1.2000000000000000 [-]
	 SCS Same-Spin Energy      =      -0.0515243619364482 [Eh]
	 SCS Opposite-Spin Energy  =      -0.5936173516471358 [Eh]
	 SCS Correlation Energy    =      -0.6451417135835841 [Eh]
	 SCS Total Energy          =    -149.7134918545768869 [Eh]
	-----------------------------------------------------------

  Dipole Moment: [D]
     X:    -3.8775      Y:     0.6242      Z:    -0.0000     Total:     3.9274

*** Psi4 exiting successfully. Buy a developer a beer!
