                               Psi4 1.4a3.dev225

  ==> Input File <==

--------------------------------------------------------------------------
#psi4
#
memory 32 gb

molecule  {
0 1
  C       -0.1211700     0.4020020    -0.0021590
  H       -0.1135610     1.4981820    -0.0182380
  N       -1.1713390    -0.3373500     0.0193110
  H       -2.0047150     0.2528190    -0.0022480
  N        1.1878538    -0.1677815    -0.0852740
  H        1.8904430     0.3751290     0.3530900
  H        1.1596200    -1.1416750     0.1217560
units angstrom
no_reorient  #important for SAPT in psi4, default
symmetry c1  #important for SAPT in psi4, default
}

set PROPERTIES_ORIGIN ["COM"]
properties('MP2/aug-cc-pvtz', properties = ['dipole'])
--------------------------------------------------------------------------

    Molecular point group: c1
  Charge       = 0
  Multiplicity = 1
  Basis Set: AUG-CC-PVTZ
    Blend: AUG-CC-PVTZ
  Basis Set: (AUG-CC-PVTZ AUX)
    Blend: AUG-CC-PVTZ-JKFIT

    Orbital Energies [Eh]
    ---------------------

    Doubly Occupied:

       1A    -15.572899     2A    -15.539904     3A    -11.323216
       4A     -1.246363     5A     -1.143055     6A     -0.819324
       7A     -0.736867     8A     -0.631997     9A     -0.617500
      10A     -0.516837    11A     -0.431574    12A     -0.379283

  @DF-RHF Final Energy:  -149.14070446621292

   => Energetics <=

    Nuclear Repulsion Energy =             71.1562392950922060
    One-Electron Energy =                -342.6762515473761255
    Two-Electron Energy =                 122.3793077860709673
    Total Energy =                       -149.1407044662129238
  Basis Set: (AUG-CC-PVTZ AUX)
    Blend: AUG-CC-PVTZ-RI
    Molecular point group: c1

    Geometry (in Angstrom), charge = 0, multiplicity = 1:

       Center              X                  Y                   Z               Mass
    ------------   -----------------  -----------------  -----------------  -----------------
         C           -0.114727670071     0.430550688390     0.009005983661    12.000000000000
         H           -0.107118670071     1.526730688390    -0.007073016339     1.007825032230
         N           -1.164896670071    -0.308801311610     0.030475983661    14.003074004430
         H           -1.998272670071     0.281367688390     0.008916983661     1.007825032230
         N            1.194296129929    -0.139232811610    -0.074109016339    14.003074004430
         H            1.896885329929     0.403677688390     0.364254983661     1.007825032230
         H            1.166062329929    -1.113126311610     0.132920983661     1.007825032230

  Basis Set: AUG-CC-PVTZ
    Blend: AUG-CC-PVTZ
  Basis Set: (AUG-CC-PVTZ AUX)
    Blend: AUG-CC-PVTZ-JKFIT
	 Reference Energy          =    -149.1407044662129238 [Eh]
	 Singles Energy            =      -0.0000000000000000 [Eh]
	 Same-Spin Energy          =      -0.1511780765226759 [Eh]
	 Opposite-Spin Energy      =      -0.4927423044937420 [Eh]
	 Correlation Energy        =      -0.6439203810164179 [Eh]
	 Total Energy              =    -149.7846248472293382 [Eh]

	 ================> DF-SCS-MP2 Energies <==================
	-----------------------------------------------------------
	 SCS Same-Spin Scale       =       0.3333333333333333 [-]
	 SCS Opposite-Spin Scale   =       1.2000000000000000 [-]
	 SCS Same-Spin Energy      =      -0.0503926921742253 [Eh]
	 SCS Opposite-Spin Energy  =      -0.5912907653924904 [Eh]
	 SCS Correlation Energy    =      -0.6416834575667156 [Eh]
	 SCS Total Energy          =    -149.7823879237796518 [Eh]
	-----------------------------------------------------------

  Dipole Moment: [D]
     X:     1.2951      Y:     1.8504      Z:     0.8990     Total:     2.4310

*** Psi4 exiting successfully. Buy a developer a beer!
