                               Psi4 1.4a3.dev225

  ==> Input File <==

--------------------------------------------------------------------------
#psi4
#
memory 32 gb

molecule  {
0 1
  C       -0.1211700     0.4020020    -0.0021590
  H       -0.1135610     1.4981820    -0.0182380
  N       -1.1876903    -0.3488618     0.0196453
  H       -2.0047150     0.2528190    -0.0022480
  N        1.1420860    -0.1478600    -0.0823680
  H        1.8904430     0.3751290     0.3530900
  H        1.1596200    -1.1416750     0.1217560
units angstrom
no_reorient  #important for SAPT in psi4, default
symmetry c1  #important for SAPT in psi4, default
}

set PROPERTIES_ORIGIN ["COM"]
properties('MP2/aug-cc-pvtz', properties = ['dipole'])
--------------------------------------------------------------------------

    Molecular point group: c1
  Charge       = 0
  Multiplicity = 1
  Basis Set: AUG-CC-PVTZ
    Blend: AUG-CC-PVTZ
  Basis Set: (AUG-CC-PVTZ AUX)
    Blend: AUG-CC-PVTZ-JKFIT

    Orbital Energies [Eh]
    ---------------------

    Doubly Occupied:

       1A    -15.579943     2A    -15.534131     3A    -11.322365
       4A     -1.253179     5A     -1.136320     6A     -0.826125
       7A     -0.735526     8A     -0.628427     9A     -0.616584
      10A     -0.523156    11A     -0.430086    12A     -0.370836

  @DF-RHF Final Energy:  -149.14127299625540

   => Energetics <=

    Nuclear Repulsion Energy =             71.4818718363479917
    One-Electron Energy =                -343.3329352233643021
    Two-Electron Energy =                 122.7097903907609151
    Total Energy =                       -149.1412729962553954
  Basis Set: (AUG-CC-PVTZ AUX)
    Blend: AUG-CC-PVTZ-RI
    Molecular point group: c1

    Geometry (in Angstrom), charge = 0, multiplicity = 1:

       Center              X                  Y                   Z               Mass
    ------------   -----------------  -----------------  -----------------  -----------------
         C           -0.094974973419     0.427876563152     0.007975629664    12.000000000000
         H           -0.087365973419     1.524056563152    -0.008103370336     1.007825032230
         N           -1.161495273419    -0.322987236848     0.029779929664    14.003074004430
         H           -1.978519973419     0.278693563152     0.007886629664     1.007825032230
         N            1.168281026581    -0.121985436848    -0.072233370336    14.003074004430
         H            1.916638026581     0.401003563152     0.363224629664     1.007825032230
         H            1.185815026581    -1.115800436848     0.131890629664     1.007825032230

  Basis Set: AUG-CC-PVTZ
    Blend: AUG-CC-PVTZ
  Basis Set: (AUG-CC-PVTZ AUX)
    Blend: AUG-CC-PVTZ-JKFIT
	 Reference Energy          =    -149.1412729962553954 [Eh]
	 Singles Energy            =      -0.0000000000000000 [Eh]
	 Same-Spin Energy          =      -0.1518608530528249 [Eh]
	 Opposite-Spin Energy      =      -0.4935296644332197 [Eh]
	 Correlation Energy        =      -0.6453905174860446 [Eh]
	 Total Energy              =    -149.7866635137414448 [Eh]

	 ================> DF-SCS-MP2 Energies <==================
	-----------------------------------------------------------
	 SCS Same-Spin Scale       =       0.3333333333333333 [-]
	 SCS Opposite-Spin Scale   =       1.2000000000000000 [-]
	 SCS Same-Spin Energy      =      -0.0506202843509416 [Eh]
	 SCS Opposite-Spin Energy  =      -0.5922355973198636 [Eh]
	 SCS Correlation Energy    =      -0.6428558816708052 [Eh]
	 SCS Total Energy          =    -149.7841288779262072 [Eh]
	-----------------------------------------------------------

  Dipole Moment: [D]
     X:     1.7044      Y:     1.8269      Z:     0.8642     Total:     2.6438

*** Psi4 exiting successfully. Buy a developer a beer!
