                               Psi4 1.3.2 release

  ==> Input File <==

--------------------------------------------------------------------------
#psi4
#
memory 32 gb

molecule  {
0 1
  C        0.0000000     0.4159560     0.0000000
  H       -0.2604197     1.4811577     0.0000000
  N        1.2245270     0.0209870     0.0000000
  H        1.8415280     0.8339110     0.0000000
  N       -1.0366190    -0.4720110     0.0000000
  H       -0.8260900    -1.4592660     0.0000000
  H       -1.9967030    -0.1736100     0.0000000
units angstrom
no_reorient  #important for SAPT in psi4, default
symmetry c1  #important for SAPT in psi4, default
}

set PROPERTIES_ORIGIN ["COM"]
properties('MP2/aug-cc-pvtz', properties = ['dipole'])
--------------------------------------------------------------------------

    Molecular point group: c1
  Charge       = 0
  Multiplicity = 1
  Basis Set: AUG-CC-PVTZ
    Blend: AUG-CC-PVTZ
  Basis Set: (AUG-CC-PVTZ AUX)
    Blend: AUG-CC-PVTZ-JKFIT

    Orbital Energies [Eh]
    ---------------------

    Doubly Occupied:

       1A    -15.578921     2A    -15.522568     3A    -11.317239
       4A     -1.253892     5A     -1.136239     6A     -0.825965
       7A     -0.742601     8A     -0.639598     9A     -0.616461
      10A     -0.525936    11A     -0.420569    12A     -0.360856

  @DF-RHF Final Energy:  -149.14294033378508

   => Energetics <=

    Nuclear Repulsion Energy =             71.9479347875568465
    One-Electron Energy =                -344.3000595647865794
    Two-Electron Energy =                 123.2091844434446415
    Total Energy =                       -149.1429403337850772
  Basis Set: (AUG-CC-PVTZ AUX)
    Blend: AUG-CC-PVTZ-RI
    Molecular point group: c1

    Geometry (in Angstrom), charge = 0, multiplicity = 1:

       Center              X                  Y                   Z               Mass
    ------------   -----------------  -----------------  -----------------  -----------------
         C           -0.031334438429     0.430414593693     0.000000000000    12.000000000000
         H           -0.291754138429     1.495616293693     0.000000000000     1.007825032230
         N            1.193192561571     0.035445593693     0.000000000000    14.003074004430
         H            1.810193561571     0.848369593693     0.000000000000     1.007825032230
         N           -1.067953438429    -0.457552406307     0.000000000000    14.003074004430
         H           -0.857424438429    -1.444807406307     0.000000000000     1.007825032230
         H           -2.028037438429    -0.159151406307     0.000000000000     1.007825032230

  Basis Set: AUG-CC-PVTZ
    Blend: AUG-CC-PVTZ
  Basis Set: (AUG-CC-PVTZ AUX)
    Blend: AUG-CC-PVTZ-JKFIT
	 Reference Energy          =    -149.1429403337850772 [Eh]
	 Singles Energy            =      -0.0000000000000000 [Eh]
	 Same-Spin Energy          =      -0.1517967430468632 [Eh]
	 Opposite-Spin Energy      =      -0.4921345757806403 [Eh]
	 Correlation Energy        =      -0.6439313188275035 [Eh]
	 Total Energy              =    -149.7868716526125752 [Eh]

	 ================> DF-SCS-MP2 Energies <==================
	-----------------------------------------------------------
	 SCS Same-Spin Scale       =       0.3333333333333333 [-]
	 SCS Opposite-Spin Scale   =       1.2000000000000000 [-]
	 SCS Same-Spin Energy      =      -0.0505989143489544 [Eh]
	 SCS Opposite-Spin Energy  =      -0.5905614909367684 [Eh]
	 SCS Correlation Energy    =      -0.6411604052857227 [Eh]
	 SCS Total Energy          =    -149.7841007390707944 [Eh]
	-----------------------------------------------------------

  Dipole Moment: [D]
     X:    -2.5621      Y:     1.1516      Z:    -0.0000     Total:     2.8090

*** Psi4 exiting successfully. Buy a developer a beer!
