                               Psi4 1.3.2 release

  ==> Input File <==

--------------------------------------------------------------------------
#psi4
#
memory 32 gb

molecule  {
0 1
  C        0.0000000     0.4159560     0.0000000
  H       -0.4414336     1.4197535     0.0000000
  N        1.2245270     0.0209870     0.0000000
  H        1.8415280     0.8339110     0.0000000
  N       -1.0366190    -0.4720110     0.0000000
  H       -0.8260900    -1.4592660     0.0000000
  H       -1.9967030    -0.1736100     0.0000000
units angstrom
no_reorient  #important for SAPT in psi4, default
symmetry c1  #important for SAPT in psi4, default
}

set PROPERTIES_ORIGIN ["COM"]
properties('MP2/aug-cc-pvtz', properties = ['dipole'])
--------------------------------------------------------------------------

    Molecular point group: c1
  Charge       = 0
  Multiplicity = 1
  Basis Set: AUG-CC-PVTZ
    Blend: AUG-CC-PVTZ
  Basis Set: (AUG-CC-PVTZ AUX)
    Blend: AUG-CC-PVTZ-JKFIT

    Orbital Energies [Eh]
    ---------------------

    Doubly Occupied:

       1A    -15.576344     2A    -15.525787     3A    -11.318958
       4A     -1.254683     5A     -1.135979     6A     -0.832640
       7A     -0.743326     8A     -0.624987     9A     -0.619941
      10A     -0.525729    11A     -0.425674    12A     -0.361465

  @DF-RHF Final Energy:  -149.14070772836092

   => Energetics <=

    Nuclear Repulsion Energy =             71.9838980055155133
    One-Electron Energy =                -344.3581864718424299
    Two-Electron Energy =                 123.2335807379659798
    Total Energy =                       -149.1407077283609226
  Basis Set: (AUG-CC-PVTZ AUX)
    Blend: AUG-CC-PVTZ-RI
    Molecular point group: c1

    Geometry (in Angstrom), charge = 0, multiplicity = 1:

       Center              X                  Y                   Z               Mass
    ------------   -----------------  -----------------  -----------------  -----------------
         C           -0.027191820105     0.431819867896     0.000000000000    12.000000000000
         H           -0.468625420105     1.435617367896     0.000000000000     1.007825032230
         N            1.197335179895     0.036850867896     0.000000000000    14.003074004430
         H            1.814336179895     0.849774867896     0.000000000000     1.007825032230
         N           -1.063810820105    -0.456147132104     0.000000000000    14.003074004430
         H           -0.853281820105    -1.443402132104     0.000000000000     1.007825032230
         H           -2.023894820105    -0.157746132104     0.000000000000     1.007825032230

  Basis Set: AUG-CC-PVTZ
    Blend: AUG-CC-PVTZ
  Basis Set: (AUG-CC-PVTZ AUX)
    Blend: AUG-CC-PVTZ-JKFIT
	 Reference Energy          =    -149.1407077283609226 [Eh]
	 Singles Energy            =      -0.0000000000000000 [Eh]
	 Same-Spin Energy          =      -0.1521412329250337 [Eh]
	 Opposite-Spin Energy      =      -0.4927702698990887 [Eh]
	 Correlation Energy        =      -0.6449115028241224 [Eh]
	 Total Energy              =    -149.7856192311850521 [Eh]

	 ================> DF-SCS-MP2 Energies <==================
	-----------------------------------------------------------
	 SCS Same-Spin Scale       =       0.3333333333333333 [-]
	 SCS Opposite-Spin Scale   =       1.2000000000000000 [-]
	 SCS Same-Spin Energy      =      -0.0507137443083446 [Eh]
	 SCS Opposite-Spin Energy  =      -0.5913243238789064 [Eh]
	 SCS Correlation Energy    =      -0.6420380681872511 [Eh]
	 SCS Total Energy          =    -149.7827457965481699 [Eh]
	-----------------------------------------------------------

  Dipole Moment: [D]
     X:    -2.5591      Y:     1.1029      Z:    -0.0000     Total:     2.7866

*** Psi4 exiting successfully. Buy a developer a beer!
