                               Psi4 1.4a3.dev225

  ==> Input File <==

--------------------------------------------------------------------------
#psi4
#
memory 32 gb

molecule  {
0 1
  C       -0.1211700     0.4020020    -0.0021590
  H       -0.1132140     1.5481754    -0.0189713
  N       -1.1713390    -0.3373500     0.0193110
  H       -2.0047150     0.2528190    -0.0022480
  N        1.1420860    -0.1478600    -0.0823680
  H        1.8904430     0.3751290     0.3530900
  H        1.1596200    -1.1416750     0.1217560
units angstrom
no_reorient  #important for SAPT in psi4, default
symmetry c1  #important for SAPT in psi4, default
}

set PROPERTIES_ORIGIN ["COM"]
properties('MP2/aug-cc-pvtz', properties = ['dipole'])
--------------------------------------------------------------------------

    Molecular point group: c1
  Charge       = 0
  Multiplicity = 1
  Basis Set: AUG-CC-PVTZ
    Blend: AUG-CC-PVTZ
  Basis Set: (AUG-CC-PVTZ AUX)
    Blend: AUG-CC-PVTZ-JKFIT

    Orbital Energies [Eh]
    ---------------------

    Doubly Occupied:

       1A    -15.578163     2A    -15.533367     3A    -11.323907
       4A     -1.255311     5A     -1.140357     6A     -0.816481
       7A     -0.733283     8A     -0.625692     9A     -0.615904
      10A     -0.525223    11A     -0.426868    12A     -0.374050

  @DF-RHF Final Energy:  -149.14091417912391

   => Energetics <=

    Nuclear Repulsion Energy =             71.6317172206872783
    One-Electron Energy =                -343.6480528977909330
    Two-Electron Energy =                 122.8754214979797439
    Total Energy =                       -149.1409141791239108
  Basis Set: (AUG-CC-PVTZ AUX)
    Blend: AUG-CC-PVTZ-RI
    Molecular point group: c1

    Geometry (in Angstrom), charge = 0, multiplicity = 1:

       Center              X                  Y                   Z               Mass
    ------------   -----------------  -----------------  -----------------  -----------------
         C           -0.100182318280     0.423071898118     0.008098712766    12.000000000000
         H           -0.092226318280     1.569245298118    -0.008713587234     1.007825032230
         N           -1.150351318280    -0.316280101882     0.029568712766    14.003074004430
         H           -1.983727318280     0.273888898118     0.008009712766     1.007825032230
         N            1.163073681720    -0.126790101882    -0.072110287234    14.003074004430
         H            1.911430681720     0.396198898118     0.363347712766     1.007825032230
         H            1.180607681720    -1.120605101882     0.132013712766     1.007825032230

  Basis Set: AUG-CC-PVTZ
    Blend: AUG-CC-PVTZ
  Basis Set: (AUG-CC-PVTZ AUX)
    Blend: AUG-CC-PVTZ-JKFIT
	 Reference Energy          =    -149.1409141791239108 [Eh]
	 Singles Energy            =      -0.0000000000000000 [Eh]
	 Same-Spin Energy          =      -0.1517093476493234 [Eh]
	 Opposite-Spin Energy      =      -0.4929609783015748 [Eh]
	 Correlation Energy        =      -0.6446703259508982 [Eh]
	 Total Energy              =    -149.7855845050748087 [Eh]

	 ================> DF-SCS-MP2 Energies <==================
	-----------------------------------------------------------
	 SCS Same-Spin Scale       =       0.3333333333333333 [-]
	 SCS Opposite-Spin Scale   =       1.2000000000000000 [-]
	 SCS Same-Spin Energy      =      -0.0505697825497745 [Eh]
	 SCS Opposite-Spin Energy  =      -0.5915531739618898 [Eh]
	 SCS Correlation Energy    =      -0.6421229565116643 [Eh]
	 SCS Total Energy          =    -149.7830371356355670 [Eh]
	-----------------------------------------------------------

  Dipole Moment: [D]
     X:     1.5927      Y:     1.7605      Z:     0.8675     Total:     2.5276

*** Psi4 exiting successfully. Buy a developer a beer!
