                               Psi4 1.4a3.dev225

  ==> Input File <==

--------------------------------------------------------------------------
#psi4
#
memory 32 gb

molecule  {
0 1
  C       -0.1211700     0.4020020    -0.0021590
  H       -0.1135610     1.4981820    -0.0182380
  N       -1.1713390    -0.3373500     0.0193110
  H       -2.0047150     0.2528190    -0.0022480
  N        1.0963182    -0.1279385    -0.0794620
  H        1.8904430     0.3751290     0.3530900
  H        1.1596200    -1.1416750     0.1217560
units angstrom
no_reorient  #important for SAPT in psi4, default
symmetry c1  #important for SAPT in psi4, default
}

set PROPERTIES_ORIGIN ["COM"]
properties('MP2/aug-cc-pvtz', properties = ['dipole'])
--------------------------------------------------------------------------

    Molecular point group: c1
  Charge       = 0
  Multiplicity = 1
  Basis Set: AUG-CC-PVTZ
    Blend: AUG-CC-PVTZ
  Basis Set: (AUG-CC-PVTZ AUX)
    Blend: AUG-CC-PVTZ-JKFIT

    Orbital Energies [Eh]
    ---------------------

    Doubly Occupied:

       1A    -15.582388     2A    -15.524723     3A    -11.312528
       4A     -1.267130     5A     -1.135938     6A     -0.827830
       7A     -0.736273     8A     -0.634798     9A     -0.606589
      10A     -0.533826    11A     -0.423749    12A     -0.367266

  @DF-RHF Final Energy:  -149.13985730144353

   => Energetics <=

    Nuclear Repulsion Energy =             72.5563052884186988
    One-Electron Energy =                -345.4862494418499637
    Two-Electron Energy =                 123.7900868519877662
    Total Energy =                       -149.1398573014434987
  Basis Set: (AUG-CC-PVTZ AUX)
    Blend: AUG-CC-PVTZ-RI
    Molecular point group: c1

    Geometry (in Angstrom), charge = 0, multiplicity = 1:

       Center              X                  Y                   Z               Mass
    ------------   -----------------  -----------------  -----------------  -----------------
         C           -0.085621083858     0.417881369409     0.007157877797    12.000000000000
         H           -0.078012083858     1.514061369409    -0.008921122203     1.007825032230
         N           -1.135790083858    -0.321470630591     0.028627877797    14.003074004430
         H           -1.969166083858     0.268698369409     0.007068877797     1.007825032230
         N            1.131867116142    -0.112059130591    -0.070145122203    14.003074004430
         H            1.925991916142     0.391008369409     0.362406877797     1.007825032230
         H            1.195168916142    -1.125795630591     0.131072877797     1.007825032230

  Basis Set: AUG-CC-PVTZ
    Blend: AUG-CC-PVTZ
  Basis Set: (AUG-CC-PVTZ AUX)
    Blend: AUG-CC-PVTZ-JKFIT
	 Reference Energy          =    -149.1398573014435271 [Eh]
	 Singles Energy            =      -0.0000000000000000 [Eh]
	 Same-Spin Energy          =      -0.1520990499451515 [Eh]
	 Opposite-Spin Energy      =      -0.4928417513269910 [Eh]
	 Correlation Energy        =      -0.6449408012721425 [Eh]
	 Total Energy              =    -149.7847981027156834 [Eh]

	 ================> DF-SCS-MP2 Energies <==================
	-----------------------------------------------------------
	 SCS Same-Spin Scale       =       0.3333333333333333 [-]
	 SCS Opposite-Spin Scale   =       1.2000000000000000 [-]
	 SCS Same-Spin Energy      =      -0.0506996833150505 [Eh]
	 SCS Opposite-Spin Energy  =      -0.5914101015923892 [Eh]
	 SCS Correlation Energy    =      -0.6421097849074396 [Eh]
	 SCS Total Energy          =    -149.7819670863509600 [Eh]
	-----------------------------------------------------------

  Dipole Moment: [D]
     X:     1.9256      Y:     1.7583      Z:     0.8381     Total:     2.7390

*** Psi4 exiting successfully. Buy a developer a beer!
