                               Psi4 1.3.2 release

  ==> Input File <==

--------------------------------------------------------------------------
#psi4
#
memory 32 gb

molecule  {
0 1
  C        0.0000000     0.4159560     0.0000000
  H       -0.2731565     1.2699052     0.0000000
  N        1.2245270     0.0209870     0.0000000
  H        1.8415280     0.8339110     0.0000000
  N       -1.0366190    -0.4720110     0.0000000
  H       -0.8260900    -1.4592660     0.0000000
  H       -1.9967030    -0.1736100     0.0000000
units angstrom
no_reorient  #important for SAPT in psi4, default
symmetry c1  #important for SAPT in psi4, default
}

set PROPERTIES_ORIGIN ["COM"]
properties('MP2/aug-cc-pvtz', properties = ['dipole'])
--------------------------------------------------------------------------

    Molecular point group: c1
  Charge       = 0
  Multiplicity = 1
  Basis Set: AUG-CC-PVTZ
    Blend: AUG-CC-PVTZ
  Basis Set: (AUG-CC-PVTZ AUX)
    Blend: AUG-CC-PVTZ-JKFIT

    Orbital Energies [Eh]
    ---------------------

    Doubly Occupied:

       1A    -15.575612     2A    -15.522141     3A    -11.294068
       4A     -1.257056     5A     -1.134694     6A     -0.870097
       7A     -0.751751     8A     -0.655791     9A     -0.617062
      10A     -0.524594    11A     -0.426592    12A     -0.359307

  @DF-RHF Final Energy:  -149.11073215999431

   => Energetics <=

    Nuclear Repulsion Energy =             72.9324335138460782
    One-Electron Energy =                -346.1087991394088021
    Two-Electron Energy =                 124.0656334655683963
    Total Energy =                       -149.1107321599943134
  Basis Set: (AUG-CC-PVTZ AUX)
    Blend: AUG-CC-PVTZ-RI
    Molecular point group: c1

    Geometry (in Angstrom), charge = 0, multiplicity = 1:

       Center              X                  Y                   Z               Mass
    ------------   -----------------  -----------------  -----------------  -----------------
         C           -0.031042948653     0.435249241626     0.000000000000    12.000000000000
         H           -0.304199448653     1.289198441626     0.000000000000     1.007825032230
         N            1.193484051347     0.040280241626     0.000000000000    14.003074004430
         H            1.810485051347     0.853204241626     0.000000000000     1.007825032230
         N           -1.067661948653    -0.452717758374     0.000000000000    14.003074004430
         H           -0.857132948653    -1.439972758374     0.000000000000     1.007825032230
         H           -2.027745948653    -0.154316758374     0.000000000000     1.007825032230

  Basis Set: AUG-CC-PVTZ
    Blend: AUG-CC-PVTZ
  Basis Set: (AUG-CC-PVTZ AUX)
    Blend: AUG-CC-PVTZ-JKFIT
	 Reference Energy          =    -149.1107321599943134 [Eh]
	 Singles Energy            =      -0.0000000000000000 [Eh]
	 Same-Spin Energy          =      -0.1516398903800963 [Eh]
	 Opposite-Spin Energy      =      -0.4921872886198068 [Eh]
	 Correlation Energy        =      -0.6438271789999032 [Eh]
	 Total Energy              =    -149.7545593389942269 [Eh]

	 ================> DF-SCS-MP2 Energies <==================
	-----------------------------------------------------------
	 SCS Same-Spin Scale       =       0.3333333333333333 [-]
	 SCS Opposite-Spin Scale   =       1.2000000000000000 [-]
	 SCS Same-Spin Energy      =      -0.0505466301266988 [Eh]
	 SCS Opposite-Spin Energy  =      -0.5906247463437682 [Eh]
	 SCS Correlation Energy    =      -0.6411713764704670 [Eh]
	 SCS Total Energy          =    -149.7519035364647664 [Eh]
	-----------------------------------------------------------

  Dipole Moment: [D]
     X:    -2.6270      Y:     1.2208      Z:    -0.0000     Total:     2.8968

*** Psi4 exiting successfully. Buy a developer a beer!
