                               Psi4 1.3.2 release

  ==> Input File <==

--------------------------------------------------------------------------
#psi4
#
memory 32 gb

molecule  {
0 1
  C        0.0000000     0.4159560     0.0000000
  H       -0.3340900     1.4603970     0.0000000
  N        1.2245270     0.0209870     0.0000000
  H        1.7206134     0.6746011     0.0000000
  N       -1.0366190    -0.4720110     0.0000000
  H       -0.8260900    -1.4592660     0.0000000
  H       -1.9967030    -0.1736100     0.0000000
units angstrom
no_reorient  #important for SAPT in psi4, default
symmetry c1  #important for SAPT in psi4, default
}

set PROPERTIES_ORIGIN ["COM"]
properties('MP2/aug-cc-pvtz', properties = ['dipole'])
--------------------------------------------------------------------------

    Molecular point group: c1
  Charge       = 0
  Multiplicity = 1
  Basis Set: AUG-CC-PVTZ
    Blend: AUG-CC-PVTZ
  Basis Set: (AUG-CC-PVTZ AUX)
    Blend: AUG-CC-PVTZ-JKFIT

    Orbital Energies [Eh]
    ---------------------

    Doubly Occupied:

       1A    -15.578353     2A    -15.497887     3A    -11.319342
       4A     -1.263002     5A     -1.164543     6A     -0.849305
       7A     -0.757210     8A     -0.648509     9A     -0.632426
      10A     -0.526367    11A     -0.429524    12A     -0.362793

  @DF-RHF Final Energy:  -149.10042526195843

   => Energetics <=

    Nuclear Repulsion Energy =             73.0734684339545595
    One-Electron Energy =                -346.2892664319271603
    Two-Electron Energy =                 124.1153727360141374
    Total Energy =                       -149.1004252619584349
  Basis Set: (AUG-CC-PVTZ AUX)
    Blend: AUG-CC-PVTZ-RI
    Molecular point group: c1

    Geometry (in Angstrom), charge = 0, multiplicity = 1:

       Center              X                  Y                   Z               Mass
    ------------   -----------------  -----------------  -----------------  -----------------
         C           -0.026881239131     0.434535623996     0.000000000000    12.000000000000
         H           -0.360971239131     1.478976623996     0.000000000000     1.007825032230
         N            1.197645760869     0.039566623996     0.000000000000    14.003074004430
         H            1.693732160869     0.693180723996     0.000000000000     1.007825032230
         N           -1.063500239131    -0.453431376004     0.000000000000    14.003074004430
         H           -0.852971239131    -1.440686376004     0.000000000000     1.007825032230
         H           -2.023584239131    -0.155030376004     0.000000000000     1.007825032230

  Basis Set: AUG-CC-PVTZ
    Blend: AUG-CC-PVTZ
  Basis Set: (AUG-CC-PVTZ AUX)
    Blend: AUG-CC-PVTZ-JKFIT
	 Reference Energy          =    -149.1004252619584349 [Eh]
	 Singles Energy            =      -0.0000000000000000 [Eh]
	 Same-Spin Energy          =      -0.1509571648037255 [Eh]
	 Opposite-Spin Energy      =      -0.4896317359016106 [Eh]
	 Correlation Energy        =      -0.6405889007053361 [Eh]
	 Total Energy              =    -149.7410141626637596 [Eh]

	 ================> DF-SCS-MP2 Energies <==================
	-----------------------------------------------------------
	 SCS Same-Spin Scale       =       0.3333333333333333 [-]
	 SCS Opposite-Spin Scale   =       1.2000000000000000 [-]
	 SCS Same-Spin Energy      =      -0.0503190549345752 [Eh]
	 SCS Opposite-Spin Energy  =      -0.5875580830819327 [Eh]
	 SCS Correlation Energy    =      -0.6378771380165079 [Eh]
	 SCS Total Energy          =    -149.7383023999749412 [Eh]
	-----------------------------------------------------------

  Dipole Moment: [D]
     X:    -2.6548      Y:     1.1219      Z:    -0.0000     Total:     2.8821

*** Psi4 exiting successfully. Buy a developer a beer!
