                               Psi4 1.4a3.dev225

  ==> Input File <==

--------------------------------------------------------------------------
#psi4
#
memory 32 gb

molecule  {
0 1
  C       -0.1211700     0.4020020    -0.0021590
  H       -0.1136998     1.4781846    -0.0179447
  N       -1.1713390    -0.3373500     0.0193110
  H       -2.0047150     0.2528190    -0.0022480
  N        1.1420860    -0.1478600    -0.0823680
  H        1.8904430     0.3751290     0.3530900
  H        1.1596200    -1.1416750     0.1217560
units angstrom
no_reorient  #important for SAPT in psi4, default
symmetry c1  #important for SAPT in psi4, default
}

set PROPERTIES_ORIGIN ["COM"]
properties('MP2/aug-cc-pvtz', properties = ['dipole'])
--------------------------------------------------------------------------

    Molecular point group: c1
  Charge       = 0
  Multiplicity = 1
  Basis Set: AUG-CC-PVTZ
    Blend: AUG-CC-PVTZ
  Basis Set: (AUG-CC-PVTZ AUX)
    Blend: AUG-CC-PVTZ-JKFIT

    Orbital Energies [Eh]
    ---------------------

    Doubly Occupied:

       1A    -15.577069     2A    -15.532375     3A    -11.315834
       4A     -1.255522     5A     -1.139563     6A     -0.826440
       7A     -0.736866     8A     -0.629645     9A     -0.619494
      10A     -0.524537    11A     -0.428522    12A     -0.373210

  @DF-RHF Final Energy:  -149.14347540505582

   => Energetics <=

    Nuclear Repulsion Energy =             71.9200828838660158
    One-Electron Energy =                -344.2089598827730583
    Two-Electron Energy =                 123.1454015938512043
    Total Energy =                       -149.1434754050558240
  Basis Set: (AUG-CC-PVTZ AUX)
    Blend: AUG-CC-PVTZ-RI
    Molecular point group: c1

    Geometry (in Angstrom), charge = 0, multiplicity = 1:

       Center              X                  Y                   Z               Mass
    ------------   -----------------  -----------------  -----------------  -----------------
         C           -0.100171200438     0.424673682127     0.008075218372    12.000000000000
         H           -0.092701000438     1.500856282127    -0.007710481628     1.007825032230
         N           -1.150340200438    -0.314678317873     0.029545218372    14.003074004430
         H           -1.983716200438     0.275490682127     0.007986218372     1.007825032230
         N            1.163084799562    -0.125188317873    -0.072133781628    14.003074004430
         H            1.911441799562     0.397800682127     0.363324218372     1.007825032230
         H            1.180618799562    -1.119003317873     0.131990218372     1.007825032230

  Basis Set: AUG-CC-PVTZ
    Blend: AUG-CC-PVTZ
  Basis Set: (AUG-CC-PVTZ AUX)
    Blend: AUG-CC-PVTZ-JKFIT
	 Reference Energy          =    -149.1434754050558240 [Eh]
	 Singles Energy            =      -0.0000000000000000 [Eh]
	 Same-Spin Energy          =      -0.1515267961649332 [Eh]
	 Opposite-Spin Energy      =      -0.4925778772866934 [Eh]
	 Correlation Energy        =      -0.6441046734516266 [Eh]
	 Total Energy              =    -149.7875800785074603 [Eh]

	 ================> DF-SCS-MP2 Energies <==================
	-----------------------------------------------------------
	 SCS Same-Spin Scale       =       0.3333333333333333 [-]
	 SCS Opposite-Spin Scale   =       1.2000000000000000 [-]
	 SCS Same-Spin Energy      =      -0.0505089320549777 [Eh]
	 SCS Opposite-Spin Energy  =      -0.5910934527440320 [Eh]
	 SCS Correlation Energy    =      -0.6416023847990098 [Eh]
	 SCS Total Energy          =    -149.7850777898548245 [Eh]
	-----------------------------------------------------------

  Dipole Moment: [D]
     X:     1.6070      Y:     1.8171      Z:     0.8687     Total:     2.5767

*** Psi4 exiting successfully. Buy a developer a beer!
