                               Psi4 1.3.2 release

  ==> Input File <==

--------------------------------------------------------------------------
#psi4
#
memory 32 gb

molecule  {
0 1
  C        0.0000000     0.4159560     0.0000000
  H       -0.3158111     1.4660686     0.0000000
  N        1.2245270     0.0209870     0.0000000
  H        1.8415280     0.8339110     0.0000000
  N       -1.0366190    -0.4720110     0.0000000
  H       -0.8260900    -1.4592660     0.0000000
  H       -1.9967030    -0.1736100     0.0000000
units angstrom
no_reorient  #important for SAPT in psi4, default
symmetry c1  #important for SAPT in psi4, default
}

set PROPERTIES_ORIGIN ["COM"]
properties('MP2/aug-cc-pvtz', properties = ['dipole'])
--------------------------------------------------------------------------

    Molecular point group: c1
  Charge       = 0
  Multiplicity = 1
  Basis Set: AUG-CC-PVTZ
    Blend: AUG-CC-PVTZ
  Basis Set: (AUG-CC-PVTZ AUX)
    Blend: AUG-CC-PVTZ-JKFIT

    Orbital Energies [Eh]
    ---------------------

    Doubly Occupied:

       1A    -15.578078     2A    -15.523486     3A    -11.317742
       4A     -1.253986     5A     -1.135996     6A     -0.827976
       7A     -0.742722     8A     -0.635491     9A     -0.617508
      10A     -0.525803    11A     -0.422346    12A     -0.360969

  @DF-RHF Final Energy:  -149.14329219168894

   => Energetics <=

    Nuclear Repulsion Energy =             71.9530417355819765
    One-Electron Energy =                -344.3084628827206757
    Two-Electron Energy =                 123.2121289554497565
    Total Energy =                       -149.1432921916889427
  Basis Set: (AUG-CC-PVTZ AUX)
    Blend: AUG-CC-PVTZ-RI
    Molecular point group: c1

    Geometry (in Angstrom), charge = 0, multiplicity = 1:

       Center              X                  Y                   Z               Mass
    ------------   -----------------  -----------------  -----------------  -----------------
         C           -0.030066770981     0.430759917352     0.000000000000    12.000000000000
         H           -0.345877870981     1.480872517352     0.000000000000     1.007825032230
         N            1.194460229019     0.035790917352     0.000000000000    14.003074004430
         H            1.811461229019     0.848714917352     0.000000000000     1.007825032230
         N           -1.066685770981    -0.457207082648     0.000000000000    14.003074004430
         H           -0.856156770981    -1.444462082648     0.000000000000     1.007825032230
         H           -2.026769770981    -0.158806082648     0.000000000000     1.007825032230

  Basis Set: AUG-CC-PVTZ
    Blend: AUG-CC-PVTZ
  Basis Set: (AUG-CC-PVTZ AUX)
    Blend: AUG-CC-PVTZ-JKFIT
	 Reference Energy          =    -149.1432921916889427 [Eh]
	 Singles Energy            =      -0.0000000000000000 [Eh]
	 Same-Spin Energy          =      -0.1518571662043313 [Eh]
	 Opposite-Spin Energy      =      -0.4922463664146881 [Eh]
	 Correlation Energy        =      -0.6441035326190194 [Eh]
	 Total Energy              =    -149.7873957243079701 [Eh]

	 ================> DF-SCS-MP2 Energies <==================
	-----------------------------------------------------------
	 SCS Same-Spin Scale       =       0.3333333333333333 [-]
	 SCS Opposite-Spin Scale   =       1.2000000000000000 [-]
	 SCS Same-Spin Energy      =      -0.0506190554014438 [Eh]
	 SCS Opposite-Spin Energy  =      -0.5906956396976257 [Eh]
	 SCS Correlation Energy    =      -0.6413146950990695 [Eh]
	 SCS Total Energy          =    -149.7846068867880263 [Eh]
	-----------------------------------------------------------

  Dipole Moment: [D]
     X:    -2.5624      Y:     1.1399      Z:     0.0000     Total:     2.8045

*** Psi4 exiting successfully. Buy a developer a beer!
