                               Psi4 1.3.2 release

  ==> Input File <==

--------------------------------------------------------------------------
#psi4
#
memory 32 gb

molecule  {
0 1
  C        0.0000000     0.4159560     0.0000000
  H       -0.3340900     1.4603970     0.0000000
  N        1.2591044     0.1511486     0.0000000
  H        1.8415280     0.8339110     0.0000000
  N       -1.0366190    -0.4720110     0.0000000
  H       -0.8260900    -1.4592660     0.0000000
  H       -1.9967030    -0.1736100     0.0000000
units angstrom
no_reorient  #important for SAPT in psi4, default
symmetry c1  #important for SAPT in psi4, default
}

set PROPERTIES_ORIGIN ["COM"]
properties('MP2/aug-cc-pvtz', properties = ['dipole'])
--------------------------------------------------------------------------

    Molecular point group: c1
  Charge       = 0
  Multiplicity = 1
  Basis Set: AUG-CC-PVTZ
    Blend: AUG-CC-PVTZ
  Basis Set: (AUG-CC-PVTZ AUX)
    Blend: AUG-CC-PVTZ-JKFIT

    Orbital Energies [Eh]
    ---------------------

    Doubly Occupied:

       1A    -15.584107     2A    -15.506772     3A    -11.320769
       4A     -1.253953     5A     -1.151631     6A     -0.843639
       7A     -0.751049     8A     -0.664357     9A     -0.627466
      10A     -0.526678    11A     -0.406112    12A     -0.364555

  @DF-RHF Final Energy:  -149.12896475942983

   => Energetics <=

    Nuclear Repulsion Energy =             72.1257588353825838
    One-Electron Energy =                -344.5072701819128156
    Two-Electron Energy =                 123.2525465871004258
    Total Energy =                       -149.1289647594298344
  Basis Set: (AUG-CC-PVTZ AUX)
    Blend: AUG-CC-PVTZ-RI
    Molecular point group: c1

    Geometry (in Angstrom), charge = 0, multiplicity = 1:

       Center              X                  Y                   Z               Mass
    ------------   -----------------  -----------------  -----------------  -----------------
         C           -0.040643404682     0.389500793272     0.000000000000    12.000000000000
         H           -0.374733404682     1.433941793272     0.000000000000     1.007825032230
         N            1.218460995318     0.124693393272     0.000000000000    14.003074004430
         H            1.800884595318     0.807455793272     0.000000000000     1.007825032230
         N           -1.077262404682    -0.498466206728     0.000000000000    14.003074004430
         H           -0.866733404682    -1.485721206728     0.000000000000     1.007825032230
         H           -2.037346404682    -0.200065206728     0.000000000000     1.007825032230

  Basis Set: AUG-CC-PVTZ
    Blend: AUG-CC-PVTZ
  Basis Set: (AUG-CC-PVTZ AUX)
    Blend: AUG-CC-PVTZ-JKFIT
	 Reference Energy          =    -149.1289647594298344 [Eh]
	 Singles Energy            =      -0.0000000000000000 [Eh]
	 Same-Spin Energy          =      -0.1511065195728904 [Eh]
	 Opposite-Spin Energy      =      -0.4901407952408444 [Eh]
	 Correlation Energy        =      -0.6412473148137348 [Eh]
	 Total Energy              =    -149.7702120742435739 [Eh]

	 ================> DF-SCS-MP2 Energies <==================
	-----------------------------------------------------------
	 SCS Same-Spin Scale       =       0.3333333333333333 [-]
	 SCS Opposite-Spin Scale   =       1.2000000000000000 [-]
	 SCS Same-Spin Energy      =      -0.0503688398576301 [Eh]
	 SCS Opposite-Spin Energy  =      -0.5881689542890133 [Eh]
	 SCS Correlation Energy    =      -0.6385377941466434 [Eh]
	 SCS Total Energy          =    -149.7675025535764917 [Eh]
	-----------------------------------------------------------

  Dipole Moment: [D]
     X:    -2.6596      Y:     0.8771      Z:     0.0000     Total:     2.8005

*** Psi4 exiting successfully. Buy a developer a beer!
