                               Psi4 1.3.2 release

  ==> Input File <==

--------------------------------------------------------------------------
#psi4
#
memory 32 gb

molecule  {
0 1
  C        0.0000000     0.4159560     0.0000000
  H       -0.3340900     1.4603970     0.0000000
  N        1.2312337     0.0424181     0.0000000
  H        1.8415280     0.8339110     0.0000000
  N       -1.0366190    -0.4720110     0.0000000
  H       -0.8260900    -1.4592660     0.0000000
  H       -1.9967030    -0.1736100     0.0000000
units angstrom
no_reorient  #important for SAPT in psi4, default
symmetry c1  #important for SAPT in psi4, default
}

set PROPERTIES_ORIGIN ["COM"]
properties('MP2/aug-cc-pvtz', properties = ['dipole'])
--------------------------------------------------------------------------

    Molecular point group: c1
  Charge       = 0
  Multiplicity = 1
  Basis Set: AUG-CC-PVTZ
    Blend: AUG-CC-PVTZ
  Basis Set: (AUG-CC-PVTZ AUX)
    Blend: AUG-CC-PVTZ-JKFIT

    Orbital Energies [Eh]
    ---------------------

    Doubly Occupied:

       1A    -15.578814     2A    -15.520930     3A    -11.318172
       4A     -1.253854     5A     -1.138375     6A     -0.830352
       7A     -0.744177     8A     -0.635382     9A     -0.623411
      10A     -0.525815    11A     -0.420400    12A     -0.361548

  @DF-RHF Final Energy:  -149.14369662294737

   => Energetics <=

    Nuclear Repulsion Energy =             71.9731169002196651
    One-Electron Energy =                -344.3311645934453509
    Two-Electron Energy =                 123.2143510702782834
    Total Energy =                       -149.1436966229474024
  Basis Set: (AUG-CC-PVTZ AUX)
    Blend: AUG-CC-PVTZ-RI
    Molecular point group: c1

    Geometry (in Angstrom), charge = 0, multiplicity = 1:

       Center              X                  Y                   Z               Mass
    ------------   -----------------  -----------------  -----------------  -----------------
         C           -0.031781050228     0.424075031844     0.000000000000    12.000000000000
         H           -0.365871050228     1.468516031844     0.000000000000     1.007825032230
         N            1.199452649772     0.050537131844     0.000000000000    14.003074004430
         H            1.809746949772     0.842030031844     0.000000000000     1.007825032230
         N           -1.068400050228    -0.463891968156     0.000000000000    14.003074004430
         H           -0.857871050228    -1.451146968156     0.000000000000     1.007825032230
         H           -2.028484050228    -0.165490968156     0.000000000000     1.007825032230

  Basis Set: AUG-CC-PVTZ
    Blend: AUG-CC-PVTZ
  Basis Set: (AUG-CC-PVTZ AUX)
    Blend: AUG-CC-PVTZ-JKFIT
	 Reference Energy          =    -149.1436966229473740 [Eh]
	 Singles Energy            =      -0.0000000000000000 [Eh]
	 Same-Spin Energy          =      -0.1517094967125521 [Eh]
	 Opposite-Spin Energy      =      -0.4918283262800331 [Eh]
	 Correlation Energy        =      -0.6435378229925852 [Eh]
	 Total Energy              =    -149.7872344459399585 [Eh]

	 ================> DF-SCS-MP2 Energies <==================
	-----------------------------------------------------------
	 SCS Same-Spin Scale       =       0.3333333333333333 [-]
	 SCS Opposite-Spin Scale   =       1.2000000000000000 [-]
	 SCS Same-Spin Energy      =      -0.0505698322375174 [Eh]
	 SCS Opposite-Spin Energy  =      -0.5901939915360397 [Eh]
	 SCS Correlation Energy    =      -0.6407638237735571 [Eh]
	 SCS Total Energy          =    -149.7844604467209422 [Eh]
	-----------------------------------------------------------

  Dipole Moment: [D]
     X:    -2.5779      Y:     1.0973      Z:    -0.0000     Total:     2.8017

*** Psi4 exiting successfully. Buy a developer a beer!
