                               Psi4 1.4a3.dev225

  ==> Input File <==

--------------------------------------------------------------------------
#psi4
#
memory 32 gb

molecule  {
0 1
  C       -0.1211700     0.4020020    -0.0021590
  H       -0.1135610     1.4981820    -0.0182380
  N       -1.1713390    -0.3373500     0.0193110
  H       -2.0210331     0.2643750    -0.0026701
  N        1.1420860    -0.1478600    -0.0823680
  H        1.8904430     0.3751290     0.3530900
  H        1.1596200    -1.1416750     0.1217560
units angstrom
no_reorient  #important for SAPT in psi4, default
symmetry c1  #important for SAPT in psi4, default
}

set PROPERTIES_ORIGIN ["COM"]
properties('MP2/aug-cc-pvtz', properties = ['dipole'])
--------------------------------------------------------------------------

    Molecular point group: c1
  Charge       = 0
  Multiplicity = 1
  Basis Set: AUG-CC-PVTZ
    Blend: AUG-CC-PVTZ
  Basis Set: (AUG-CC-PVTZ AUX)
    Blend: AUG-CC-PVTZ-JKFIT

    Orbital Energies [Eh]
    ---------------------

    Doubly Occupied:

       1A    -15.577424     2A    -15.534985     3A    -11.318106
       4A     -1.254980     5A     -1.137791     6A     -0.821891
       7A     -0.734233     8A     -0.627451     9A     -0.616839
      10A     -0.524710    11A     -0.427290    12A     -0.373372

  @DF-RHF Final Energy:  -149.14232017270780

   => Energetics <=

    Nuclear Repulsion Energy =             71.7430594056878306
    One-Electron Energy =                -343.8726165445963829
    Two-Electron Energy =                 122.9872369662007969
    Total Energy =                       -149.1423201727077981
  Basis Set: (AUG-CC-PVTZ AUX)
    Blend: AUG-CC-PVTZ-RI
    Molecular point group: c1

    Geometry (in Angstrom), charge = 0, multiplicity = 1:

       Center              X                  Y                   Z               Mass
    ------------   -----------------  -----------------  -----------------  -----------------
         C           -0.099800926859     0.423951562483     0.008091590756    12.000000000000
         H           -0.092191926859     1.520131562483    -0.007987409244     1.007825032230
         N           -1.149969926859    -0.315400437517     0.029561590756    14.003074004430
         H           -1.999664026859     0.286324562483     0.007580490756     1.007825032230
         N            1.163455073141    -0.125910437517    -0.072117409244    14.003074004430
         H            1.911812073141     0.397078562483     0.363340590756     1.007825032230
         H            1.180989073141    -1.119725437517     0.132006590756     1.007825032230

  Basis Set: AUG-CC-PVTZ
    Blend: AUG-CC-PVTZ
  Basis Set: (AUG-CC-PVTZ AUX)
    Blend: AUG-CC-PVTZ-JKFIT
	 Reference Energy          =    -149.1423201727077981 [Eh]
	 Singles Energy            =      -0.0000000000000000 [Eh]
	 Same-Spin Energy          =      -0.1516782745622034 [Eh]
	 Opposite-Spin Energy      =      -0.4930187284534177 [Eh]
	 Correlation Energy        =      -0.6446970030156211 [Eh]
	 Total Energy              =    -149.7870171757234061 [Eh]

	 ================> DF-SCS-MP2 Energies <==================
	-----------------------------------------------------------
	 SCS Same-Spin Scale       =       0.3333333333333333 [-]
	 SCS Opposite-Spin Scale   =       1.2000000000000000 [-]
	 SCS Same-Spin Energy      =      -0.0505594248540678 [Eh]
	 SCS Opposite-Spin Energy  =      -0.5916224741441012 [Eh]
	 SCS Correlation Energy    =      -0.6421818989981690 [Eh]
	 SCS Total Energy          =    -149.7845020717059583 [Eh]
	-----------------------------------------------------------

  Dipole Moment: [D]
     X:     1.5990      Y:     1.8010      Z:     0.8683     Total:     2.5602

*** Psi4 exiting successfully. Buy a developer a beer!
