                               Psi4 1.3.2 release

  ==> Input File <==

--------------------------------------------------------------------------
#psi4
#
memory 32 gb

molecule  {
0 1
  C        0.0000000     0.4159560     0.0000000
  H       -0.3340900     1.4603970     0.0000000
  N        1.0341835     0.0823820     0.0000000
  H        1.8415280     0.8339110     0.0000000
  N       -1.0366190    -0.4720110     0.0000000
  H       -0.8260900    -1.4592660     0.0000000
  H       -1.9967030    -0.1736100     0.0000000
units angstrom
no_reorient  #important for SAPT in psi4, default
symmetry c1  #important for SAPT in psi4, default
}

set PROPERTIES_ORIGIN ["COM"]
properties('MP2/aug-cc-pvtz', properties = ['dipole'])
--------------------------------------------------------------------------

    Molecular point group: c1
  Charge       = 0
  Multiplicity = 1
  Basis Set: AUG-CC-PVTZ
    Blend: AUG-CC-PVTZ
  Basis Set: (AUG-CC-PVTZ AUX)
    Blend: AUG-CC-PVTZ-JKFIT

    Orbital Energies [Eh]
    ---------------------

    Doubly Occupied:

       1A    -15.548650     2A    -15.507174     3A    -11.271823
       4A     -1.307086     5A     -1.154244     6A     -0.795984
       7A     -0.747243     8A     -0.644124     9A     -0.624207
      10A     -0.560116    11A     -0.398835    12A     -0.378293

  @DF-RHF Final Energy:  -149.08030785298939

   => Energetics <=

    Nuclear Repulsion Energy =             76.0551717814857398
    One-Electron Energy =                -352.3953991353358219
    Two-Electron Energy =                 127.2599195008606756
    Total Energy =                       -149.0803078529893924
  Basis Set: (AUG-CC-PVTZ AUX)
    Blend: AUG-CC-PVTZ-RI
    Molecular point group: c1

    Geometry (in Angstrom), charge = 0, multiplicity = 1:

       Center              X                  Y                   Z               Mass
    ------------   -----------------  -----------------  -----------------  -----------------
         C            0.030877179299     0.411367268954     0.000000000000    12.000000000000
         H           -0.303212820701     1.455808268954     0.000000000000     1.007825032230
         N            1.065060679299     0.077793268954     0.000000000000    14.003074004430
         H            1.872405179299     0.829322268954     0.000000000000     1.007825032230
         N           -1.005741820701    -0.476599731046     0.000000000000    14.003074004430
         H           -0.795212820701    -1.463854731046     0.000000000000     1.007825032230
         H           -1.965825820701    -0.178198731046     0.000000000000     1.007825032230

  Basis Set: AUG-CC-PVTZ
    Blend: AUG-CC-PVTZ
  Basis Set: (AUG-CC-PVTZ AUX)
    Blend: AUG-CC-PVTZ-JKFIT
	 Reference Energy          =    -149.0803078529893924 [Eh]
	 Singles Energy            =      -0.0000000000000000 [Eh]
	 Same-Spin Energy          =      -0.1504746652345658 [Eh]
	 Opposite-Spin Energy      =      -0.4861570271584528 [Eh]
	 Correlation Energy        =      -0.6366316923930186 [Eh]
	 Total Energy              =    -149.7169395453824166 [Eh]

	 ================> DF-SCS-MP2 Energies <==================
	-----------------------------------------------------------
	 SCS Same-Spin Scale       =       0.3333333333333333 [-]
	 SCS Opposite-Spin Scale   =       1.2000000000000000 [-]
	 SCS Same-Spin Energy      =      -0.0501582217448553 [Eh]
	 SCS Opposite-Spin Energy  =      -0.5833884325901434 [Eh]
	 SCS Correlation Energy    =      -0.6335466543349987 [Eh]
	 SCS Total Energy          =    -149.7138545073243847 [Eh]
	-----------------------------------------------------------

  Dipole Moment: [D]
     X:    -1.2515      Y:     1.1577      Z:     0.0000     Total:     1.7049

*** Psi4 exiting successfully. Buy a developer a beer!
