                               Psi4 1.3.2 release

  ==> Input File <==

--------------------------------------------------------------------------
#psi4
#
memory 32 gb

molecule  {
0 1
  C        0.0000000     0.4159560     0.0000000
  H       -0.3340900     1.4603970     0.0000000
  N        1.1939925    -0.0634696     0.0000000
  H        1.8415280     0.8339110     0.0000000
  N       -1.0366190    -0.4720110     0.0000000
  H       -0.8260900    -1.4592660     0.0000000
  H       -1.9967030    -0.1736100     0.0000000
units angstrom
no_reorient  #important for SAPT in psi4, default
symmetry c1  #important for SAPT in psi4, default
}

set PROPERTIES_ORIGIN ["COM"]
properties('MP2/aug-cc-pvtz', properties = ['dipole'])
--------------------------------------------------------------------------

    Molecular point group: c1
  Charge       = 0
  Multiplicity = 1
  Basis Set: AUG-CC-PVTZ
    Blend: AUG-CC-PVTZ
  Basis Set: (AUG-CC-PVTZ AUX)
    Blend: AUG-CC-PVTZ-JKFIT

    Orbital Energies [Eh]
    ---------------------

    Doubly Occupied:

       1A    -15.574034     2A    -15.535216     3A    -11.317757
       4A     -1.255601     5A     -1.127014     6A     -0.824365
       7A     -0.737264     8A     -0.634358     9A     -0.590904
      10A     -0.526096    11A     -0.431144    12A     -0.359199

  @DF-RHF Final Energy:  -149.13275775596591

   => Energetics <=

    Nuclear Repulsion Energy =             71.9304072747652725
    One-Electron Energy =                -344.3004245597598469
    Two-Electron Energy =                 123.2372595290286483
    Total Energy =                       -149.1327577559659119
  Basis Set: (AUG-CC-PVTZ AUX)
    Blend: AUG-CC-PVTZ-RI
    Molecular point group: c1

    Geometry (in Angstrom), charge = 0, multiplicity = 1:

       Center              X                  Y                   Z               Mass
    ------------   -----------------  -----------------  -----------------  -----------------
         C           -0.019939054343     0.457745313887     0.000000000000    12.000000000000
         H           -0.354029054343     1.502186313887     0.000000000000     1.007825032230
         N            1.174053445657    -0.021680286113     0.000000000000    14.003074004430
         H            1.821588945657     0.875700313887     0.000000000000     1.007825032230
         N           -1.056558054343    -0.430221686113     0.000000000000    14.003074004430
         H           -0.846029054343    -1.417476686113     0.000000000000     1.007825032230
         H           -2.016642054343    -0.131820686113     0.000000000000     1.007825032230

  Basis Set: AUG-CC-PVTZ
    Blend: AUG-CC-PVTZ
  Basis Set: (AUG-CC-PVTZ AUX)
    Blend: AUG-CC-PVTZ-JKFIT
	 Reference Energy          =    -149.1327577559659119 [Eh]
	 Singles Energy            =      -0.0000000000000000 [Eh]
	 Same-Spin Energy          =      -0.1527368183379092 [Eh]
	 Opposite-Spin Energy      =      -0.4945912239258493 [Eh]
	 Correlation Energy        =      -0.6473280422637585 [Eh]
	 Total Energy              =    -149.7800857982296634 [Eh]

	 ================> DF-SCS-MP2 Energies <==================
	-----------------------------------------------------------
	 SCS Same-Spin Scale       =       0.3333333333333333 [-]
	 SCS Opposite-Spin Scale   =       1.2000000000000000 [-]
	 SCS Same-Spin Energy      =      -0.0509122727793031 [Eh]
	 SCS Opposite-Spin Energy  =      -0.5935094687110192 [Eh]
	 SCS Correlation Energy    =      -0.6444217414903223 [Eh]
	 SCS Total Energy          =    -149.7771794974562454 [Eh]
	-----------------------------------------------------------

  Dipole Moment: [D]
     X:    -2.5046      Y:     1.2697      Z:     0.0000     Total:     2.8081

*** Psi4 exiting successfully. Buy a developer a beer!
