                               Psi4 1.3.2 release

  ==> Input File <==

--------------------------------------------------------------------------
#psi4
#
memory 32 gb

molecule  {
0 1
  C       -0.1211700     0.4020020    -0.0021590
  H       -0.1135610     1.4981820    -0.0182380
  N       -1.1713390    -0.3373500     0.0193110
  H       -2.0047150     0.2528190    -0.0022480
  N        1.1420860    -0.1478600    -0.0823680
  H        1.8756464     0.3647884     0.3444801
  H        1.1596200    -1.1416750     0.1217560
units angstrom
no_reorient  #important for SAPT in psi4, default
symmetry c1  #important for SAPT in psi4, default
}

set PROPERTIES_ORIGIN ["COM"]
properties('MP2/aug-cc-pvtz', properties = ['dipole'])
--------------------------------------------------------------------------

    Molecular point group: c1
  Charge       = 0
  Multiplicity = 1
  Basis Set: AUG-CC-PVTZ
    Blend: AUG-CC-PVTZ
  Basis Set: (AUG-CC-PVTZ AUX)
    Blend: AUG-CC-PVTZ-JKFIT

    Orbital Energies [Eh]
    ---------------------

    Doubly Occupied:

       1A    -15.575369     2A    -15.532709     3A    -11.318233
       4A     -1.256902     5A     -1.141555     6A     -0.824282
       7A     -0.739280     8A     -0.628230     9A     -0.621305
      10A     -0.524975    11A     -0.428154    12A     -0.373705

  @DF-RHF Final Energy:  -149.14362949958837

   => Energetics <=

    Nuclear Repulsion Energy =             71.9320417869552529
    One-Electron Energy =                -344.2219442201921993
    Two-Electron Energy =                 123.1462729336485467
    Total Energy =                       -149.1436294995883713
  Basis Set: (AUG-CC-PVTZ AUX)
    Blend: AUG-CC-PVTZ-RI
    Molecular point group: c1

    Geometry (in Angstrom), charge = 0, multiplicity = 1:

       Center              X                  Y                   Z               Mass
    ------------   -----------------  -----------------  -----------------  -----------------
         C           -0.099835747355     0.424452680113     0.008278973771    12.000000000000
         H           -0.092226747355     1.520632680113    -0.007800026229     1.007825032230
         N           -1.150004747355    -0.314899319887     0.029748973771    14.003074004430
         H           -1.983380747355     0.275269680113     0.008189973771     1.007825032230
         N            1.163420252645    -0.125409319887    -0.071930026229    14.003074004430
         H            1.896980652645     0.387239080113     0.354918073771     1.007825032230
         H            1.180954252645    -1.119224319887     0.132193973771     1.007825032230

  Basis Set: AUG-CC-PVTZ
    Blend: AUG-CC-PVTZ
  Basis Set: (AUG-CC-PVTZ AUX)
    Blend: AUG-CC-PVTZ-JKFIT
	 Reference Energy          =    -149.1436294995883713 [Eh]
	 Singles Energy            =      -0.0000000000000000 [Eh]
	 Same-Spin Energy          =      -0.1514730789954839 [Eh]
	 Opposite-Spin Energy      =      -0.4923707216027221 [Eh]
	 Correlation Energy        =      -0.6438438005982060 [Eh]
	 Total Energy              =    -149.7874733001865764 [Eh]

	 ================> DF-SCS-MP2 Energies <==================
	-----------------------------------------------------------
	 SCS Same-Spin Scale       =       0.3333333333333333 [-]
	 SCS Opposite-Spin Scale   =       1.2000000000000000 [-]
	 SCS Same-Spin Energy      =      -0.0504910263318280 [Eh]
	 SCS Opposite-Spin Energy  =      -0.5908448659232665 [Eh]
	 SCS Correlation Energy    =      -0.6413358922550945 [Eh]
	 SCS Total Energy          =    -149.7849653918434569 [Eh]
	-----------------------------------------------------------

  Dipole Moment: [D]
     X:     1.5912      Y:     1.7949      Z:     0.8631     Total:     2.5492

*** Psi4 exiting successfully. Buy a developer a beer!
