                               Psi4 1.3.2 release

  ==> Input File <==

--------------------------------------------------------------------------
#psi4
#
memory 32 gb

molecule  {
0 1
  C        0.0000000     0.4159560     0.0000000
  H       -0.3950235     1.6508888     0.0000000
  N        1.2245270     0.0209870     0.0000000
  H        1.8415280     0.8339110     0.0000000
  N       -1.0366190    -0.4720110     0.0000000
  H       -0.8260900    -1.4592660     0.0000000
  H       -1.9967030    -0.1736100     0.0000000
units angstrom
no_reorient  #important for SAPT in psi4, default
symmetry c1  #important for SAPT in psi4, default
}

set PROPERTIES_ORIGIN ["COM"]
properties('MP2/aug-cc-pvtz', properties = ['dipole'])
--------------------------------------------------------------------------

    Molecular point group: c1
  Charge       = 0
  Multiplicity = 1
  Basis Set: AUG-CC-PVTZ
    Blend: AUG-CC-PVTZ
  Basis Set: (AUG-CC-PVTZ AUX)
    Blend: AUG-CC-PVTZ-JKFIT

    Orbital Energies [Eh]
    ---------------------

    Doubly Occupied:

       1A    -15.581396     2A    -15.527715     3A    -11.339657
       4A     -1.254664     5A     -1.138865     6A     -0.811998
       7A     -0.734325     8A     -0.624690     9A     -0.600621
      10A     -0.528437    11A     -0.417593    12A     -0.364084

  @DF-RHF Final Energy:  -149.12198603223203

   => Energetics <=

    Nuclear Repulsion Energy =             71.2133767263867128
    One-Electron Energy =                -342.8226377876584934
    Two-Electron Energy =                 122.4872750290397931
    Total Energy =                       -149.1219860322320301
  Basis Set: (AUG-CC-PVTZ AUX)
    Blend: AUG-CC-PVTZ-RI
    Molecular point group: c1

    Geometry (in Angstrom), charge = 0, multiplicity = 1:

       Center              X                  Y                   Z               Mass
    ------------   -----------------  -----------------  -----------------  -----------------
         C           -0.028253944785     0.426530189429     0.000000000000    12.000000000000
         H           -0.423277444785     1.661462989429     0.000000000000     1.007825032230
         N            1.196273055215     0.031561189429     0.000000000000    14.003074004430
         H            1.813274055215     0.844485189429     0.000000000000     1.007825032230
         N           -1.064872944785    -0.461436810571     0.000000000000    14.003074004430
         H           -0.854343944785    -1.448691810571     0.000000000000     1.007825032230
         H           -2.024956944785    -0.163035810571     0.000000000000     1.007825032230

  Basis Set: AUG-CC-PVTZ
    Blend: AUG-CC-PVTZ
  Basis Set: (AUG-CC-PVTZ AUX)
    Blend: AUG-CC-PVTZ-JKFIT
	 Reference Energy          =    -149.1219860322320301 [Eh]
	 Singles Energy            =      -0.0000000000000000 [Eh]
	 Same-Spin Energy          =      -0.1525563264045739 [Eh]
	 Opposite-Spin Energy      =      -0.4941611110101540 [Eh]
	 Correlation Energy        =      -0.6467174374147280 [Eh]
	 Total Energy              =    -149.7687034696467663 [Eh]

	 ================> DF-SCS-MP2 Energies <==================
	-----------------------------------------------------------
	 SCS Same-Spin Scale       =       0.3333333333333333 [-]
	 SCS Opposite-Spin Scale   =       1.2000000000000000 [-]
	 SCS Same-Spin Energy      =      -0.0508521088015246 [Eh]
	 SCS Opposite-Spin Energy  =      -0.5929933332121847 [Eh]
	 SCS Correlation Energy    =      -0.6438454420137094 [Eh]
	 SCS Total Energy          =    -149.7658314742457435 [Eh]
	-----------------------------------------------------------

  Dipole Moment: [D]
     X:    -2.4437      Y:     0.9436      Z:    -0.0000     Total:     2.6196

*** Psi4 exiting successfully. Buy a developer a beer!
