                               Psi4 1.3.2 release

  ==> Input File <==

--------------------------------------------------------------------------
#psi4
#
memory 32 gb

molecule  {
0 1
  C        0.0000000     0.4159560     0.0000000
  H       -0.3340900     1.4603970     0.0000000
  N        1.2174473    -0.0003238     0.0000000
  H        1.8415280     0.8339110     0.0000000
  N       -1.0366190    -0.4720110     0.0000000
  H       -0.8260900    -1.4592660     0.0000000
  H       -1.9967030    -0.1736100     0.0000000
units angstrom
no_reorient  #important for SAPT in psi4, default
symmetry c1  #important for SAPT in psi4, default
}

set PROPERTIES_ORIGIN ["COM"]
properties('MP2/aug-cc-pvtz', properties = ['dipole'])
--------------------------------------------------------------------------

    Molecular point group: c1
  Charge       = 0
  Multiplicity = 1
  Basis Set: AUG-CC-PVTZ
    Blend: AUG-CC-PVTZ
  Basis Set: (AUG-CC-PVTZ AUX)
    Blend: AUG-CC-PVTZ-JKFIT

    Orbital Energies [Eh]
    ---------------------

    Doubly Occupied:

       1A    -15.576825     2A    -15.526673     3A    -11.317742
       4A     -1.254308     5A     -1.133598     6A     -0.827212
       7A     -0.741384     8A     -0.633770     9A     -0.611320
      10A     -0.525775    11A     -0.425233    12A     -0.360520

  @DF-RHF Final Energy:  -149.14180401900126

   => Energetics <=

    Nuclear Repulsion Energy =             71.9429206031833388
    One-Electron Energy =                -344.3007322435593096
    Two-Electron Energy =                 123.2160076213747431
    Total Energy =                       -149.1418040190012562
  Basis Set: (AUG-CC-PVTZ AUX)
    Blend: AUG-CC-PVTZ-RI
    Molecular point group: c1

    Geometry (in Angstrom), charge = 0, multiplicity = 1:

       Center              X                  Y                   Z               Mass
    ------------   -----------------  -----------------  -----------------  -----------------
         C           -0.027397236278     0.437666146091     0.000000000000    12.000000000000
         H           -0.361487236278     1.482107146091     0.000000000000     1.007825032230
         N            1.190050063722     0.021386346091     0.000000000000    14.003074004430
         H            1.814130763722     0.855621146091     0.000000000000     1.007825032230
         N           -1.064016236278    -0.450300853909     0.000000000000    14.003074004430
         H           -0.853487236278    -1.437555853909     0.000000000000     1.007825032230
         H           -2.024100236278    -0.151899853909     0.000000000000     1.007825032230

  Basis Set: AUG-CC-PVTZ
    Blend: AUG-CC-PVTZ
  Basis Set: (AUG-CC-PVTZ AUX)
    Blend: AUG-CC-PVTZ-JKFIT
	 Reference Energy          =    -149.1418040190012562 [Eh]
	 Singles Energy            =      -0.0000000000000000 [Eh]
	 Same-Spin Energy          =      -0.1520775031279498 [Eh]
	 Opposite-Spin Energy      =      -0.4928122817668647 [Eh]
	 Correlation Energy        =      -0.6448897848948145 [Eh]
	 Total Energy              =    -149.7866938038960711 [Eh]

	 ================> DF-SCS-MP2 Energies <==================
	-----------------------------------------------------------
	 SCS Same-Spin Scale       =       0.3333333333333333 [-]
	 SCS Opposite-Spin Scale   =       1.2000000000000000 [-]
	 SCS Same-Spin Energy      =      -0.0506925010426499 [Eh]
	 SCS Opposite-Spin Energy  =      -0.5913747381202377 [Eh]
	 SCS Correlation Energy    =      -0.6420672391628877 [Eh]
	 SCS Total Energy          =    -149.7838712581641403 [Eh]
	-----------------------------------------------------------

  Dipole Moment: [D]
     X:    -2.5470      Y:     1.1717      Z:    -0.0000     Total:     2.8036

*** Psi4 exiting successfully. Buy a developer a beer!
