                               Psi4 1.3.2 release

  ==> Input File <==

--------------------------------------------------------------------------
#psi4
#
memory 32 gb

molecule  {
0 1
  C        0.0000000     0.4159560     0.0000000
  H       -0.3340900     1.4603970     0.0000000
  N        1.4148705    -0.0404080     0.0000000
  H        1.8415280     0.8339110     0.0000000
  N       -1.0366190    -0.4720110     0.0000000
  H       -0.8260900    -1.4592660     0.0000000
  H       -1.9967030    -0.1736100     0.0000000
units angstrom
no_reorient  #important for SAPT in psi4, default
symmetry c1  #important for SAPT in psi4, default
}

set PROPERTIES_ORIGIN ["COM"]
properties('MP2/aug-cc-pvtz', properties = ['dipole'])
--------------------------------------------------------------------------

    Molecular point group: c1
  Charge       = 0
  Multiplicity = 1
  Basis Set: AUG-CC-PVTZ
    Blend: AUG-CC-PVTZ
  Basis Set: (AUG-CC-PVTZ AUX)
    Blend: AUG-CC-PVTZ-JKFIT

    Orbital Energies [Eh]
    ---------------------

    Doubly Occupied:

       1A    -15.605256     2A    -15.533748     3A    -11.352965
       4A     -1.251432     5A     -1.094068     6A     -0.855294
       7A     -0.748920     8A     -0.646479     9A     -0.572382
      10A     -0.519930    11A     -0.435452    12A     -0.337342

  @DF-RHF Final Energy:  -149.09409929376110

   => Energetics <=

    Nuclear Repulsion Energy =             68.7528592842152335
    One-Electron Energy =                -337.7873822647895281
    Two-Electron Energy =                 119.9404236868132045
    Total Energy =                       -149.0940992937611043
  Basis Set: (AUG-CC-PVTZ AUX)
    Blend: AUG-CC-PVTZ-RI
    Molecular point group: c1

    Geometry (in Angstrom), charge = 0, multiplicity = 1:

       Center              X                  Y                   Z               Mass
    ------------   -----------------  -----------------  -----------------  -----------------
         C           -0.090174072737     0.450412162101     0.000000000000    12.000000000000
         H           -0.424264072737     1.494853162101     0.000000000000     1.007825032230
         N            1.324696427263    -0.005951837899     0.000000000000    14.003074004430
         H            1.751353927263     0.868367162101     0.000000000000     1.007825032230
         N           -1.126793072737    -0.437554837899     0.000000000000    14.003074004430
         H           -0.916264072737    -1.424809837899     0.000000000000     1.007825032230
         H           -2.086877072737    -0.139153837899     0.000000000000     1.007825032230

  Basis Set: AUG-CC-PVTZ
    Blend: AUG-CC-PVTZ
  Basis Set: (AUG-CC-PVTZ AUX)
    Blend: AUG-CC-PVTZ-JKFIT
	 Reference Energy          =    -149.0940992937611043 [Eh]
	 Singles Energy            =      -0.0000000000000000 [Eh]
	 Same-Spin Energy          =      -0.1549244468655891 [Eh]
	 Opposite-Spin Energy      =      -0.5010731438103053 [Eh]
	 Correlation Energy        =      -0.6559975906758945 [Eh]
	 Total Energy              =    -149.7500968844369993 [Eh]

	 ================> DF-SCS-MP2 Energies <==================
	-----------------------------------------------------------
	 SCS Same-Spin Scale       =       0.3333333333333333 [-]
	 SCS Opposite-Spin Scale   =       1.2000000000000000 [-]
	 SCS Same-Spin Energy      =      -0.0516414822885297 [Eh]
	 SCS Opposite-Spin Energy  =      -0.6012877725723663 [Eh]
	 SCS Correlation Energy    =      -0.6529292548608960 [Eh]
	 SCS Total Energy          =    -149.7470285486220121 [Eh]
	-----------------------------------------------------------

  Dipole Moment: [D]
     X:    -3.4732      Y:     1.0228      Z:    -0.0000     Total:     3.6206

*** Psi4 exiting successfully. Buy a developer a beer!
