                               Psi4 1.4a3.dev225

  ==> Input File <==

--------------------------------------------------------------------------
#psi4
#
memory 32 gb

molecule  {
0 1
  C       -0.1211700     0.4020020    -0.0021590
  H       -0.1135610     1.4981820    -0.0182380
  N       -1.1713390    -0.3373500     0.0193110
  H       -2.0047150     0.2528190    -0.0022480
  N        1.1420860    -0.1478600    -0.0823680
  H        1.9052396     0.3854696     0.3616999
  H        1.1596200    -1.1416750     0.1217560
units angstrom
no_reorient  #important for SAPT in psi4, default
symmetry c1  #important for SAPT in psi4, default
}

set PROPERTIES_ORIGIN ["COM"]
properties('MP2/aug-cc-pvtz', properties = ['dipole'])
--------------------------------------------------------------------------

    Molecular point group: c1
  Charge       = 0
  Multiplicity = 1
  Basis Set: AUG-CC-PVTZ
    Blend: AUG-CC-PVTZ
  Basis Set: (AUG-CC-PVTZ AUX)
    Blend: AUG-CC-PVTZ-JKFIT

    Orbital Energies [Eh]
    ---------------------

    Doubly Occupied:

       1A    -15.579301     2A    -15.532564     3A    -11.318125
       4A     -1.254067     5A     -1.138065     6A     -0.822333
       7A     -0.732513     8A     -0.627951     9A     -0.616511
      10A     -0.524468    11A     -0.427999    12A     -0.373171

  @DF-RHF Final Energy:  -149.14234294796532

   => Energetics <=

    Nuclear Repulsion Energy =             71.7408863761587838
    One-Electron Energy =                -343.8723232831272298
    Two-Electron Energy =                 122.9890939590031564
    Total Energy =                       -149.1423429479653180
  Basis Set: (AUG-CC-PVTZ AUX)
    Blend: AUG-CC-PVTZ-RI
    Molecular point group: c1

    Geometry (in Angstrom), charge = 0, multiplicity = 1:

       Center              X                  Y                   Z               Mass
    ------------   -----------------  -----------------  -----------------  -----------------
         C           -0.100513006574     0.423979377686     0.007884887687    12.000000000000
         H           -0.092904006574     1.520159377686    -0.008194112313     1.007825032230
         N           -1.150682006574    -0.315372622314     0.029354887687    14.003074004430
         H           -1.984058006574     0.274796377686     0.007795887687     1.007825032230
         N            1.162742993426    -0.125882622314    -0.072324112313    14.003074004430
         H            1.925896593426     0.407446977686     0.371743787687     1.007825032230
         H            1.180276993426    -1.119697622314     0.131799887687     1.007825032230

  Basis Set: AUG-CC-PVTZ
    Blend: AUG-CC-PVTZ
  Basis Set: (AUG-CC-PVTZ AUX)
    Blend: AUG-CC-PVTZ-JKFIT
	 Reference Energy          =    -149.1423429479653180 [Eh]
	 Singles Energy            =      -0.0000000000000000 [Eh]
	 Same-Spin Energy          =      -0.1516756850719256 [Eh]
	 Opposite-Spin Energy      =      -0.4929697455111068 [Eh]
	 Correlation Energy        =      -0.6446454305830325 [Eh]
	 Total Energy              =    -149.7869883785483580 [Eh]

	 ================> DF-SCS-MP2 Energies <==================
	-----------------------------------------------------------
	 SCS Same-Spin Scale       =       0.3333333333333333 [-]
	 SCS Opposite-Spin Scale   =       1.2000000000000000 [-]
	 SCS Same-Spin Energy      =      -0.0505585616906419 [Eh]
	 SCS Opposite-Spin Energy  =      -0.5915636946133281 [Eh]
	 SCS Correlation Energy    =      -0.6421222563039700 [Eh]
	 SCS Total Energy          =    -149.7844652042692815 [Eh]
	-----------------------------------------------------------

  Dipole Moment: [D]
     X:     1.6149      Y:     1.8099      Z:     0.8737     Total:     2.5781

*** Psi4 exiting successfully. Buy a developer a beer!
