                               Psi4 1.3.2 release

  ==> Input File <==

--------------------------------------------------------------------------
#psi4
#
memory 32 gb

molecule  {
0 1
  C        0.0000000     0.4159560     0.0000000
  H       -0.3340900     1.4603970     0.0000000
  N        1.2245270     0.0209870     0.0000000
  H        1.9624426     0.9932209     0.0000000
  N       -1.0366190    -0.4720110     0.0000000
  H       -0.8260900    -1.4592660     0.0000000
  H       -1.9967030    -0.1736100     0.0000000
units angstrom
no_reorient  #important for SAPT in psi4, default
symmetry c1  #important for SAPT in psi4, default
}

set PROPERTIES_ORIGIN ["COM"]
properties('MP2/aug-cc-pvtz', properties = ['dipole'])
--------------------------------------------------------------------------

    Molecular point group: c1
  Charge       = 0
  Multiplicity = 1
  Basis Set: AUG-CC-PVTZ
    Blend: AUG-CC-PVTZ
  Basis Set: (AUG-CC-PVTZ AUX)
    Blend: AUG-CC-PVTZ-JKFIT

    Orbital Energies [Eh]
    ---------------------

    Doubly Occupied:

       1A    -15.579133     2A    -15.545505     3A    -11.318281
       4A     -1.252604     5A     -1.121720     6A     -0.820073
       7A     -0.732911     8A     -0.633676     9A     -0.586997
      10A     -0.527053    11A     -0.413863    12A     -0.361703

  @DF-RHF Final Energy:  -149.11521730349151

   => Energetics <=

    Nuclear Repulsion Energy =             71.1485770043222345
    One-Electron Energy =                -342.7405536633411316
    Two-Electron Energy =                 122.4767593555273777
    Total Energy =                       -149.1152173034915052
  Basis Set: (AUG-CC-PVTZ AUX)
    Blend: AUG-CC-PVTZ-RI
    Molecular point group: c1

    Geometry (in Angstrom), charge = 0, multiplicity = 1:

       Center              X                  Y                   Z               Mass
    ------------   -----------------  -----------------  -----------------  -----------------
         C           -0.032415654307     0.427243807059     0.000000000000    12.000000000000
         H           -0.366505654307     1.471684807059     0.000000000000     1.007825032230
         N            1.192111345693     0.032274807059     0.000000000000    14.003074004430
         H            1.930026945693     1.004508707059     0.000000000000     1.007825032230
         N           -1.069034654307    -0.460723192941     0.000000000000    14.003074004430
         H           -0.858505654307    -1.447978192941     0.000000000000     1.007825032230
         H           -2.029118654307    -0.162322192941     0.000000000000     1.007825032230

  Basis Set: AUG-CC-PVTZ
    Blend: AUG-CC-PVTZ
  Basis Set: (AUG-CC-PVTZ AUX)
    Blend: AUG-CC-PVTZ-JKFIT
	 Reference Energy          =    -149.1152173034915052 [Eh]
	 Singles Energy            =      -0.0000000000000000 [Eh]
	 Same-Spin Energy          =      -0.1528338821721111 [Eh]
	 Opposite-Spin Energy      =      -0.4962628690583809 [Eh]
	 Correlation Energy        =      -0.6490967512304919 [Eh]
	 Total Energy              =    -149.7643140547220071 [Eh]

	 ================> DF-SCS-MP2 Energies <==================
	-----------------------------------------------------------
	 SCS Same-Spin Scale       =       0.3333333333333333 [-]
	 SCS Opposite-Spin Scale   =       1.2000000000000000 [-]
	 SCS Same-Spin Energy      =      -0.0509446273907037 [Eh]
	 SCS Opposite-Spin Energy  =      -0.5955154428700570 [Eh]
	 SCS Correlation Energy    =      -0.6464600702607607 [Eh]
	 SCS Total Energy          =    -149.7616773737522635 [Eh]
	-----------------------------------------------------------

  Dipole Moment: [D]
     X:    -2.5515      Y:     1.1171      Z:     0.0000     Total:     2.7854

*** Psi4 exiting successfully. Buy a developer a beer!
