                               Psi4 1.3.2 release

  ==> Input File <==

--------------------------------------------------------------------------
#psi4
#
memory 32 gb

molecule  {
0 1
  C        0.0000000     0.4159560     0.0000000
  H       -0.3340900     1.4603970     0.0000000
  N        1.2245270     0.0209870     0.0000000
  H        1.8415280     0.8339110     0.0000000
  N       -1.1885111    -0.6021217     0.0000000
  H       -0.8260900    -1.4592660     0.0000000
  H       -1.9967030    -0.1736100     0.0000000
units angstrom
no_reorient  #important for SAPT in psi4, default
symmetry c1  #important for SAPT in psi4, default
}

set PROPERTIES_ORIGIN ["COM"]
properties('MP2/aug-cc-pvtz', properties = ['dipole'])
--------------------------------------------------------------------------

    Molecular point group: c1
  Charge       = 0
  Multiplicity = 1
  Basis Set: AUG-CC-PVTZ
    Blend: AUG-CC-PVTZ
  Basis Set: (AUG-CC-PVTZ AUX)
    Blend: AUG-CC-PVTZ-JKFIT

    Orbital Energies [Eh]
    ---------------------

    Doubly Occupied:

       1A    -15.557180     2A    -15.551322     3A    -11.335629
       4A     -1.227989     5A     -1.149737     6A     -0.814639
       7A     -0.767766     8A     -0.665279     9A     -0.584788
      10A     -0.495387    11A     -0.434894    12A     -0.379151

  @DF-RHF Final Energy:  -149.09850649361809

   => Energetics <=

    Nuclear Repulsion Energy =             69.5411884257556920
    One-Electron Energy =                -339.3518690407093459
    Two-Electron Energy =                 120.7121741213355506
    Total Energy =                       -149.0985064936180891
  Basis Set: (AUG-CC-PVTZ AUX)
    Blend: AUG-CC-PVTZ-RI
    Molecular point group: c1

    Geometry (in Angstrom), charge = 0, multiplicity = 1:

       Center              X                  Y                   Z               Mass
    ------------   -----------------  -----------------  -----------------  -----------------
         C            0.018650362747     0.472262452548     0.000000000000    12.000000000000
         H           -0.315439637253     1.516703452548     0.000000000000     1.007825032230
         N            1.243177362747     0.077293452548     0.000000000000    14.003074004430
         H            1.860178362747     0.890217452548     0.000000000000     1.007825032230
         N           -1.169860737253    -0.545815247452     0.000000000000    14.003074004430
         H           -0.807439637253    -1.402959547452     0.000000000000     1.007825032230
         H           -1.978052637253    -0.117303547452     0.000000000000     1.007825032230

  Basis Set: AUG-CC-PVTZ
    Blend: AUG-CC-PVTZ
  Basis Set: (AUG-CC-PVTZ AUX)
    Blend: AUG-CC-PVTZ-JKFIT
	 Reference Energy          =    -149.0985064936180891 [Eh]
	 Singles Energy            =      -0.0000000000000000 [Eh]
	 Same-Spin Energy          =      -0.1511723012470022 [Eh]
	 Opposite-Spin Energy      =      -0.4940030481604899 [Eh]
	 Correlation Energy        =      -0.6451753494074921 [Eh]
	 Total Energy              =    -149.7436818430255698 [Eh]

	 ================> DF-SCS-MP2 Energies <==================
	-----------------------------------------------------------
	 SCS Same-Spin Scale       =       0.3333333333333333 [-]
	 SCS Opposite-Spin Scale   =       1.2000000000000000 [-]
	 SCS Same-Spin Energy      =      -0.0503907670823341 [Eh]
	 SCS Opposite-Spin Energy  =      -0.5928036577925878 [Eh]
	 SCS Correlation Energy    =      -0.6431944248749218 [Eh]
	 SCS Total Energy          =    -149.7417009184930237 [Eh]
	-----------------------------------------------------------

  Dipole Moment: [D]
     X:    -1.4858      Y:     1.6722      Z:    -0.0000     Total:     2.2369

*** Psi4 exiting successfully. Buy a developer a beer!
