                               Psi4 1.4a3.dev225

  ==> Input File <==

--------------------------------------------------------------------------
#psi4
#
memory 32 gb

molecule  {
0 1
  C       -0.1211700     0.4020020    -0.0021590
  H       -0.1135610     1.4981820    -0.0182380
  N       -1.1713390    -0.3373500     0.0193110
  H       -2.0047150     0.2528190    -0.0022480
  N        1.1603931    -0.1558286    -0.0835304
  H        1.8904430     0.3751290     0.3530900
  H        1.1596200    -1.1416750     0.1217560
units angstrom
no_reorient  #important for SAPT in psi4, default
symmetry c1  #important for SAPT in psi4, default
}

set PROPERTIES_ORIGIN ["COM"]
properties('MP2/aug-cc-pvtz', properties = ['dipole'])
--------------------------------------------------------------------------

    Molecular point group: c1
  Charge       = 0
  Multiplicity = 1
  Basis Set: AUG-CC-PVTZ
    Blend: AUG-CC-PVTZ
  Basis Set: (AUG-CC-PVTZ AUX)
    Blend: AUG-CC-PVTZ-JKFIT

    Orbital Energies [Eh]
    ---------------------

    Doubly Occupied:

       1A    -15.575504     2A    -15.535617     3A    -11.320265
       4A     -1.251498     5A     -1.141149     6A     -0.821599
       7A     -0.736093     8A     -0.626543     9A     -0.621882
      10A     -0.521408    11A     -0.429578    12A     -0.375810

  @DF-RHF Final Energy:  -149.14293421346261

   => Energetics <=

    Nuclear Repulsion Energy =             71.5587204188684893
    One-Electron Energy =                -343.4894170941690845
    Two-Electron Energy =                 122.7877624618380139
    Total Energy =                       -149.1429342134626097
  Basis Set: (AUG-CC-PVTZ AUX)
    Blend: AUG-CC-PVTZ-RI
    Molecular point group: c1

    Geometry (in Angstrom), charge = 0, multiplicity = 1:

       Center              X                  Y                   Z               Mass
    ------------   -----------------  -----------------  -----------------  -----------------
         C           -0.105995687848     0.426749892695     0.008451551902    12.000000000000
         H           -0.098386687848     1.522929892695    -0.007627448098     1.007825032230
         N           -1.156164687848    -0.312602107305     0.029921551902    14.003074004430
         H           -1.989540687848     0.277566892695     0.008362551902     1.007825032230
         N            1.175567412152    -0.131080707305    -0.072919848098    14.003074004430
         H            1.905617312152     0.399876892695     0.363700551902     1.007825032230
         H            1.174794312152    -1.116927107305     0.132366551902     1.007825032230

  Basis Set: AUG-CC-PVTZ
    Blend: AUG-CC-PVTZ
  Basis Set: (AUG-CC-PVTZ AUX)
    Blend: AUG-CC-PVTZ-JKFIT
	 Reference Energy          =    -149.1429342134626097 [Eh]
	 Singles Energy            =      -0.0000000000000000 [Eh]
	 Same-Spin Energy          =      -0.1513999503486693 [Eh]
	 Opposite-Spin Energy      =      -0.4926651912130106 [Eh]
	 Correlation Energy        =      -0.6440651415616798 [Eh]
	 Total Energy              =    -149.7869993550242782 [Eh]

	 ================> DF-SCS-MP2 Energies <==================
	-----------------------------------------------------------
	 SCS Same-Spin Scale       =       0.3333333333333333 [-]
	 SCS Opposite-Spin Scale   =       1.2000000000000000 [-]
	 SCS Same-Spin Energy      =      -0.0504666501162231 [Eh]
	 SCS Opposite-Spin Energy  =      -0.5911982294556126 [Eh]
	 SCS Correlation Energy    =      -0.6416648795718357 [Eh]
	 SCS Total Energy          =    -149.7845990930344442 [Eh]
	-----------------------------------------------------------

  Dipole Moment: [D]
     X:     1.4782      Y:     1.8212      Z:     0.8806     Total:     2.5055

*** Psi4 exiting successfully. Buy a developer a beer!
