                               Psi4 1.3.2 release

  ==> Input File <==

--------------------------------------------------------------------------
#psi4
#
memory 32 gb

molecule  {
0 1
  C        0.0000000     0.4159560     0.0000000
  H       -0.3340900     1.4603970     0.0000000
  N        1.2245270     0.0209870     0.0000000
  H        1.9019853     0.9135660     0.0000000
  N       -1.0366190    -0.4720110     0.0000000
  H       -0.8260900    -1.4592660     0.0000000
  H       -1.9967030    -0.1736100     0.0000000
units angstrom
no_reorient  #important for SAPT in psi4, default
symmetry c1  #important for SAPT in psi4, default
}

set PROPERTIES_ORIGIN ["COM"]
properties('MP2/aug-cc-pvtz', properties = ['dipole'])
--------------------------------------------------------------------------

    Molecular point group: c1
  Charge       = 0
  Multiplicity = 1
  Basis Set: AUG-CC-PVTZ
    Blend: AUG-CC-PVTZ
  Basis Set: (AUG-CC-PVTZ AUX)
    Blend: AUG-CC-PVTZ-JKFIT

    Orbital Energies [Eh]
    ---------------------

    Doubly Occupied:

       1A    -15.578212     2A    -15.535200     3A    -11.317840
       4A     -1.252713     5A     -1.127277     6A     -0.823177
       7A     -0.737016     8A     -0.633484     9A     -0.602388
      10A     -0.526149    11A     -0.418827    12A     -0.361016

  @DF-RHF Final Energy:  -149.13335722331499

   => Energetics <=

    Nuclear Repulsion Energy =             71.5231136785195645
    One-Electron Energy =                -343.4863443908231488
    Two-Electron Energy =                 122.8298734889886106
    Total Energy =                       -149.1333572233149880
  Basis Set: (AUG-CC-PVTZ AUX)
    Blend: AUG-CC-PVTZ-RI
    Molecular point group: c1

    Geometry (in Angstrom), charge = 0, multiplicity = 1:

       Center              X                  Y                   Z               Mass
    ------------   -----------------  -----------------  -----------------  -----------------
         C           -0.031032050513     0.429066760149     0.000000000000    12.000000000000
         H           -0.365122050513     1.473507760149     0.000000000000     1.007825032230
         N            1.193494949487     0.034097760149     0.000000000000    14.003074004430
         H            1.870953249487     0.926676760149     0.000000000000     1.007825032230
         N           -1.067651050513    -0.458900239851     0.000000000000    14.003074004430
         H           -0.857122050513    -1.446155239851     0.000000000000     1.007825032230
         H           -2.027735050513    -0.160499239851     0.000000000000     1.007825032230

  Basis Set: AUG-CC-PVTZ
    Blend: AUG-CC-PVTZ
  Basis Set: (AUG-CC-PVTZ AUX)
    Blend: AUG-CC-PVTZ-JKFIT
	 Reference Energy          =    -149.1333572233149880 [Eh]
	 Singles Energy            =      -0.0000000000000000 [Eh]
	 Same-Spin Energy          =      -0.1523876948871098 [Eh]
	 Opposite-Spin Energy      =      -0.4941552151406573 [Eh]
	 Correlation Energy        =      -0.6465429100277671 [Eh]
	 Total Energy              =    -149.7799001333427498 [Eh]

	 ================> DF-SCS-MP2 Energies <==================
	-----------------------------------------------------------
	 SCS Same-Spin Scale       =       0.3333333333333333 [-]
	 SCS Opposite-Spin Scale   =       1.2000000000000000 [-]
	 SCS Same-Spin Energy      =      -0.0507958982957033 [Eh]
	 SCS Opposite-Spin Energy  =      -0.5929862581687887 [Eh]
	 SCS Correlation Energy    =      -0.6437821564644920 [Eh]
	 SCS Total Energy          =    -149.7771393797794701 [Eh]
	-----------------------------------------------------------

  Dipole Moment: [D]
     X:    -2.5465      Y:     1.1313      Z:     0.0000     Total:     2.7865

*** Psi4 exiting successfully. Buy a developer a beer!
