                               Psi4 1.3.2 release

  ==> Input File <==

--------------------------------------------------------------------------
#psi4
#
memory 32 gb

molecule  {
0 1
  C        0.0000000     0.4159560     0.0000000
  H       -0.3340900     1.4603970     0.0000000
  N        1.2245270     0.0209870     0.0000000
  H        1.8415280     0.8339110     0.0000000
  N       -1.1125651    -0.5370663     0.0000000
  H       -0.8260900    -1.4592660     0.0000000
  H       -1.9967030    -0.1736100     0.0000000
units angstrom
no_reorient  #important for SAPT in psi4, default
symmetry c1  #important for SAPT in psi4, default
}

set PROPERTIES_ORIGIN ["COM"]
properties('MP2/aug-cc-pvtz', properties = ['dipole'])
--------------------------------------------------------------------------

    Molecular point group: c1
  Charge       = 0
  Multiplicity = 1
  Basis Set: AUG-CC-PVTZ
    Blend: AUG-CC-PVTZ
  Basis Set: (AUG-CC-PVTZ AUX)
    Blend: AUG-CC-PVTZ-JKFIT

    Orbital Energies [Eh]
    ---------------------

    Doubly Occupied:

       1A    -15.566009     2A    -15.538861     3A    -11.328113
       4A     -1.236968     5A     -1.143734     6A     -0.820008
       7A     -0.751669     8A     -0.648446     9A     -0.609792
      10A     -0.507948    11A     -0.430860    12A     -0.370745

  @DF-RHF Final Energy:  -149.13099616802225

   => Energetics <=

    Nuclear Repulsion Energy =             70.6802230426912814
    One-Electron Energy =                -341.7161305869670969
    Two-Electron Energy =                 121.9049113762535370
    Total Energy =                       -149.1309961680222500
  Basis Set: (AUG-CC-PVTZ AUX)
    Blend: AUG-CC-PVTZ-RI
    Molecular point group: c1

    Geometry (in Angstrom), charge = 0, multiplicity = 1:

       Center              X                  Y                   Z               Mass
    ------------   -----------------  -----------------  -----------------  -----------------
         C           -0.005499026087     0.451576068139     0.000000000000    12.000000000000
         H           -0.339589026087     1.496017068139     0.000000000000     1.007825032230
         N            1.219027973913     0.056607068139     0.000000000000    14.003074004430
         H            1.836028973913     0.869531068139     0.000000000000     1.007825032230
         N           -1.118064126087    -0.501446231861     0.000000000000    14.003074004430
         H           -0.831589026087    -1.423645931861     0.000000000000     1.007825032230
         H           -2.002202026087    -0.137989931861     0.000000000000     1.007825032230

  Basis Set: AUG-CC-PVTZ
    Blend: AUG-CC-PVTZ
  Basis Set: (AUG-CC-PVTZ AUX)
    Blend: AUG-CC-PVTZ-JKFIT
	 Reference Energy          =    -149.1309961680222500 [Eh]
	 Singles Energy            =      -0.0000000000000000 [Eh]
	 Same-Spin Energy          =      -0.1512708515941570 [Eh]
	 Opposite-Spin Energy      =      -0.4926478975899818 [Eh]
	 Correlation Energy        =      -0.6439187491841388 [Eh]
	 Total Energy              =    -149.7749149172063881 [Eh]

	 ================> DF-SCS-MP2 Energies <==================
	-----------------------------------------------------------
	 SCS Same-Spin Scale       =       0.3333333333333333 [-]
	 SCS Opposite-Spin Scale   =       1.2000000000000000 [-]
	 SCS Same-Spin Energy      =      -0.0504236171980523 [Eh]
	 SCS Opposite-Spin Energy  =      -0.5911774771079782 [Eh]
	 SCS Correlation Energy    =      -0.6416010943060305 [Eh]
	 SCS Total Energy          =    -149.7725972623282757 [Eh]
	-----------------------------------------------------------

  Dipole Moment: [D]
     X:    -1.9943      Y:     1.4081      Z:     0.0000     Total:     2.4414

*** Psi4 exiting successfully. Buy a developer a beer!
