                               Psi4 1.3.2 release

  ==> Input File <==

--------------------------------------------------------------------------
#psi4
#
memory 32 gb

molecule  {
0 1
  C        0.0000000     0.4159560     0.0000000
  H       -0.3036233     1.3651511     0.0000000
  N        1.2245270     0.0209870     0.0000000
  H        1.8415280     0.8339110     0.0000000
  N       -1.0366190    -0.4720110     0.0000000
  H       -0.8260900    -1.4592660     0.0000000
  H       -1.9967030    -0.1736100     0.0000000
units angstrom
no_reorient  #important for SAPT in psi4, default
symmetry c1  #important for SAPT in psi4, default
}

set PROPERTIES_ORIGIN ["COM"]
properties('MP2/aug-cc-pvtz', properties = ['dipole'])
--------------------------------------------------------------------------

    Molecular point group: c1
  Charge       = 0
  Multiplicity = 1
  Basis Set: AUG-CC-PVTZ
    Blend: AUG-CC-PVTZ
  Basis Set: (AUG-CC-PVTZ AUX)
    Blend: AUG-CC-PVTZ-JKFIT

    Orbital Energies [Eh]
    ---------------------

    Doubly Occupied:

       1A    -15.576526     2A    -15.522688     3A    -11.305969
       4A     -1.255001     5A     -1.135104     6A     -0.845740
       7A     -0.747588     8A     -0.645871     9A     -0.617572
      10A     -0.524994    11A     -0.424847    12A     -0.360005

  @DF-RHF Final Energy:  -149.13787905551885

   => Energetics <=

    Nuclear Repulsion Energy =             72.4071892195052129
    One-Electron Energy =                -345.1663266374250156
    Two-Electron Energy =                 123.6212583624009795
    Total Energy =                       -149.1378790555188516
  Basis Set: (AUG-CC-PVTZ AUX)
    Blend: AUG-CC-PVTZ-RI
    Molecular point group: c1

    Geometry (in Angstrom), charge = 0, multiplicity = 1:

       Center              X                  Y                   Z               Mass
    ------------   -----------------  -----------------  -----------------  -----------------
         C           -0.030345696542     0.433069478577     0.000000000000    12.000000000000
         H           -0.333968996542     1.382264578577     0.000000000000     1.007825032230
         N            1.194181303458     0.038100478577     0.000000000000    14.003074004430
         H            1.811182303458     0.851024478577     0.000000000000     1.007825032230
         N           -1.066964696542    -0.454897521423     0.000000000000    14.003074004430
         H           -0.856435696542    -1.442152521423     0.000000000000     1.007825032230
         H           -2.027048696542    -0.156496521423     0.000000000000     1.007825032230

  Basis Set: AUG-CC-PVTZ
    Blend: AUG-CC-PVTZ
  Basis Set: (AUG-CC-PVTZ AUX)
    Blend: AUG-CC-PVTZ-JKFIT
	 Reference Energy          =    -149.1378790555188516 [Eh]
	 Singles Energy            =      -0.0000000000000000 [Eh]
	 Same-Spin Energy          =      -0.1516962103690005 [Eh]
	 Opposite-Spin Energy      =      -0.4920232617977301 [Eh]
	 Correlation Energy        =      -0.6437194721667306 [Eh]
	 Total Energy              =    -149.7815985276855884 [Eh]

	 ================> DF-SCS-MP2 Energies <==================
	-----------------------------------------------------------
	 SCS Same-Spin Scale       =       0.3333333333333333 [-]
	 SCS Opposite-Spin Scale   =       1.2000000000000000 [-]
	 SCS Same-Spin Energy      =      -0.0505654034563335 [Eh]
	 SCS Opposite-Spin Energy  =      -0.5904279141572761 [Eh]
	 SCS Correlation Energy    =      -0.6409933176136097 [Eh]
	 SCS Total Energy          =    -149.7788723731324581 [Eh]
	-----------------------------------------------------------

  Dipole Moment: [D]
     X:    -2.6010      Y:     1.1904      Z:    -0.0000     Total:     2.8605

*** Psi4 exiting successfully. Buy a developer a beer!
