                               Psi4 1.3.2 release

  ==> Input File <==

--------------------------------------------------------------------------
#psi4
#
memory 32 gb

molecule  {
0 1
  C        0.0000000     0.4159560     0.0000000
  H       -0.2974360     1.4714203     0.0000000
  N        1.2245270     0.0209870     0.0000000
  H        1.8415280     0.8339110     0.0000000
  N       -1.0366190    -0.4720110     0.0000000
  H       -0.8260900    -1.4592660     0.0000000
  H       -1.9967030    -0.1736100     0.0000000
units angstrom
no_reorient  #important for SAPT in psi4, default
symmetry c1  #important for SAPT in psi4, default
}

set PROPERTIES_ORIGIN ["COM"]
properties('MP2/aug-cc-pvtz', properties = ['dipole'])
--------------------------------------------------------------------------

    Molecular point group: c1
  Charge       = 0
  Multiplicity = 1
  Basis Set: AUG-CC-PVTZ
    Blend: AUG-CC-PVTZ
  Basis Set: (AUG-CC-PVTZ AUX)
    Blend: AUG-CC-PVTZ-JKFIT

    Orbital Energies [Eh]
    ---------------------

    Doubly Occupied:

       1A    -15.578353     2A    -15.523174     3A    -11.317572
       4A     -1.253942     5A     -1.136060     6A     -0.827307
       7A     -0.742674     8A     -0.636887     9A     -0.617159
      10A     -0.525841    11A     -0.421777    12A     -0.360924

  @DF-RHF Final Energy:  -149.14327116423999

   => Energetics <=

    Nuclear Repulsion Energy =             71.9508034844976123
    One-Electron Energy =                -344.3048093543189339
    Two-Electron Energy =                 123.2107347055813165
    Total Energy =                       -149.1432711642399909
  Basis Set: (AUG-CC-PVTZ AUX)
    Blend: AUG-CC-PVTZ-RI
    Molecular point group: c1

    Geometry (in Angstrom), charge = 0, multiplicity = 1:

       Center              X                  Y                   Z               Mass
    ------------   -----------------  -----------------  -----------------  -----------------
         C           -0.030487296841     0.430637440290     0.000000000000    12.000000000000
         H           -0.327923296841     1.486101740290     0.000000000000     1.007825032230
         N            1.194039703159     0.035668440290     0.000000000000    14.003074004430
         H            1.811040703159     0.848592440290     0.000000000000     1.007825032230
         N           -1.067106296841    -0.457329559710     0.000000000000    14.003074004430
         H           -0.856577296841    -1.444584559710     0.000000000000     1.007825032230
         H           -2.027190296841    -0.158928559710     0.000000000000     1.007825032230

  Basis Set: AUG-CC-PVTZ
    Blend: AUG-CC-PVTZ
  Basis Set: (AUG-CC-PVTZ AUX)
    Blend: AUG-CC-PVTZ-JKFIT
	 Reference Energy          =    -149.1432711642399909 [Eh]
	 Singles Energy            =      -0.0000000000000000 [Eh]
	 Same-Spin Energy          =      -0.1518328669584441 [Eh]
	 Opposite-Spin Energy      =      -0.4922010654597750 [Eh]
	 Correlation Energy        =      -0.6440339324182192 [Eh]
	 Total Energy              =    -149.7873050966582014 [Eh]

	 ================> DF-SCS-MP2 Energies <==================
	-----------------------------------------------------------
	 SCS Same-Spin Scale       =       0.3333333333333333 [-]
	 SCS Opposite-Spin Scale   =       1.2000000000000000 [-]
	 SCS Same-Spin Energy      =      -0.0506109556528147 [Eh]
	 SCS Opposite-Spin Energy  =      -0.5906412785517300 [Eh]
	 SCS Correlation Energy    =      -0.6412522342045447 [Eh]
	 SCS Total Energy          =    -149.7845233984445485 [Eh]
	-----------------------------------------------------------

  Dipole Moment: [D]
     X:    -2.5624      Y:     1.1441      Z:     0.0000     Total:     2.8062

*** Psi4 exiting successfully. Buy a developer a beer!
