                               Psi4 1.3.2 release

  ==> Input File <==

--------------------------------------------------------------------------
#psi4
#
memory 32 gb

molecule  {
0 1
  C        0.0000000     0.4159560     0.0000000
  H       -0.3340900     1.4603970     0.0000000
  N        1.3196988    -0.0097105     0.0000000
  H        1.8415280     0.8339110     0.0000000
  N       -1.0366190    -0.4720110     0.0000000
  H       -0.8260900    -1.4592660     0.0000000
  H       -1.9967030    -0.1736100     0.0000000
units angstrom
no_reorient  #important for SAPT in psi4, default
symmetry c1  #important for SAPT in psi4, default
}

set PROPERTIES_ORIGIN ["COM"]
properties('MP2/aug-cc-pvtz', properties = ['dipole'])
--------------------------------------------------------------------------

    Molecular point group: c1
  Charge       = 0
  Multiplicity = 1
  Basis Set: AUG-CC-PVTZ
    Blend: AUG-CC-PVTZ
  Basis Set: (AUG-CC-PVTZ AUX)
    Blend: AUG-CC-PVTZ-JKFIT

    Orbital Energies [Eh]
    ---------------------

    Doubly Occupied:

       1A    -15.591767     2A    -15.529725     3A    -11.337295
       4A     -1.249177     5A     -1.115584     6A     -0.842745
       7A     -0.744825     8A     -0.639722     9A     -0.597851
      10A     -0.520808    11A     -0.430490    12A     -0.348907

  @DF-RHF Final Energy:  -149.12531815188674

   => Energetics <=

    Nuclear Repulsion Energy =             70.2704859085577453
    One-Electron Energy =                -340.8938135637879441
    Two-Electron Energy =                 121.4980095033434253
    Total Energy =                       -149.1253181518867450
  Basis Set: (AUG-CC-PVTZ AUX)
    Blend: AUG-CC-PVTZ-RI
    Molecular point group: c1

    Geometry (in Angstrom), charge = 0, multiplicity = 1:

       Center              X                  Y                   Z               Mass
    ------------   -----------------  -----------------  -----------------  -----------------
         C           -0.059911275627     0.440650938814     0.000000000000    12.000000000000
         H           -0.394001275627     1.485091938814     0.000000000000     1.007825032230
         N            1.259787524373     0.014984438814     0.000000000000    14.003074004430
         H            1.781616724373     0.858605938814     0.000000000000     1.007825032230
         N           -1.096530275627    -0.447316061186     0.000000000000    14.003074004430
         H           -0.886001275627    -1.434571061186     0.000000000000     1.007825032230
         H           -2.056614275627    -0.148915061186     0.000000000000     1.007825032230

  Basis Set: AUG-CC-PVTZ
    Blend: AUG-CC-PVTZ
  Basis Set: (AUG-CC-PVTZ AUX)
    Blend: AUG-CC-PVTZ-JKFIT
	 Reference Energy          =    -149.1253181518867450 [Eh]
	 Singles Energy            =      -0.0000000000000000 [Eh]
	 Same-Spin Energy          =      -0.1533590264776901 [Eh]
	 Opposite-Spin Energy      =      -0.4966390249741697 [Eh]
	 Correlation Energy        =      -0.6499980514518598 [Eh]
	 Total Energy              =    -149.7753162033386047 [Eh]

	 ================> DF-SCS-MP2 Energies <==================
	-----------------------------------------------------------
	 SCS Same-Spin Scale       =       0.3333333333333333 [-]
	 SCS Opposite-Spin Scale   =       1.2000000000000000 [-]
	 SCS Same-Spin Energy      =      -0.0511196754925634 [Eh]
	 SCS Opposite-Spin Energy  =      -0.5959668299690036 [Eh]
	 SCS Correlation Energy    =      -0.6470865054615670 [Eh]
	 SCS Total Energy          =    -149.7724046573483179 [Eh]
	-----------------------------------------------------------

  Dipole Moment: [D]
     X:    -3.0709      Y:     1.0883      Z:    -0.0000     Total:     3.2581

*** Psi4 exiting successfully. Buy a developer a beer!
