                               Psi4 1.4a3.dev225

  ==> Input File <==

--------------------------------------------------------------------------
#psi4
#
memory 32 gb

molecule  {
0 1
  C       -0.1211700     0.4020020    -0.0021590
  H       -0.1135610     1.4981820    -0.0182380
  N       -1.1713390    -0.3373500     0.0193110
  H       -1.9883969     0.2412630    -0.0018259
  N        1.1420860    -0.1478600    -0.0823680
  H        1.8904430     0.3751290     0.3530900
  H        1.1596200    -1.1416750     0.1217560
units angstrom
no_reorient  #important for SAPT in psi4, default
symmetry c1  #important for SAPT in psi4, default
}

set PROPERTIES_ORIGIN ["COM"]
properties('MP2/aug-cc-pvtz', properties = ['dipole'])
--------------------------------------------------------------------------

    Molecular point group: c1
  Charge       = 0
  Multiplicity = 1
  Basis Set: AUG-CC-PVTZ
    Blend: AUG-CC-PVTZ
  Basis Set: (AUG-CC-PVTZ AUX)
    Blend: AUG-CC-PVTZ-JKFIT

    Orbital Energies [Eh]
    ---------------------

    Doubly Occupied:

       1A    -15.577324     2A    -15.530229     3A    -11.318264
       4A     -1.255931     5A     -1.141893     6A     -0.824762
       7A     -0.737525     8A     -0.629030     9A     -0.620752
      10A     -0.524737    11A     -0.428830    12A     -0.373518

  @DF-RHF Final Energy:  -149.14369781148974

   => Energetics <=

    Nuclear Repulsion Energy =             71.9297536893284786
    One-Electron Energy =                -344.2213113497032850
    Two-Electron Energy =                 123.1478598488850622
    Total Energy =                       -149.1436978114897443
  Basis Set: (AUG-CC-PVTZ AUX)
    Blend: AUG-CC-PVTZ-RI
    Molecular point group: c1

    Geometry (in Angstrom), charge = 0, multiplicity = 1:

       Center              X                  Y                   Z               Mass
    ------------   -----------------  -----------------  -----------------  -----------------
         C           -0.100547827070     0.424480495315     0.008072270702    12.000000000000
         H           -0.092938827070     1.520660495315    -0.008006729298     1.007825032230
         N           -1.150716827070    -0.314871504685     0.029542270702    14.003074004430
         H           -1.967774727070     0.263741495315     0.008405370702     1.007825032230
         N            1.162708172930    -0.125381504685    -0.072136729298    14.003074004430
         H            1.911065172930     0.397607495315     0.363321270702     1.007825032230
         H            1.180242172930    -1.119196504685     0.131987270702     1.007825032230

  Basis Set: AUG-CC-PVTZ
    Blend: AUG-CC-PVTZ
  Basis Set: (AUG-CC-PVTZ AUX)
    Blend: AUG-CC-PVTZ-JKFIT
	 Reference Energy          =    -149.1436978114897443 [Eh]
	 Singles Energy            =      -0.0000000000000000 [Eh]
	 Same-Spin Energy          =      -0.1514694042819691 [Eh]
	 Opposite-Spin Energy      =      -0.4923228867205940 [Eh]
	 Correlation Energy        =      -0.6437922910025631 [Eh]
	 Total Energy              =    -149.7874901024923133 [Eh]

	 ================> DF-SCS-MP2 Energies <==================
	-----------------------------------------------------------
	 SCS Same-Spin Scale       =       0.3333333333333333 [-]
	 SCS Opposite-Spin Scale   =       1.2000000000000000 [-]
	 SCS Same-Spin Energy      =      -0.0504898014273230 [Eh]
	 SCS Opposite-Spin Energy  =      -0.5907874640647127 [Eh]
	 SCS Correlation Energy    =      -0.6412772654920358 [Eh]
	 SCS Total Energy          =    -149.7849750769817661 [Eh]
	-----------------------------------------------------------

  Dipole Moment: [D]
     X:     1.6083      Y:     1.8037      Z:     0.8684     Total:     2.5679

*** Psi4 exiting successfully. Buy a developer a beer!
