                               Psi4 1.3.2 release

  ==> Input File <==

--------------------------------------------------------------------------
#psi4
#
memory 32 gb

molecule  {
0 1
  C        0.0000000     0.4159560     0.0000000
  H       -0.2230860     1.4895974     0.0000000
  N        1.2245270     0.0209870     0.0000000
  H        1.8415280     0.8339110     0.0000000
  N       -1.0366190    -0.4720110     0.0000000
  H       -0.8260900    -1.4592660     0.0000000
  H       -1.9967030    -0.1736100     0.0000000
units angstrom
no_reorient  #important for SAPT in psi4, default
symmetry c1  #important for SAPT in psi4, default
}

set PROPERTIES_ORIGIN ["COM"]
properties('MP2/aug-cc-pvtz', properties = ['dipole'])
--------------------------------------------------------------------------

    Molecular point group: c1
  Charge       = 0
  Multiplicity = 1
  Basis Set: AUG-CC-PVTZ
    Blend: AUG-CC-PVTZ
  Basis Set: (AUG-CC-PVTZ AUX)
    Blend: AUG-CC-PVTZ-JKFIT

    Orbital Energies [Eh]
    ---------------------

    Doubly Occupied:

       1A    -15.579506     2A    -15.521987     3A    -11.316913
       4A     -1.253891     5A     -1.136485     6A     -0.824622
       7A     -0.742557     8A     -0.642204     9A     -0.615767
      10A     -0.526055    11A     -0.419272    12A     -0.360817

  @DF-RHF Final Energy:  -149.14222609391226

   => Energetics <=

    Nuclear Repulsion Energy =             71.9472051968616029
    One-Electron Energy =                -344.2987092213447795
    Two-Electron Energy =                 123.2092779305709058
    Total Energy =                       -149.1422260939122566
  Basis Set: (AUG-CC-PVTZ AUX)
    Blend: AUG-CC-PVTZ-RI
    Molecular point group: c1

    Geometry (in Angstrom), charge = 0, multiplicity = 1:

       Center              X                  Y                   Z               Mass
    ------------   -----------------  -----------------  -----------------  -----------------
         C           -0.032188843918     0.430221445786     0.000000000000    12.000000000000
         H           -0.255274843918     1.503862845786     0.000000000000     1.007825032230
         N            1.192338156082     0.035252445786     0.000000000000    14.003074004430
         H            1.809339156082     0.848176445786     0.000000000000     1.007825032230
         N           -1.068807843918    -0.457745554214     0.000000000000    14.003074004430
         H           -0.858278843918    -1.445000554214     0.000000000000     1.007825032230
         H           -2.028891843918    -0.159344554214     0.000000000000     1.007825032230

  Basis Set: AUG-CC-PVTZ
    Blend: AUG-CC-PVTZ
  Basis Set: (AUG-CC-PVTZ AUX)
    Blend: AUG-CC-PVTZ-JKFIT
	 Reference Energy          =    -149.1422260939122566 [Eh]
	 Singles Energy            =      -0.0000000000000000 [Eh]
	 Same-Spin Energy          =      -0.1517775328683607 [Eh]
	 Opposite-Spin Energy      =      -0.4921009244884589 [Eh]
	 Correlation Energy        =      -0.6438784573568196 [Eh]
	 Total Energy              =    -149.7861045512690623 [Eh]

	 ================> DF-SCS-MP2 Energies <==================
	-----------------------------------------------------------
	 SCS Same-Spin Scale       =       0.3333333333333333 [-]
	 SCS Opposite-Spin Scale   =       1.2000000000000000 [-]
	 SCS Same-Spin Energy      =      -0.0505925109561202 [Eh]
	 SCS Opposite-Spin Energy  =      -0.5905211093861507 [Eh]
	 SCS Correlation Energy    =      -0.6411136203422709 [Eh]
	 SCS Total Energy          =    -149.7833397142545380 [Eh]
	-----------------------------------------------------------

  Dipole Moment: [D]
     X:    -2.5611      Y:     1.1580      Z:    -0.0000     Total:     2.8108

*** Psi4 exiting successfully. Buy a developer a beer!
