                               Psi4 1.3.2 release

  ==> Input File <==

--------------------------------------------------------------------------
#psi4
#
memory 32 gb

molecule  {
0 1
  C        0.0000000     0.4159560     0.0000000
  H       -0.3340900     1.4603970     0.0000000
  N        1.2245270     0.0209870     0.0000000
  H        1.8415280     0.8339110     0.0000000
  N       -1.0366190    -0.4720110     0.0000000
  H       -0.8469458    -1.3614650     0.0000000
  H       -1.9967030    -0.1736100     0.0000000
units angstrom
no_reorient  #important for SAPT in psi4, default
symmetry c1  #important for SAPT in psi4, default
}

set PROPERTIES_ORIGIN ["COM"]
properties('MP2/aug-cc-pvtz', properties = ['dipole'])
--------------------------------------------------------------------------

    Molecular point group: c1
  Charge       = 0
  Multiplicity = 1
  Basis Set: AUG-CC-PVTZ
    Blend: AUG-CC-PVTZ
  Basis Set: (AUG-CC-PVTZ AUX)
    Blend: AUG-CC-PVTZ-JKFIT

    Orbital Energies [Eh]
    ---------------------

    Doubly Occupied:

       1A    -15.568326     2A    -15.524814     3A    -11.318277
       4A     -1.264057     5A     -1.143482     6A     -0.843178
       7A     -0.751046     8A     -0.648043     9A     -0.620266
      10A     -0.527624    11A     -0.423593    12A     -0.362902

  @DF-RHF Final Energy:  -149.13602873823180

   => Energetics <=

    Nuclear Repulsion Energy =             72.4687388266437438
    One-Electron Energy =                -345.2183185110340560
    Two-Electron Energy =                 123.6135509461585258
    Total Energy =                       -149.1360287382318006
  Basis Set: (AUG-CC-PVTZ AUX)
    Blend: AUG-CC-PVTZ-RI
    Molecular point group: c1

    Geometry (in Angstrom), charge = 0, multiplicity = 1:

       Center              X                  Y                   Z               Mass
    ------------   -----------------  -----------------  -----------------  -----------------
         C           -0.029171148460     0.428651477388     0.000000000000    12.000000000000
         H           -0.363261148460     1.473092477388     0.000000000000     1.007825032230
         N            1.195355851540     0.033682477388     0.000000000000    14.003074004430
         H            1.812356851540     0.846606477388     0.000000000000     1.007825032230
         N           -1.065790148460    -0.459315522612     0.000000000000    14.003074004430
         H           -0.876116948460    -1.348769522612     0.000000000000     1.007825032230
         H           -2.025874148460    -0.160914522612     0.000000000000     1.007825032230

  Basis Set: AUG-CC-PVTZ
    Blend: AUG-CC-PVTZ
  Basis Set: (AUG-CC-PVTZ AUX)
    Blend: AUG-CC-PVTZ-JKFIT
	 Reference Energy          =    -149.1360287382318006 [Eh]
	 Singles Energy            =      -0.0000000000000000 [Eh]
	 Same-Spin Energy          =      -0.1512935590350502 [Eh]
	 Opposite-Spin Energy      =      -0.4909657367771517 [Eh]
	 Correlation Energy        =      -0.6422592958122020 [Eh]
	 Total Energy              =    -149.7782880340440101 [Eh]

	 ================> DF-SCS-MP2 Energies <==================
	-----------------------------------------------------------
	 SCS Same-Spin Scale       =       0.3333333333333333 [-]
	 SCS Opposite-Spin Scale   =       1.2000000000000000 [-]
	 SCS Same-Spin Energy      =      -0.0504311863450167 [Eh]
	 SCS Opposite-Spin Energy  =      -0.5891588841325820 [Eh]
	 SCS Correlation Energy    =      -0.6395900704775987 [Eh]
	 SCS Total Energy          =    -149.7756188087093960 [Eh]
	-----------------------------------------------------------

  Dipole Moment: [D]
     X:    -2.5728      Y:     1.2323      Z:    -0.0000     Total:     2.8527

*** Psi4 exiting successfully. Buy a developer a beer!
