                               Psi4 1.3.2 release

  ==> Input File <==

--------------------------------------------------------------------------
#psi4
#
memory 32 gb

molecule  {
0 1
  C        0.0000000     0.4159560     0.0000000
  H       -0.3340900     1.4603970     0.0000000
  N        1.2245270     0.0209870     0.0000000
  H        1.8415280     0.8339110     0.0000000
  N       -1.0366190    -0.4720110     0.0000000
  H       -0.8052342    -1.5570670     0.0000000
  H       -1.9967030    -0.1736100     0.0000000
units angstrom
no_reorient  #important for SAPT in psi4, default
symmetry c1  #important for SAPT in psi4, default
}

set PROPERTIES_ORIGIN ["COM"]
properties('MP2/aug-cc-pvtz', properties = ['dipole'])
--------------------------------------------------------------------------

    Molecular point group: c1
  Charge       = 0
  Multiplicity = 1
  Basis Set: AUG-CC-PVTZ
    Blend: AUG-CC-PVTZ
  Basis Set: (AUG-CC-PVTZ AUX)
    Blend: AUG-CC-PVTZ-JKFIT

    Orbital Energies [Eh]
    ---------------------

    Doubly Occupied:

       1A    -15.585670     2A    -15.522878     3A    -11.317635
       4A     -1.247195     5A     -1.129867     6A     -0.818423
       7A     -0.735068     8A     -0.623285     9A     -0.609172
      10A     -0.524133    11A     -0.422184    12A     -0.359330

  @DF-RHF Final Energy:  -149.13283897190669

   => Energetics <=

    Nuclear Repulsion Energy =             71.5195797070996093
    One-Electron Energy =                -343.5151549718710271
    Two-Electron Energy =                 122.8627362928647528
    Total Energy =                       -149.1328389719066934
  Basis Set: (AUG-CC-PVTZ AUX)
    Blend: AUG-CC-PVTZ-RI
    Molecular point group: c1

    Geometry (in Angstrom), charge = 0, multiplicity = 1:

       Center              X                  Y                   Z               Mass
    ------------   -----------------  -----------------  -----------------  -----------------
         C           -0.030125744978     0.433127953667     0.000000000000    12.000000000000
         H           -0.364215744978     1.477568953667     0.000000000000     1.007825032230
         N            1.194401255022     0.038158953667     0.000000000000    14.003074004430
         H            1.811402255022     0.851082953667     0.000000000000     1.007825032230
         N           -1.066744744978    -0.454839046333     0.000000000000    14.003074004430
         H           -0.835359944978    -1.539895046333     0.000000000000     1.007825032230
         H           -2.026828744978    -0.156438046333     0.000000000000     1.007825032230

  Basis Set: AUG-CC-PVTZ
    Blend: AUG-CC-PVTZ
  Basis Set: (AUG-CC-PVTZ AUX)
    Blend: AUG-CC-PVTZ-JKFIT
	 Reference Energy          =    -149.1328389719066934 [Eh]
	 Singles Energy            =      -0.0000000000000000 [Eh]
	 Same-Spin Energy          =      -0.1525490588143761 [Eh]
	 Opposite-Spin Energy      =      -0.4939821931208903 [Eh]
	 Correlation Energy        =      -0.6465312519352663 [Eh]
	 Total Energy              =    -149.7793702238419655 [Eh]

	 ================> DF-SCS-MP2 Energies <==================
	-----------------------------------------------------------
	 SCS Same-Spin Scale       =       0.3333333333333333 [-]
	 SCS Opposite-Spin Scale   =       1.2000000000000000 [-]
	 SCS Same-Spin Energy      =      -0.0508496862714587 [Eh]
	 SCS Opposite-Spin Energy  =      -0.5927786317450683 [Eh]
	 SCS Correlation Energy    =      -0.6436283180165270 [Eh]
	 SCS Total Energy          =    -149.7764672899232323 [Eh]
	-----------------------------------------------------------

  Dipole Moment: [D]
     X:    -2.5477      Y:     1.0383      Z:     0.0000     Total:     2.7512

*** Psi4 exiting successfully. Buy a developer a beer!
