                               Psi4 1.3.2 release

  ==> Input File <==

--------------------------------------------------------------------------
#psi4
#
memory 32 gb

molecule  {
0 1
  C        0.0000000     0.4159560     0.0000000
  H       -0.3340900     1.4603970     0.0000000
  N        1.2245270     0.0209870     0.0000000
  H        1.7810707     0.7542560     0.0000000
  N       -1.0366190    -0.4720110     0.0000000
  H       -0.8260900    -1.4592660     0.0000000
  H       -1.9967030    -0.1736100     0.0000000
units angstrom
no_reorient  #important for SAPT in psi4, default
symmetry c1  #important for SAPT in psi4, default
}

set PROPERTIES_ORIGIN ["COM"]
properties('MP2/aug-cc-pvtz', properties = ['dipole'])
--------------------------------------------------------------------------

    Molecular point group: c1
  Charge       = 0
  Multiplicity = 1
  Basis Set: AUG-CC-PVTZ
    Blend: AUG-CC-PVTZ
  Basis Set: (AUG-CC-PVTZ AUX)
    Blend: AUG-CC-PVTZ-JKFIT

    Orbital Energies [Eh]
    ---------------------

    Doubly Occupied:

       1A    -15.577873     2A    -15.511257     3A    -11.318434
       4A     -1.257103     5A     -1.148318     6A     -0.837201
       7A     -0.749807     8A     -0.637934     9A     -0.629395
      10A     -0.525865    11A     -0.426366    12A     -0.361641

  @DF-RHF Final Energy:  -149.13690324500968

   => Energetics <=

    Nuclear Repulsion Energy =             72.4640414355761067
    One-Electron Energy =                -345.2395016967873858
    Two-Electron Energy =                 123.6385570162015881
    Total Energy =                       -149.1369032450096768
  Basis Set: (AUG-CC-PVTZ AUX)
    Blend: AUG-CC-PVTZ-RI
    Molecular point group: c1

    Geometry (in Angstrom), charge = 0, multiplicity = 1:

       Center              X                  Y                   Z               Mass
    ------------   -----------------  -----------------  -----------------  -----------------
         C           -0.028264842925     0.432712670906     0.000000000000    12.000000000000
         H           -0.362354842925     1.477153670906     0.000000000000     1.007825032230
         N            1.196262157075     0.037743670906     0.000000000000    14.003074004430
         H            1.752805857075     0.771012670906     0.000000000000     1.007825032230
         N           -1.064883842925    -0.455254329094     0.000000000000    14.003074004430
         H           -0.854354842925    -1.442509329094     0.000000000000     1.007825032230
         H           -2.024967842925    -0.156853329094     0.000000000000     1.007825032230

  Basis Set: AUG-CC-PVTZ
    Blend: AUG-CC-PVTZ
  Basis Set: (AUG-CC-PVTZ AUX)
    Blend: AUG-CC-PVTZ-JKFIT
	 Reference Energy          =    -149.1369032450096768 [Eh]
	 Singles Energy            =      -0.0000000000000000 [Eh]
	 Same-Spin Energy          =      -0.1513830455207354 [Eh]
	 Opposite-Spin Energy      =      -0.4907558821676006 [Eh]
	 Correlation Energy        =      -0.6421389276883360 [Eh]
	 Total Energy              =    -149.7790421726980128 [Eh]

	 ================> DF-SCS-MP2 Energies <==================
	-----------------------------------------------------------
	 SCS Same-Spin Scale       =       0.3333333333333333 [-]
	 SCS Opposite-Spin Scale   =       1.2000000000000000 [-]
	 SCS Same-Spin Energy      =      -0.0504610151735785 [Eh]
	 SCS Opposite-Spin Energy  =      -0.5889070586011207 [Eh]
	 SCS Correlation Energy    =      -0.6393680737746992 [Eh]
	 SCS Total Energy          =    -149.7762713187843815 [Eh]
	-----------------------------------------------------------

  Dipole Moment: [D]
     X:    -2.5987      Y:     1.1313      Z:    -0.0000     Total:     2.8343

*** Psi4 exiting successfully. Buy a developer a beer!
