                               Psi4 1.3.2 release

  ==> Input File <==

--------------------------------------------------------------------------
#psi4
#
memory 32 gb

molecule  {
0 1
  C        0.0000000     0.4159560     0.0000000
  H       -0.3340900     1.4603970     0.0000000
  N        1.2245270     0.0209870     0.0000000
  H        1.8415280     0.8339110     0.0000000
  N       -1.0366190    -0.4720110     0.0000000
  H       -0.8678015    -1.2636640     0.0000000
  H       -1.9967030    -0.1736100     0.0000000
units angstrom
no_reorient  #important for SAPT in psi4, default
symmetry c1  #important for SAPT in psi4, default
}

set PROPERTIES_ORIGIN ["COM"]
properties('MP2/aug-cc-pvtz', properties = ['dipole'])
--------------------------------------------------------------------------

    Molecular point group: c1
  Charge       = 0
  Multiplicity = 1
  Basis Set: AUG-CC-PVTZ
    Blend: AUG-CC-PVTZ
  Basis Set: (AUG-CC-PVTZ AUX)
    Blend: AUG-CC-PVTZ-JKFIT

    Orbital Energies [Eh]
    ---------------------

    Doubly Occupied:

       1A    -15.557655     2A    -15.525884     3A    -11.318727
       4A     -1.278910     5A     -1.152253     6A     -0.862127
       7A     -0.758759     8A     -0.659498     9A     -0.621790
      10A     -0.529690    11A     -0.424286    12A     -0.364964

  @DF-RHF Final Energy:  -149.09641049301965

   => Energetics <=

    Nuclear Repulsion Energy =             73.0852818192277738
    One-Electron Energy =                -346.2543000307878742
    Two-Electron Energy =                 124.0726077185404534
    Total Energy =                       -149.0964104930196754
  Basis Set: (AUG-CC-PVTZ AUX)
    Blend: AUG-CC-PVTZ-RI
    Molecular point group: c1

    Geometry (in Angstrom), charge = 0, multiplicity = 1:

       Center              X                  Y                   Z               Mass
    ------------   -----------------  -----------------  -----------------  -----------------
         C           -0.028693852491     0.426413239249     0.000000000000    12.000000000000
         H           -0.362783852491     1.470854239249     0.000000000000     1.007825032230
         N            1.195833147509     0.031444239249     0.000000000000    14.003074004430
         H            1.812834147509     0.844368239249     0.000000000000     1.007825032230
         N           -1.065312852491    -0.461553760751     0.000000000000    14.003074004430
         H           -0.896495352491    -1.253206760751     0.000000000000     1.007825032230
         H           -2.025396852491    -0.163152760751     0.000000000000     1.007825032230

  Basis Set: AUG-CC-PVTZ
    Blend: AUG-CC-PVTZ
  Basis Set: (AUG-CC-PVTZ AUX)
    Blend: AUG-CC-PVTZ-JKFIT
	 Reference Energy          =    -149.0964104930196470 [Eh]
	 Singles Energy            =      -0.0000000000000000 [Eh]
	 Same-Spin Energy          =      -0.1508362563475569 [Eh]
	 Opposite-Spin Energy      =      -0.4900838664187349 [Eh]
	 Correlation Energy        =      -0.6409201227662918 [Eh]
	 Total Energy              =    -149.7373306157859361 [Eh]

	 ================> DF-SCS-MP2 Energies <==================
	-----------------------------------------------------------
	 SCS Same-Spin Scale       =       0.3333333333333333 [-]
	 SCS Opposite-Spin Scale   =       1.2000000000000000 [-]
	 SCS Same-Spin Energy      =      -0.0502787521158523 [Eh]
	 SCS Opposite-Spin Energy  =      -0.5881006397024818 [Eh]
	 SCS Correlation Energy    =      -0.6383793918183341 [Eh]
	 SCS Total Energy          =    -149.7347898848379941 [Eh]
	-----------------------------------------------------------

  Dipole Moment: [D]
     X:    -2.5800      Y:     1.3270      Z:    -0.0000     Total:     2.9012

*** Psi4 exiting successfully. Buy a developer a beer!
