                               Psi4 1.4a3.dev225

  ==> Input File <==

--------------------------------------------------------------------------
#psi4
#
memory 32 gb

molecule  {
0 1
  C       -0.1211700     0.4020020    -0.0021590
  H       -0.1135610     1.4981820    -0.0182380
  N       -1.1713390    -0.3373500     0.0193110
  H       -2.0047150     0.2528190    -0.0022480
  N        1.1420860    -0.1478600    -0.0823680
  H        1.9274346     0.4009806     0.3746149
  H        1.1596200    -1.1416750     0.1217560
units angstrom
no_reorient  #important for SAPT in psi4, default
symmetry c1  #important for SAPT in psi4, default
}

set PROPERTIES_ORIGIN ["COM"]
properties('MP2/aug-cc-pvtz', properties = ['dipole'])
--------------------------------------------------------------------------

    Molecular point group: c1
  Charge       = 0
  Multiplicity = 1
  Basis Set: AUG-CC-PVTZ
    Blend: AUG-CC-PVTZ
  Basis Set: (AUG-CC-PVTZ AUX)
    Blend: AUG-CC-PVTZ-JKFIT

    Orbital Energies [Eh]
    ---------------------

    Doubly Occupied:

       1A    -15.582096     2A    -15.532488     3A    -11.318059
       4A     -1.252264     5A     -1.135659     6A     -0.821105
       7A     -0.727721     8A     -0.627775     9A     -0.612572
      10A     -0.524120    11A     -0.427906    12A     -0.372797

  @DF-RHF Final Energy:  -149.13978936676401

   => Energetics <=

    Nuclear Repulsion Energy =             71.6053125103558017
    One-Electron Energy =                -343.6210793098827594
    Two-Electron Energy =                 122.8759774327629231
    Total Energy =                       -149.1397893667640346
  Basis Set: (AUG-CC-PVTZ AUX)
    Blend: AUG-CC-PVTZ-RI
    Molecular point group: c1

    Geometry (in Angstrom), charge = 0, multiplicity = 1:

       Center              X                  Y                   Z               Mass
    ------------   -----------------  -----------------  -----------------  -----------------
         C           -0.101020953277     0.423624398578     0.007589319691    12.000000000000
         H           -0.093411953277     1.519804398578    -0.008489680309     1.007825032230
         N           -1.151189953277    -0.315727601422     0.029059319691    14.003074004430
         H           -1.984565953277     0.274441398578     0.007500319691     1.007825032230
         N            1.162235046723    -0.126237601422    -0.072619680309    14.003074004430
         H            1.947583646723     0.422602998578     0.384363219691     1.007825032230
         H            1.179769046723    -1.120052601422     0.131504319691     1.007825032230

  Basis Set: AUG-CC-PVTZ
    Blend: AUG-CC-PVTZ
  Basis Set: (AUG-CC-PVTZ AUX)
    Blend: AUG-CC-PVTZ-JKFIT
	 Reference Energy          =    -149.1397893667640062 [Eh]
	 Singles Energy            =      -0.0000000000000000 [Eh]
	 Same-Spin Energy          =      -0.1518296547229811 [Eh]
	 Opposite-Spin Energy      =      -0.4934474580760271 [Eh]
	 Correlation Energy        =      -0.6452771127990082 [Eh]
	 Total Energy              =    -149.7850664795630280 [Eh]

	 ================> DF-SCS-MP2 Energies <==================
	-----------------------------------------------------------
	 SCS Same-Spin Scale       =       0.3333333333333333 [-]
	 SCS Opposite-Spin Scale   =       1.2000000000000000 [-]
	 SCS Same-Spin Energy      =      -0.0506098849076604 [Eh]
	 SCS Opposite-Spin Energy  =      -0.5921369496912324 [Eh]
	 SCS Correlation Energy    =      -0.6427468345988928 [Eh]
	 SCS Total Energy          =    -149.7825362013628876 [Eh]
	-----------------------------------------------------------

  Dipole Moment: [D]
     X:     1.6316      Y:     1.8211      Z:     0.8817     Total:     2.5992

*** Psi4 exiting successfully. Buy a developer a beer!
