                               Psi4 1.3.2 release

  ==> Input File <==

--------------------------------------------------------------------------
#psi4
#
memory 32 gb

molecule  {
0 1
  C        0.0000000     0.4159560     0.0000000
  H       -0.3645567     1.5556429     0.0000000
  N        1.2245270     0.0209870     0.0000000
  H        1.8415280     0.8339110     0.0000000
  N       -1.0366190    -0.4720110     0.0000000
  H       -0.8260900    -1.4592660     0.0000000
  H       -1.9967030    -0.1736100     0.0000000
units angstrom
no_reorient  #important for SAPT in psi4, default
symmetry c1  #important for SAPT in psi4, default
}

set PROPERTIES_ORIGIN ["COM"]
properties('MP2/aug-cc-pvtz', properties = ['dipole'])
--------------------------------------------------------------------------

    Molecular point group: c1
  Charge       = 0
  Multiplicity = 1
  Basis Set: AUG-CC-PVTZ
    Blend: AUG-CC-PVTZ
  Basis Set: (AUG-CC-PVTZ AUX)
    Blend: AUG-CC-PVTZ-JKFIT

    Orbital Energies [Eh]
    ---------------------

    Doubly Occupied:

       1A    -15.579437     2A    -15.525479     3A    -11.329217
       4A     -1.253983     5A     -1.137206     6A     -0.817970
       7A     -0.738102     8A     -0.625096     9A     -0.613740
      10A     -0.526921    11A     -0.420546    12A     -0.362375

  @DF-RHF Final Energy:  -149.13607248282011

   => Energetics <=

    Nuclear Repulsion Energy =             71.5617534384258107
    One-Electron Energy =                -343.5355085913244579
    Two-Electron Energy =                 122.8376826700785500
    Total Energy =                       -149.1360724828201114
  Basis Set: (AUG-CC-PVTZ AUX)
    Blend: AUG-CC-PVTZ-RI
    Molecular point group: c1

    Geometry (in Angstrom), charge = 0, multiplicity = 1:

       Center              X                  Y                   Z               Mass
    ------------   -----------------  -----------------  -----------------  -----------------
         C           -0.028951196896     0.428709952478     0.000000000000    12.000000000000
         H           -0.393507896896     1.568396852478     0.000000000000     1.007825032230
         N            1.195575803104     0.033740952478     0.000000000000    14.003074004430
         H            1.812576803104     0.846664952478     0.000000000000     1.007825032230
         N           -1.065570196896    -0.459257047522     0.000000000000    14.003074004430
         H           -0.855041196896    -1.446512047522     0.000000000000     1.007825032230
         H           -2.025654196896    -0.160856047522     0.000000000000     1.007825032230

  Basis Set: AUG-CC-PVTZ
    Blend: AUG-CC-PVTZ
  Basis Set: (AUG-CC-PVTZ AUX)
    Blend: AUG-CC-PVTZ-JKFIT
	 Reference Energy          =    -149.1360724828201114 [Eh]
	 Singles Energy            =      -0.0000000000000000 [Eh]
	 Same-Spin Energy          =      -0.1521818643628110 [Eh]
	 Opposite-Spin Energy      =      -0.4930291961689448 [Eh]
	 Correlation Energy        =      -0.6452110605317558 [Eh]
	 Total Energy              =    -149.7812835433518615 [Eh]

	 ================> DF-SCS-MP2 Energies <==================
	-----------------------------------------------------------
	 SCS Same-Spin Scale       =       0.3333333333333333 [-]
	 SCS Opposite-Spin Scale   =       1.2000000000000000 [-]
	 SCS Same-Spin Energy      =      -0.0507272881209370 [Eh]
	 SCS Opposite-Spin Energy  =      -0.5916350354027338 [Eh]
	 SCS Correlation Energy    =      -0.6423623235236707 [Eh]
	 SCS Total Energy          =    -149.7784348063437960 [Eh]
	-----------------------------------------------------------

  Dipole Moment: [D]
     X:    -2.5099      Y:     1.0536      Z:    -0.0000     Total:     2.7220

*** Psi4 exiting successfully. Buy a developer a beer!
