                               Psi4 1.3.2 release

  ==> Input File <==

--------------------------------------------------------------------------
#psi4
#
memory 32 gb

molecule  {
0 1
  C        0.0000000     0.4159560     0.0000000
  H       -0.3340900     1.4603970     0.0000000
  N        1.2245270     0.0209870     0.0000000
  H        1.8415280     0.8339110     0.0000000
  N       -1.0366190    -0.4720110     0.0000000
  H       -0.7843785    -1.6548680     0.0000000
  H       -1.9967030    -0.1736100     0.0000000
units angstrom
no_reorient  #important for SAPT in psi4, default
symmetry c1  #important for SAPT in psi4, default
}

set PROPERTIES_ORIGIN ["COM"]
properties('MP2/aug-cc-pvtz', properties = ['dipole'])
--------------------------------------------------------------------------

    Molecular point group: c1
  Charge       = 0
  Multiplicity = 1
  Basis Set: AUG-CC-PVTZ
    Blend: AUG-CC-PVTZ
  Basis Set: (AUG-CC-PVTZ AUX)
    Blend: AUG-CC-PVTZ-JKFIT

    Orbital Energies [Eh]
    ---------------------

    Doubly Occupied:

       1A    -15.591902     2A    -15.522065     3A    -11.317446
       4A     -1.242388     5A     -1.125122     6A     -0.811475
       7A     -0.728664     8A     -0.620240     9A     -0.590742
      10A     -0.522711    11A     -0.421466    12A     -0.357842

  @DF-RHF Final Energy:  -149.11324743532236

   => Energetics <=

    Nuclear Repulsion Energy =             71.1419497994221643
    One-Electron Energy =                -342.8062679653003784
    Two-Electron Energy =                 122.5510707305558498
    Total Energy =                       -149.1132474353223643
  Basis Set: (AUG-CC-PVTZ AUX)
    Blend: AUG-CC-PVTZ-RI
    Molecular point group: c1

    Geometry (in Angstrom), charge = 0, multiplicity = 1:

       Center              X                  Y                   Z               Mass
    ------------   -----------------  -----------------  -----------------  -----------------
         C           -0.030603040948     0.435366191806     0.000000000000    12.000000000000
         H           -0.364693040948     1.479807191806     0.000000000000     1.007825032230
         N            1.193923959052     0.040397191806     0.000000000000    14.003074004430
         H            1.810924959052     0.853321191806     0.000000000000     1.007825032230
         N           -1.067222040948    -0.452600808194     0.000000000000    14.003074004430
         H           -0.814981540948    -1.635457808194     0.000000000000     1.007825032230
         H           -2.027306040948    -0.154199808194     0.000000000000     1.007825032230

  Basis Set: AUG-CC-PVTZ
    Blend: AUG-CC-PVTZ
  Basis Set: (AUG-CC-PVTZ AUX)
    Blend: AUG-CC-PVTZ-JKFIT
	 Reference Energy          =    -149.1132474353223643 [Eh]
	 Singles Energy            =      -0.0000000000000000 [Eh]
	 Same-Spin Energy          =      -0.1532409238788371 [Eh]
	 Opposite-Spin Energy      =      -0.4959611119632272 [Eh]
	 Correlation Energy        =      -0.6492020358420643 [Eh]
	 Total Energy              =    -149.7624494711644161 [Eh]

	 ================> DF-SCS-MP2 Energies <==================
	-----------------------------------------------------------
	 SCS Same-Spin Scale       =       0.3333333333333333 [-]
	 SCS Opposite-Spin Scale   =       1.2000000000000000 [-]
	 SCS Same-Spin Energy      =      -0.0510803079596124 [Eh]
	 SCS Opposite-Spin Energy  =      -0.5951533343558727 [Eh]
	 SCS Correlation Energy    =      -0.6462336423154851 [Eh]
	 SCS Total Energy          =    -149.7594810776378438 [Eh]
	-----------------------------------------------------------

  Dipole Moment: [D]
     X:    -2.5291      Y:     0.9433      Z:    -0.0000     Total:     2.6993

*** Psi4 exiting successfully. Buy a developer a beer!
