                               Psi4 1.3.2 release

  ==> Input File <==

--------------------------------------------------------------------------
#psi4
#
memory 32 gb

molecule  {
-1 1
  O        0.5788362    -1.1981663     0.0000210
  O        0.7018860     1.1499410     0.0000130
  N       -1.2570750    -0.0000040    -0.0001850
  C        0.1802210     0.0000000     0.0000470
  H       -1.7560250     0.8738390     0.0004010
  H       -1.7560220    -0.8738500     0.0004010
units angstrom
no_reorient  #important for SAPT in psi4, default
symmetry c1  #important for SAPT in psi4, default
}

set PROPERTIES_ORIGIN ["COM"]
properties('MP2/aug-cc-pvtz', properties = ['dipole'])
--------------------------------------------------------------------------

    Molecular point group: c1
  Charge       = -1
  Multiplicity = 1
  Basis Set: AUG-CC-PVTZ
    Blend: AUG-CC-PVTZ
  Basis Set: (AUG-CC-PVTZ AUX)
    Blend: AUG-CC-PVTZ-JKFIT

    Orbital Energies [Eh]
    ---------------------

    Doubly Occupied:

       1A    -20.291368     2A    -20.284248     3A    -15.360283
       4A    -11.159566     5A     -1.168864     6A     -1.071530
       7A     -0.952933     8A     -0.558691     9A     -0.496087
      10A     -0.433003    11A     -0.381444    12A     -0.374585
      13A     -0.218250    14A     -0.209601    15A     -0.204011
      16A     -0.197162

  @DF-RHF Final Energy:  -243.34349825641692

   => Energetics <=

    Nuclear Repulsion Energy =            113.5086112689936044
    One-Electron Energy =                -566.9809657089683697
    Two-Electron Energy =                 210.1288561835578435
    Total Energy =                       -243.3434982564169218
  Basis Set: (AUG-CC-PVTZ AUX)
    Blend: AUG-CC-PVTZ-RI
    Molecular point group: c1

    Geometry (in Angstrom), charge = -1, multiplicity = 1:

       Center              X                  Y                   Z               Mass
    ------------   -----------------  -----------------  -----------------  -----------------
         O            0.553752257423    -1.185311021680     0.000032239496    15.994914619570
         O            0.676802057423     1.162796278320     0.000024239496    15.994914619570
         N           -1.282158942577     0.012851278320    -0.000173760504    14.003074004430
         C            0.155137057423     0.012855278320     0.000058239496    12.000000000000
         H           -1.781108942577     0.886694278320     0.000412239496     1.007825032230
         H           -1.781105942577    -0.860994721680     0.000412239496     1.007825032230

  Basis Set: AUG-CC-PVTZ
    Blend: AUG-CC-PVTZ
  Basis Set: (AUG-CC-PVTZ AUX)
    Blend: AUG-CC-PVTZ-JKFIT
	 Reference Energy          =    -243.3434982564169218 [Eh]
	 Singles Energy            =      -0.0000000000000000 [Eh]
	 Same-Spin Energy          =      -0.2391328671667850 [Eh]
	 Opposite-Spin Energy      =      -0.6926130269064692 [Eh]
	 Correlation Energy        =      -0.9317458940732543 [Eh]
	 Total Energy              =    -244.2752441504901810 [Eh]

	 ================> DF-SCS-MP2 Energies <==================
	-----------------------------------------------------------
	 SCS Same-Spin Scale       =       0.3333333333333333 [-]
	 SCS Opposite-Spin Scale   =       1.2000000000000000 [-]
	 SCS Same-Spin Energy      =      -0.0797109557222617 [Eh]
	 SCS Opposite-Spin Energy  =      -0.8311356322877630 [Eh]
	 SCS Correlation Energy    =      -0.9108465880100247 [Eh]
	 SCS Total Energy          =    -244.2543448444269529 [Eh]
	-----------------------------------------------------------

  Dipole Moment: [D]
     X:    -3.5021      Y:     0.0919      Z:     0.0017     Total:     3.5033

*** Psi4 exiting successfully. Buy a developer a beer!
