                               Psi4 1.4a3.dev225

  ==> Input File <==

--------------------------------------------------------------------------
#psi4
#
memory 32 gb

molecule  {
-1 1
  O       -0.7074350     1.1407700     0.0087330
  O       -0.7074350    -1.1407700     0.0087330
  N        1.2758540     0.0000000    -0.1055120
  C       -0.1107388     0.0000000    -0.0069559
  H        1.6758320    -0.8356090     0.3096610
  H        1.6758330     0.8356080     0.3096610
units angstrom
no_reorient  #important for SAPT in psi4, default
symmetry c1  #important for SAPT in psi4, default
}

set PROPERTIES_ORIGIN ["COM"]
properties('MP2/aug-cc-pvtz', properties = ['dipole'])
--------------------------------------------------------------------------

    Molecular point group: c1
  Charge       = -1
  Multiplicity = 1
  Basis Set: AUG-CC-PVTZ
    Blend: AUG-CC-PVTZ
  Basis Set: (AUG-CC-PVTZ AUX)
    Blend: AUG-CC-PVTZ-JKFIT

    Orbital Energies [Eh]
    ---------------------

    Doubly Occupied:

       1A    -20.281265     2A    -20.281233     3A    -15.387587
       4A    -11.156245     5A     -1.160079     6A     -1.041633
       7A     -0.991438     8A     -0.570519     9A     -0.502383
      10A     -0.428814    11A     -0.376228    12A     -0.359209
      13A     -0.241582    14A     -0.219206    15A     -0.191920
      16A     -0.184799

  @DF-RHF Final Energy:  -243.34450030894271

   => Energetics <=

    Nuclear Repulsion Energy =            113.1732602044967422
    One-Electron Energy =                -566.2872393114326997
    Two-Electron Energy =                 209.7694787979932585
    Total Energy =                       -243.3445003089427132
  Basis Set: (AUG-CC-PVTZ AUX)
    Blend: AUG-CC-PVTZ-RI
    Molecular point group: c1

    Geometry (in Angstrom), charge = -1, multiplicity = 1:

       Center              X                  Y                   Z               Mass
    ------------   -----------------  -----------------  -----------------  -----------------
         O           -0.662177775311     1.140770016795     0.019688567411    15.994914619570
         O           -0.662177775311    -1.140769983205     0.019688567411    15.994914619570
         N            1.321111224689     0.000000016795    -0.094556432589    14.003074004430
         C           -0.065481575311     0.000000016795     0.003999667411    12.000000000000
         H            1.721089224689    -0.835608983205     0.320616567411     1.007825032230
         H            1.721090224689     0.835608016795     0.320616567411     1.007825032230

  Basis Set: AUG-CC-PVTZ
    Blend: AUG-CC-PVTZ
  Basis Set: (AUG-CC-PVTZ AUX)
    Blend: AUG-CC-PVTZ-JKFIT
	 Reference Energy          =    -243.3445003089427132 [Eh]
	 Singles Energy            =      -0.0000000000000000 [Eh]
	 Same-Spin Energy          =      -0.2392099110671853 [Eh]
	 Opposite-Spin Energy      =      -0.6938389710126591 [Eh]
	 Correlation Energy        =      -0.9330488820798444 [Eh]
	 Total Energy              =    -244.2775491910225583 [Eh]

	 ================> DF-SCS-MP2 Energies <==================
	-----------------------------------------------------------
	 SCS Same-Spin Scale       =       0.3333333333333333 [-]
	 SCS Opposite-Spin Scale   =       1.2000000000000000 [-]
	 SCS Same-Spin Energy      =      -0.0797366370223951 [Eh]
	 SCS Opposite-Spin Energy  =      -0.8326067652151909 [Eh]
	 SCS Correlation Energy    =      -0.9123434022375860 [Eh]
	 SCS Total Energy          =    -244.2568437111802950 [Eh]
	-----------------------------------------------------------

  Dipole Moment: [D]
     X:     4.0273      Y:    -0.0000      Z:     1.0347     Total:     4.1581

*** Psi4 exiting successfully. Buy a developer a beer!
