                               Psi4 1.3.2 release

  ==> Input File <==

--------------------------------------------------------------------------
#psi4
#
memory 32 gb

molecule  {
-1 1
  O        0.7018950    -1.1499360     0.0000130
  O        0.7018860     1.1499410     0.0000130
  N       -1.2570750    -0.0000040    -0.0001850
  C        0.3802210     0.0000006     0.0000793
  H       -1.7560250     0.8738390     0.0004010
  H       -1.7560220    -0.8738500     0.0004010
units angstrom
no_reorient  #important for SAPT in psi4, default
symmetry c1  #important for SAPT in psi4, default
}

set PROPERTIES_ORIGIN ["COM"]
properties('MP2/aug-cc-pvtz', properties = ['dipole'])
--------------------------------------------------------------------------

    Molecular point group: c1
  Charge       = -1
  Multiplicity = 1
  Basis Set: AUG-CC-PVTZ
    Blend: AUG-CC-PVTZ
  Basis Set: (AUG-CC-PVTZ AUX)
    Blend: AUG-CC-PVTZ-JKFIT

    Orbital Energies [Eh]
    ---------------------

    Doubly Occupied:

       1A    -20.312054     2A    -20.312022     3A    -15.318135
       4A    -11.171686     5A     -1.217132     6A     -1.138688
       7A     -0.892517     8A     -0.525984     9A     -0.456036
      10A     -0.451528    11A     -0.425036    12A     -0.404774
      13A     -0.244358    14A     -0.231464    15A     -0.199777
      16A     -0.169253

  @DF-RHF Final Energy:  -243.32015805739627

   => Energetics <=

    Nuclear Repulsion Energy =            113.4346391165663164
    One-Electron Energy =                -566.5687052072537426
    Two-Electron Energy =                 209.8139080332911703
    Total Energy =                       -243.3201580573962701
  Basis Set: (AUG-CC-PVTZ AUX)
    Blend: AUG-CC-PVTZ-RI
    Molecular point group: c1

    Geometry (in Angstrom), charge = -1, multiplicity = 1:

       Center              X                  Y                   Z               Mass
    ------------   -----------------  -----------------  -----------------  -----------------
         O            0.604016184719    -1.149936334556     0.000019912768    15.994914619570
         O            0.604007184719     1.149940665444     0.000019912768    15.994914619570
         N           -1.354953815281    -0.000004334556    -0.000178087232    14.003074004430
         C            0.282342184719     0.000000265444     0.000086212768    12.000000000000
         H           -1.853903815281     0.873838665444     0.000407912768     1.007825032230
         H           -1.853900815281    -0.873850334556     0.000407912768     1.007825032230

  Basis Set: AUG-CC-PVTZ
    Blend: AUG-CC-PVTZ
  Basis Set: (AUG-CC-PVTZ AUX)
    Blend: AUG-CC-PVTZ-JKFIT
	 Reference Energy          =    -243.3201580573962701 [Eh]
	 Singles Energy            =      -0.0000000000000000 [Eh]
	 Same-Spin Energy          =      -0.2391249183298517 [Eh]
	 Opposite-Spin Energy      =      -0.6925243410217273 [Eh]
	 Correlation Energy        =      -0.9316492593515791 [Eh]
	 Total Energy              =    -244.2518073167478576 [Eh]

	 ================> DF-SCS-MP2 Energies <==================
	-----------------------------------------------------------
	 SCS Same-Spin Scale       =       0.3333333333333333 [-]
	 SCS Opposite-Spin Scale   =       1.2000000000000000 [-]
	 SCS Same-Spin Energy      =      -0.0797083061099506 [Eh]
	 SCS Opposite-Spin Energy  =      -0.8310292092260728 [Eh]
	 SCS Correlation Energy    =      -0.9107375153360233 [Eh]
	 SCS Total Energy          =    -244.2308955727322939 [Eh]
	-----------------------------------------------------------

  Dipole Moment: [D]
     X:    -1.2293      Y:    -0.0000      Z:     0.0020     Total:     1.2293

*** Psi4 exiting successfully. Buy a developer a beer!
