                               Psi4 1.3.2 release

  ==> Input File <==

--------------------------------------------------------------------------
#psi4
#
memory 32 gb

molecule  {
-1 1
  O        0.7018950    -1.1499360     0.0000130
  O        0.7018860     1.1499410     0.0000130
  N       -1.2570750    -0.0000040    -0.0001850
  C        0.2628471    -0.1821344     0.0000416
  H       -1.7560250     0.8738390     0.0004010
  H       -1.7560220    -0.8738500     0.0004010
units angstrom
no_reorient  #important for SAPT in psi4, default
symmetry c1  #important for SAPT in psi4, default
}

set PROPERTIES_ORIGIN ["COM"]
properties('MP2/aug-cc-pvtz', properties = ['dipole'])
--------------------------------------------------------------------------

    Molecular point group: c1
  Charge       = -1
  Multiplicity = 1
  Basis Set: AUG-CC-PVTZ
    Blend: AUG-CC-PVTZ
  Basis Set: (AUG-CC-PVTZ AUX)
    Blend: AUG-CC-PVTZ-JKFIT

    Orbital Energies [Eh]
    ---------------------

    Doubly Occupied:

       1A    -20.338981     2A    -20.252168     3A    -15.347118
       4A    -11.153209     5A     -1.301960     6A     -1.015715
       7A     -0.923339     8A     -0.552776     9A     -0.494118
      10A     -0.468530    11A     -0.432166    12A     -0.404179
      13A     -0.218771    14A     -0.213438    15A     -0.172093
      16A     -0.166765

  @DF-RHF Final Energy:  -243.27122559769504

   => Energetics <=

    Nuclear Repulsion Energy =            113.9762837221490059
    One-Electron Energy =                -567.5843686899942213
    Two-Electron Energy =                 210.3368593701501936
    Total Energy =                       -243.2712255976950360
  Basis Set: (AUG-CC-PVTZ AUX)
    Blend: AUG-CC-PVTZ-RI
    Molecular point group: c1

    Geometry (in Angstrom), charge = -1, multiplicity = 1:

       Center              X                  Y                   Z               Mass
    ------------   -----------------  -----------------  -----------------  -----------------
         O            0.627487618746    -1.113514526671     0.000027451694    15.994914619570
         O            0.627478618746     1.186362473329     0.000027451694    15.994914619570
         N           -1.331482381254     0.036417473329    -0.000170548306    14.003074004430
         C            0.188439718746    -0.145712926671     0.000056051694    12.000000000000
         H           -1.830432381254     0.910260473329     0.000415451694     1.007825032230
         H           -1.830429381254    -0.837428526671     0.000415451694     1.007825032230

  Basis Set: AUG-CC-PVTZ
    Blend: AUG-CC-PVTZ
  Basis Set: (AUG-CC-PVTZ AUX)
    Blend: AUG-CC-PVTZ-JKFIT
	 Reference Energy          =    -243.2712255976950360 [Eh]
	 Singles Energy            =      -0.0000000000000000 [Eh]
	 Same-Spin Energy          =      -0.2380839938162246 [Eh]
	 Opposite-Spin Energy      =      -0.6914315482535891 [Eh]
	 Correlation Energy        =      -0.9295155420698137 [Eh]
	 Total Energy              =    -244.2007411397648582 [Eh]

	 ================> DF-SCS-MP2 Energies <==================
	-----------------------------------------------------------
	 SCS Same-Spin Scale       =       0.3333333333333333 [-]
	 SCS Opposite-Spin Scale   =       1.2000000000000000 [-]
	 SCS Same-Spin Energy      =      -0.0793613312720749 [Eh]
	 SCS Opposite-Spin Energy  =      -0.8297178579043069 [Eh]
	 SCS Correlation Energy    =      -0.9090791891763818 [Eh]
	 SCS Total Energy          =    -244.1803047868714316 [Eh]
	-----------------------------------------------------------

  Dipole Moment: [D]
     X:    -2.7702      Y:    -2.3176      Z:     0.0018     Total:     3.6118

*** Psi4 exiting successfully. Buy a developer a beer!
