                               Psi4 1.3.2 release

  ==> Input File <==

--------------------------------------------------------------------------
#psi4
#
memory 32 gb

molecule  {
-1 1
  O        0.7018950    -1.1499360     0.0000130
  O        0.7018860     1.1499410     0.0000130
  N       -1.2570750    -0.0000040    -0.0001850
  C        0.2802210     0.0000003     0.0000631
  H       -1.7560250     0.8738390     0.0004010
  H       -1.7560220    -0.8738500     0.0004010
units angstrom
no_reorient  #important for SAPT in psi4, default
symmetry c1  #important for SAPT in psi4, default
}

set PROPERTIES_ORIGIN ["COM"]
properties('MP2/aug-cc-pvtz', properties = ['dipole'])
--------------------------------------------------------------------------

    Molecular point group: c1
  Charge       = -1
  Multiplicity = 1
  Basis Set: AUG-CC-PVTZ
    Blend: AUG-CC-PVTZ
  Basis Set: (AUG-CC-PVTZ AUX)
    Blend: AUG-CC-PVTZ-JKFIT

    Orbital Energies [Eh]
    ---------------------

    Doubly Occupied:

       1A    -20.295584     2A    -20.295553     3A    -15.345380
       4A    -11.162491     5A     -1.190966     6A     -1.099810
       7A     -0.926473     8A     -0.536243     9A     -0.477043
      10A     -0.442947    11A     -0.402744    12A     -0.384695
      13A     -0.223515    14A     -0.214721    15A     -0.210954
      16A     -0.192036

  @DF-RHF Final Energy:  -243.34077715768646

   => Energetics <=

    Nuclear Repulsion Energy =            113.3647393992635415
    One-Electron Energy =                -566.6087260227842535
    Two-Electron Energy =                 209.9032094658342373
    Total Energy =                       -243.3407771576864604
  Basis Set: (AUG-CC-PVTZ AUX)
    Blend: AUG-CC-PVTZ-RI
    Molecular point group: c1

    Geometry (in Angstrom), charge = -1, multiplicity = 1:

       Center              X                  Y                   Z               Mass
    ------------   -----------------  -----------------  -----------------  -----------------
         O            0.624013334023    -1.149936274564     0.000023152307    15.994914619570
         O            0.624004334023     1.149940725436     0.000023152307    15.994914619570
         N           -1.334956665977    -0.000004274564    -0.000174847693    14.003074004430
         C            0.202339334023     0.000000025436     0.000073252307    12.000000000000
         H           -1.833906665977     0.873838725436     0.000411152307     1.007825032230
         H           -1.833903665977    -0.873850274564     0.000411152307     1.007825032230

  Basis Set: AUG-CC-PVTZ
    Blend: AUG-CC-PVTZ
  Basis Set: (AUG-CC-PVTZ AUX)
    Blend: AUG-CC-PVTZ-JKFIT
	 Reference Energy          =    -243.3407771576864604 [Eh]
	 Singles Energy            =      -0.0000000000000000 [Eh]
	 Same-Spin Energy          =      -0.2385628045427791 [Eh]
	 Opposite-Spin Energy      =      -0.6915827501134177 [Eh]
	 Correlation Energy        =      -0.9301455546561969 [Eh]
	 Total Energy              =    -244.2709227123426672 [Eh]

	 ================> DF-SCS-MP2 Energies <==================
	-----------------------------------------------------------
	 SCS Same-Spin Scale       =       0.3333333333333333 [-]
	 SCS Opposite-Spin Scale   =       1.2000000000000000 [-]
	 SCS Same-Spin Energy      =      -0.0795209348475930 [Eh]
	 SCS Opposite-Spin Energy  =      -0.8298993001361012 [Eh]
	 SCS Correlation Energy    =      -0.9094202349836943 [Eh]
	 SCS Total Energy          =    -244.2501973926701453 [Eh]
	-----------------------------------------------------------

  Dipole Moment: [D]
     X:    -2.5940      Y:    -0.0000      Z:     0.0019     Total:     2.5940

*** Psi4 exiting successfully. Buy a developer a beer!
