                               Psi4 1.4a3.dev225

  ==> Input File <==

--------------------------------------------------------------------------
#psi4
#
memory 32 gb

molecule  {
-1 1
  O       -0.7074350     1.1407700     0.0087330
  O       -0.7074350    -1.1407700     0.0087330
  N        1.2758540     0.0000000    -0.1055120
  C       -0.1692576     0.0180342    -0.0032190
  H        1.6758320    -0.8356090     0.3096610
  H        1.6758330     0.8356080     0.3096610
units angstrom
no_reorient  #important for SAPT in psi4, default
symmetry c1  #important for SAPT in psi4, default
}

set PROPERTIES_ORIGIN ["COM"]
properties('MP2/aug-cc-pvtz', properties = ['dipole'])
--------------------------------------------------------------------------

    Molecular point group: c1
  Charge       = -1
  Multiplicity = 1
  Basis Set: AUG-CC-PVTZ
    Blend: AUG-CC-PVTZ
  Basis Set: (AUG-CC-PVTZ AUX)
    Blend: AUG-CC-PVTZ-JKFIT

    Orbital Energies [Eh]
    ---------------------

    Doubly Occupied:

       1A    -20.290593     2A    -20.281979     3A    -15.376115
       4A    -11.156303     5A     -1.172887     6A     -1.062035
       7A     -0.970404     8A     -0.552369     9A     -0.487236
      10A     -0.435103    11A     -0.377222    12A     -0.375257
      13A     -0.242750    14A     -0.214054    15A     -0.202573
      16A     -0.193306

  @DF-RHF Final Energy:  -243.35067207128077

   => Energetics <=

    Nuclear Repulsion Energy =            113.2665995287099463
    One-Electron Energy =                -566.4541709318102676
    Two-Electron Energy =                 209.8368993318195521
    Total Energy =                       -243.3506720712807692
  Basis Set: (AUG-CC-PVTZ AUX)
    Blend: AUG-CC-PVTZ-RI
    Molecular point group: c1

    Geometry (in Angstrom), charge = -1, multiplicity = 1:

       Center              X                  Y                   Z               Mass
    ------------   -----------------  -----------------  -----------------  -----------------
         O           -0.650475683505     1.137163690895     0.018941293939    15.994914619570
         O           -0.650475683505    -1.144376309105     0.018941293939    15.994914619570
         N            1.332813316495    -0.003606309105    -0.095303706061    14.003074004430
         C           -0.112298283505     0.014427890895     0.006989293939    12.000000000000
         H            1.732791316495    -0.839215309105     0.319869293939     1.007825032230
         H            1.732792316495     0.832001690895     0.319869293939     1.007825032230

  Basis Set: AUG-CC-PVTZ
    Blend: AUG-CC-PVTZ
  Basis Set: (AUG-CC-PVTZ AUX)
    Blend: AUG-CC-PVTZ-JKFIT
	 Reference Energy          =    -243.3506720712807692 [Eh]
	 Singles Energy            =      -0.0000000000000000 [Eh]
	 Same-Spin Energy          =      -0.2385183084307618 [Eh]
	 Opposite-Spin Energy      =      -0.6926421686043928 [Eh]
	 Correlation Energy        =      -0.9311604770351546 [Eh]
	 Total Energy              =    -244.2818325483159185 [Eh]

	 ================> DF-SCS-MP2 Energies <==================
	-----------------------------------------------------------
	 SCS Same-Spin Scale       =       0.3333333333333333 [-]
	 SCS Opposite-Spin Scale   =       1.2000000000000000 [-]
	 SCS Same-Spin Energy      =      -0.0795061028102539 [Eh]
	 SCS Opposite-Spin Energy  =      -0.8311706023252713 [Eh]
	 SCS Correlation Energy    =      -0.9106767051355252 [Eh]
	 SCS Total Energy          =    -244.2613487764162983 [Eh]
	-----------------------------------------------------------

  Dipole Moment: [D]
     X:     3.4228      Y:     0.2209      Z:     1.0605     Total:     3.5901

*** Psi4 exiting successfully. Buy a developer a beer!
