                               Psi4 1.3.2 release

  ==> Input File <==

--------------------------------------------------------------------------
#psi4
#
memory 32 gb

molecule  {
-1 1
  O        0.7018950    -1.1499360     0.0000130
  O        0.7018860     1.1499410     0.0000130
  N       -1.2570750    -0.0000040    -0.0001850
  C        0.0802210    -0.0000003     0.0000309
  H       -1.7560250     0.8738390     0.0004010
  H       -1.7560220    -0.8738500     0.0004010
units angstrom
no_reorient  #important for SAPT in psi4, default
symmetry c1  #important for SAPT in psi4, default
}

set PROPERTIES_ORIGIN ["COM"]
properties('MP2/aug-cc-pvtz', properties = ['dipole'])
--------------------------------------------------------------------------

    Molecular point group: c1
  Charge       = -1
  Multiplicity = 1
  Basis Set: AUG-CC-PVTZ
    Blend: AUG-CC-PVTZ
  Basis Set: (AUG-CC-PVTZ AUX)
    Blend: AUG-CC-PVTZ-JKFIT

    Orbital Energies [Eh]
    ---------------------

    Doubly Occupied:

       1A    -20.273451     2A    -20.273420     3A    -15.390595
       4A    -11.154526     5A     -1.149731     6A     -1.024707
       7A     -0.997056     8A     -0.598413     9A     -0.529751
      10A     -0.420367    11A     -0.374035    12A     -0.347425
      13A     -0.221511    14A     -0.215331    15A     -0.181831
      16A     -0.177710

  @DF-RHF Final Energy:  -243.33569307448016

   => Energetics <=

    Nuclear Repulsion Energy =            113.1689830156054057
    One-Electron Energy =                -566.3496335358871647
    Two-Electron Energy =                 209.8449574458015832
    Total Energy =                       -243.3356930744801616
  Basis Set: (AUG-CC-PVTZ AUX)
    Blend: AUG-CC-PVTZ-RI
    Molecular point group: c1

    Geometry (in Angstrom), charge = -1, multiplicity = 1:

       Center              X                  Y                   Z               Mass
    ------------   -----------------  -----------------  -----------------  -----------------
         O            0.664007632631    -1.149936154581     0.000029591389    15.994914619570
         O            0.663998632631     1.149940845419     0.000029591389    15.994914619570
         N           -1.294962367369    -0.000004154581    -0.000168408611    14.003074004430
         C            0.042333632631    -0.000000454581     0.000047491389    12.000000000000
         H           -1.793912367369     0.873838845419     0.000417591389     1.007825032230
         H           -1.793909367369    -0.873850154581     0.000417591389     1.007825032230

  Basis Set: AUG-CC-PVTZ
    Blend: AUG-CC-PVTZ
  Basis Set: (AUG-CC-PVTZ AUX)
    Blend: AUG-CC-PVTZ-JKFIT
	 Reference Energy          =    -243.3356930744801616 [Eh]
	 Singles Energy            =      -0.0000000000000000 [Eh]
	 Same-Spin Energy          =      -0.2397271093544983 [Eh]
	 Opposite-Spin Energy      =      -0.6936829059124739 [Eh]
	 Correlation Energy        =      -0.9334100152669722 [Eh]
	 Total Energy              =    -244.2691030897471478 [Eh]

	 ================> DF-SCS-MP2 Energies <==================
	-----------------------------------------------------------
	 SCS Same-Spin Scale       =       0.3333333333333333 [-]
	 SCS Opposite-Spin Scale   =       1.2000000000000000 [-]
	 SCS Same-Spin Energy      =      -0.0799090364514994 [Eh]
	 SCS Opposite-Spin Energy  =      -0.8324194870949687 [Eh]
	 SCS Correlation Energy    =      -0.9123285235464682 [Eh]
	 SCS Total Energy          =    -244.2480215980266394 [Eh]
	-----------------------------------------------------------

  Dipole Moment: [D]
     X:    -4.9059      Y:    -0.0000      Z:     0.0016     Total:     4.9059

*** Psi4 exiting successfully. Buy a developer a beer!
