                               Psi4 1.3.2 release

  ==> Input File <==

--------------------------------------------------------------------------
#psi4
#
memory 32 gb

molecule  {
-1 1
  O        0.7018950    -1.1499360     0.0000130
  O        0.6203994     1.1835293    -0.0000036
  N       -1.2570750    -0.0000040    -0.0001850
  C        0.1802210     0.0000000     0.0000470
  H       -1.7560250     0.8738390     0.0004010
  H       -1.7560220    -0.8738500     0.0004010
units angstrom
no_reorient  #important for SAPT in psi4, default
symmetry c1  #important for SAPT in psi4, default
}

set PROPERTIES_ORIGIN ["COM"]
properties('MP2/aug-cc-pvtz', properties = ['dipole'])
--------------------------------------------------------------------------

    Molecular point group: c1
  Charge       = -1
  Multiplicity = 1
  Basis Set: AUG-CC-PVTZ
    Blend: AUG-CC-PVTZ
  Basis Set: (AUG-CC-PVTZ AUX)
    Blend: AUG-CC-PVTZ-JKFIT

    Orbital Energies [Eh]
    ---------------------

    Doubly Occupied:

       1A    -20.288676     2A    -20.283976     3A    -15.363365
       4A    -11.158817     5A     -1.168090     6A     -1.068239
       7A     -0.956204     8A     -0.559762     9A     -0.498162
      10A     -0.432921    11A     -0.379769    12A     -0.373940
      13A     -0.219171    14A     -0.207913    15A     -0.204662
      16A     -0.196791

  @DF-RHF Final Energy:  -243.34594880717344

   => Energetics <=

    Nuclear Repulsion Energy =            113.4063179571497386
    One-Electron Energy =                -566.7836205226291213
    Two-Electron Energy =                 210.0313537583059542
    Total Energy =                       -243.3459488071734427
  Basis Set: (AUG-CC-PVTZ AUX)
    Blend: AUG-CC-PVTZ-RI
    Molecular point group: c1

    Geometry (in Angstrom), charge = -1, multiplicity = 1:

       Center              X                  Y                   Z               Mass
    ------------   -----------------  -----------------  -----------------  -----------------
         O            0.665730240558    -1.158888971490     0.000030796477    15.994914619570
         O            0.584234640558     1.174576328510     0.000014196477    15.994914619570
         N           -1.293239759442    -0.008956971490    -0.000167203523    14.003074004430
         C            0.144056240558    -0.008952971490     0.000064796477    12.000000000000
         H           -1.792189759442     0.864886028510     0.000418796477     1.007825032230
         H           -1.792186759442    -0.882802971490     0.000418796477     1.007825032230

  Basis Set: AUG-CC-PVTZ
    Blend: AUG-CC-PVTZ
  Basis Set: (AUG-CC-PVTZ AUX)
    Blend: AUG-CC-PVTZ-JKFIT
	 Reference Energy          =    -243.3459488071734427 [Eh]
	 Singles Energy            =      -0.0000000000000000 [Eh]
	 Same-Spin Energy          =      -0.2389738575200156 [Eh]
	 Opposite-Spin Energy      =      -0.6923305522629710 [Eh]
	 Correlation Energy        =      -0.9313044097829866 [Eh]
	 Total Energy              =    -244.2772532169564386 [Eh]

	 ================> DF-SCS-MP2 Energies <==================
	-----------------------------------------------------------
	 SCS Same-Spin Scale       =       0.3333333333333333 [-]
	 SCS Opposite-Spin Scale   =       1.2000000000000000 [-]
	 SCS Same-Spin Energy      =      -0.0796579525066718 [Eh]
	 SCS Opposite-Spin Energy  =      -0.8307966627155652 [Eh]
	 SCS Correlation Energy    =      -0.9104546152222370 [Eh]
	 SCS Total Energy          =    -244.2564034223956924 [Eh]
	-----------------------------------------------------------

  Dipole Moment: [D]
     X:    -3.6068      Y:    -0.0646      Z:     0.0017     Total:     3.6074

*** Psi4 exiting successfully. Buy a developer a beer!
