                               Psi4 1.4a3.dev225

  ==> Input File <==

--------------------------------------------------------------------------
#psi4
#
memory 32 gb

molecule  {
-1 1
  O       -0.7074350     1.1407700     0.0087330
  O       -0.7074350    -1.1407700     0.0087330
  N        1.2758540     0.0000000    -0.1055120
  C       -0.1406633     0.0000000    -0.0048290
  H        1.6758320    -0.8356090     0.3096610
  H        1.6758330     0.8356080     0.3096610
units angstrom
no_reorient  #important for SAPT in psi4, default
symmetry c1  #important for SAPT in psi4, default
}

set PROPERTIES_ORIGIN ["COM"]
properties('MP2/aug-cc-pvtz', properties = ['dipole'])
--------------------------------------------------------------------------

    Molecular point group: c1
  Charge       = -1
  Multiplicity = 1
  Basis Set: AUG-CC-PVTZ
    Blend: AUG-CC-PVTZ
  Basis Set: (AUG-CC-PVTZ AUX)
    Blend: AUG-CC-PVTZ-JKFIT

    Orbital Energies [Eh]
    ---------------------

    Doubly Occupied:

       1A    -20.283745     2A    -20.283712     3A    -15.381857
       4A    -11.156221     5A     -1.165462     6A     -1.052529
       7A     -0.980901     8A     -0.560806     9A     -0.494560
      10A     -0.431739    11A     -0.375919    12A     -0.367635
      13A     -0.242378    14A     -0.216745    15A     -0.197802
      16A     -0.189329

  @DF-RHF Final Energy:  -243.34891091144482

   => Energetics <=

    Nuclear Repulsion Energy =            113.2156894604412400
    One-Electron Energy =                -566.3665203306795775
    Two-Electron Energy =                 209.8019199587935191
    Total Energy =                       -243.3489109114448183
  Basis Set: (AUG-CC-PVTZ AUX)
    Blend: AUG-CC-PVTZ-RI
    Molecular point group: c1

    Geometry (in Angstrom), charge = -1, multiplicity = 1:

       Center              X                  Y                   Z               Mass
    ------------   -----------------  -----------------  -----------------  -----------------
         O           -0.656193728368     1.140770016795     0.019263248042    15.994914619570
         O           -0.656193728368    -1.140769983205     0.019263248042    15.994914619570
         N            1.327095271632     0.000000016795    -0.094981751958    14.003074004430
         C           -0.089422028368     0.000000016795     0.005701248042    12.000000000000
         H            1.727073271632    -0.835608983205     0.320191248042     1.007825032230
         H            1.727074271632     0.835608016795     0.320191248042     1.007825032230

  Basis Set: AUG-CC-PVTZ
    Blend: AUG-CC-PVTZ
  Basis Set: (AUG-CC-PVTZ AUX)
    Blend: AUG-CC-PVTZ-JKFIT
	 Reference Energy          =    -243.3489109114448183 [Eh]
	 Singles Energy            =      -0.0000000000000000 [Eh]
	 Same-Spin Energy          =      -0.2388192632703993 [Eh]
	 Opposite-Spin Energy      =      -0.6931611865482892 [Eh]
	 Correlation Energy        =      -0.9319804498186884 [Eh]
	 Total Energy              =    -244.2808913612635138 [Eh]

	 ================> DF-SCS-MP2 Energies <==================
	-----------------------------------------------------------
	 SCS Same-Spin Scale       =       0.3333333333333333 [-]
	 SCS Opposite-Spin Scale   =       1.2000000000000000 [-]
	 SCS Same-Spin Energy      =      -0.0796064210901331 [Eh]
	 SCS Opposite-Spin Energy  =      -0.8317934238579470 [Eh]
	 SCS Correlation Energy    =      -0.9113998449480800 [Eh]
	 SCS Total Energy          =    -244.2603107563928972 [Eh]
	-----------------------------------------------------------

  Dipole Moment: [D]
     X:     3.7227      Y:    -0.0000      Z:     1.0484     Total:     3.8675

*** Psi4 exiting successfully. Buy a developer a beer!
