                               Psi4 1.4a3.dev225

  ==> Input File <==

--------------------------------------------------------------------------
#psi4
#
memory 32 gb

molecule  {
-1 1
  O       -0.7074350     1.1407700     0.0087330
  O       -0.7074350    -1.1407700     0.0087330
  N        1.2758540     0.0000000    -0.1055120
  C       -0.1519684    -0.0180342    -0.0036030
  H        1.6758320    -0.8356090     0.3096610
  H        1.6758330     0.8356080     0.3096610
units angstrom
no_reorient  #important for SAPT in psi4, default
symmetry c1  #important for SAPT in psi4, default
}

set PROPERTIES_ORIGIN ["COM"]
properties('MP2/aug-cc-pvtz', properties = ['dipole'])
--------------------------------------------------------------------------

    Molecular point group: c1
  Charge       = -1
  Multiplicity = 1
  Basis Set: AUG-CC-PVTZ
    Blend: AUG-CC-PVTZ
  Basis Set: (AUG-CC-PVTZ AUX)
    Blend: AUG-CC-PVTZ-JKFIT

    Orbital Energies [Eh]
    ---------------------

    Doubly Occupied:

       1A    -20.289002     2A    -20.280461     3A    -15.379618
       4A    -11.156189     5A     -1.169139     6A     -1.055798
       7A     -0.976593     8A     -0.557373     9A     -0.491592
      10A     -0.433478    11A     -0.376500    12A     -0.370612
      13A     -0.242785    14A     -0.215906    15A     -0.199356
      16A     -0.190588

  @DF-RHF Final Energy:  -243.34953514262907

   => Energetics <=

    Nuclear Repulsion Energy =            113.2377523798189998
    One-Electron Energy =                -566.4045921902178407
    Two-Electron Energy =                 209.8173046677698039
    Total Energy =                       -243.3495351426290654
  Basis Set: (AUG-CC-PVTZ AUX)
    Blend: AUG-CC-PVTZ-RI
    Molecular point group: c1

    Geometry (in Angstrom), charge = -1, multiplicity = 1:

       Center              X                  Y                   Z               Mass
    ------------   -----------------  -----------------  -----------------  -----------------
         O           -0.653933030642     1.144376342694     0.019018082992    15.994914619570
         O           -0.653933030642    -1.137163657306     0.019018082992    15.994914619570
         N            1.329355969358     0.003606342694    -0.095226917008    14.003074004430
         C           -0.098466430642    -0.014427857306     0.006682082992    12.000000000000
         H            1.729333969358    -0.832002657306     0.319946082992     1.007825032230
         H            1.729334969358     0.839214342694     0.319946082992     1.007825032230

  Basis Set: AUG-CC-PVTZ
    Blend: AUG-CC-PVTZ
  Basis Set: (AUG-CC-PVTZ AUX)
    Blend: AUG-CC-PVTZ-JKFIT
	 Reference Energy          =    -243.3495351426290654 [Eh]
	 Singles Energy            =      -0.0000000000000000 [Eh]
	 Same-Spin Energy          =      -0.2386911588634013 [Eh]
	 Opposite-Spin Energy      =      -0.6929463951187671 [Eh]
	 Correlation Energy        =      -0.9316375539821684 [Eh]
	 Total Energy              =    -244.2811726966112360 [Eh]

	 ================> DF-SCS-MP2 Energies <==================
	-----------------------------------------------------------
	 SCS Same-Spin Scale       =       0.3333333333333333 [-]
	 SCS Opposite-Spin Scale   =       1.2000000000000000 [-]
	 SCS Same-Spin Energy      =      -0.0795637196211338 [Eh]
	 SCS Opposite-Spin Energy  =      -0.8315356741425205 [Eh]
	 SCS Correlation Energy    =      -0.9110993937636542 [Eh]
	 SCS Total Energy          =    -244.2606345363927289 [Eh]
	-----------------------------------------------------------

  Dipole Moment: [D]
     X:     3.6051      Y:    -0.2195      Z:     1.0538     Total:     3.7623

*** Psi4 exiting successfully. Buy a developer a beer!
