                               Psi4 1.4a3.dev225

  ==> Input File <==

--------------------------------------------------------------------------
#psi4
#
memory 32 gb

molecule  {
-1 1
  O       -0.7074350     1.1407700     0.0087330
  O       -0.7074350    -1.1407700     0.0087330
  N        1.2758540     0.0000000    -0.1055120
  C       -0.1805627     0.0000000    -0.0019930
  H        1.6758320    -0.8356090     0.3096610
  H        1.6758330     0.8356080     0.3096610
units angstrom
no_reorient  #important for SAPT in psi4, default
symmetry c1  #important for SAPT in psi4, default
}

set PROPERTIES_ORIGIN ["COM"]
properties('MP2/aug-cc-pvtz', properties = ['dipole'])
--------------------------------------------------------------------------

    Molecular point group: c1
  Charge       = -1
  Multiplicity = 1
  Basis Set: AUG-CC-PVTZ
    Blend: AUG-CC-PVTZ
  Basis Set: (AUG-CC-PVTZ AUX)
    Blend: AUG-CC-PVTZ-JKFIT

    Orbital Energies [Eh]
    ---------------------

    Doubly Occupied:

       1A    -20.287345     2A    -20.287313     3A    -15.373797
       4A    -11.156487     5A     -1.173839     6A     -1.067319
       7A     -0.966520     8A     -0.549149     9A     -0.484517
      10A     -0.435427    11A     -0.378460    12A     -0.377476
      13A     -0.242249    14A     -0.212057    15A     -0.205689
      16A     -0.195699

  @DF-RHF Final Energy:  -243.35158806260799

   => Energetics <=

    Nuclear Repulsion Energy =            113.2810320527988353
    One-Electron Energy =                -566.4785538667437095
    Two-Electron Energy =                 209.8459337513369007
    Total Energy =                       -243.3515880626079877
  Basis Set: (AUG-CC-PVTZ AUX)
    Blend: AUG-CC-PVTZ-RI
    Molecular point group: c1

    Geometry (in Angstrom), charge = -1, multiplicity = 1:

       Center              X                  Y                   Z               Mass
    ------------   -----------------  -----------------  -----------------  -----------------
         O           -0.648214985779     1.140770016795     0.018696128888    15.994914619570
         O           -0.648214985779    -1.140769983205     0.018696128888    15.994914619570
         N            1.335074014221     0.000000016795    -0.095548871112    14.003074004430
         C           -0.121342685779     0.000000016795     0.007970128888    12.000000000000
         H            1.735052014221    -0.835608983205     0.319624128888     1.007825032230
         H            1.735053014221     0.835608016795     0.319624128888     1.007825032230

  Basis Set: AUG-CC-PVTZ
    Blend: AUG-CC-PVTZ
  Basis Set: (AUG-CC-PVTZ AUX)
    Blend: AUG-CC-PVTZ-JKFIT
	 Reference Energy          =    -243.3515880626079877 [Eh]
	 Singles Energy            =      -0.0000000000000000 [Eh]
	 Same-Spin Energy          =      -0.2384255723970696 [Eh]
	 Opposite-Spin Energy      =      -0.6924733392057389 [Eh]
	 Correlation Energy        =      -0.9308989116028086 [Eh]
	 Total Energy              =    -244.2824869742107978 [Eh]

	 ================> DF-SCS-MP2 Energies <==================
	-----------------------------------------------------------
	 SCS Same-Spin Scale       =       0.3333333333333333 [-]
	 SCS Opposite-Spin Scale   =       1.2000000000000000 [-]
	 SCS Same-Spin Energy      =      -0.0794751907990232 [Eh]
	 SCS Opposite-Spin Energy  =      -0.8309680070468867 [Eh]
	 SCS Correlation Energy    =      -0.9104431978459099 [Eh]
	 SCS Total Energy          =    -244.2620312604539095 [Eh]
	-----------------------------------------------------------

  Dipole Moment: [D]
     X:     3.3018      Y:    -0.0000      Z:     1.0660     Total:     3.4696

*** Psi4 exiting successfully. Buy a developer a beer!
