                               Psi4 1.3.2 release

  ==> Input File <==

--------------------------------------------------------------------------
#psi4
#
memory 32 gb

molecule  {
-1 1
  O        0.7018950    -1.1499360     0.0000130
  O        0.7018860     1.1499410     0.0000130
  N       -1.2570750    -0.0000040    -0.0001850
  C        0.1767196     0.1002607    -0.0000300
  H       -1.7560250     0.8738390     0.0004010
  H       -1.7560220    -0.8738500     0.0004010
units angstrom
no_reorient  #important for SAPT in psi4, default
symmetry c1  #important for SAPT in psi4, default
}

set PROPERTIES_ORIGIN ["COM"]
properties('MP2/aug-cc-pvtz', properties = ['dipole'])
--------------------------------------------------------------------------

    Molecular point group: c1
  Charge       = -1
  Multiplicity = 1
  Basis Set: AUG-CC-PVTZ
    Blend: AUG-CC-PVTZ
  Basis Set: (AUG-CC-PVTZ AUX)
    Blend: AUG-CC-PVTZ-JKFIT

    Orbital Energies [Eh]
    ---------------------

    Doubly Occupied:

       1A    -20.306844     2A    -20.260129     3A    -15.369529
       4A    -11.155154     5A     -1.204528     6A     -1.036470
       7A     -0.957319     8A     -0.564628     9A     -0.500524
      10A     -0.450729    11A     -0.384610    12A     -0.374460
      13A     -0.223689    14A     -0.219356    15A     -0.186089
      16A     -0.177238

  @DF-RHF Final Energy:  -243.33223833788307

   => Energetics <=

    Nuclear Repulsion Energy =            113.3929174797804649
    One-Electron Energy =                -566.7077206349786138
    Two-Electron Energy =                 209.9825648173150796
    Total Energy =                       -243.3322383378830693
  Basis Set: (AUG-CC-PVTZ AUX)
    Blend: AUG-CC-PVTZ-RI
    Molecular point group: c1

    Geometry (in Angstrom), charge = -1, multiplicity = 1:

       Center              X                  Y                   Z               Mass
    ------------   -----------------  -----------------  -----------------  -----------------
         O            0.644710663513    -1.169985496445     0.000041769653    15.994914619570
         O            0.644701663513     1.129891503555     0.000041769653    15.994914619570
         N           -1.314259336487    -0.020053496445    -0.000156230347    14.003074004430
         C            0.119535263513     0.080211203555    -0.000001230347    12.000000000000
         H           -1.813209336487     0.853789503555     0.000429769653     1.007825032230
         H           -1.813206336487    -0.893899496445     0.000429769653     1.007825032230

  Basis Set: AUG-CC-PVTZ
    Blend: AUG-CC-PVTZ
  Basis Set: (AUG-CC-PVTZ AUX)
    Blend: AUG-CC-PVTZ-JKFIT
	 Reference Energy          =    -243.3322383378830693 [Eh]
	 Singles Energy            =      -0.0000000000000000 [Eh]
	 Same-Spin Energy          =      -0.2387020123124012 [Eh]
	 Opposite-Spin Energy      =      -0.6921139131436128 [Eh]
	 Correlation Energy        =      -0.9308159254560140 [Eh]
	 Total Energy              =    -244.2630542633390860 [Eh]

	 ================> DF-SCS-MP2 Energies <==================
	-----------------------------------------------------------
	 SCS Same-Spin Scale       =       0.3333333333333333 [-]
	 SCS Opposite-Spin Scale   =       1.2000000000000000 [-]
	 SCS Same-Spin Energy      =      -0.0795673374374671 [Eh]
	 SCS Opposite-Spin Energy  =      -0.8305366957723354 [Eh]
	 SCS Correlation Energy    =      -0.9101040332098024 [Eh]
	 SCS Total Energy          =    -244.2423423710928603 [Eh]
	-----------------------------------------------------------

  Dipole Moment: [D]
     X:    -3.8386      Y:     1.2402      Z:     0.0016     Total:     4.0339

*** Psi4 exiting successfully. Buy a developer a beer!
