                               Psi4 1.3.2 release

  ==> Input File <==

--------------------------------------------------------------------------
#psi4
#
memory 32 gb

molecule  {
-1 1
  O        0.7018950    -1.1499360     0.0000130
  O        0.7417006     1.1310346     0.0000214
  N       -1.2570750    -0.0000040    -0.0001850
  C        0.1802210     0.0000000     0.0000470
  H       -1.7560250     0.8738390     0.0004010
  H       -1.7560220    -0.8738500     0.0004010
units angstrom
no_reorient  #important for SAPT in psi4, default
symmetry c1  #important for SAPT in psi4, default
}

set PROPERTIES_ORIGIN ["COM"]
properties('MP2/aug-cc-pvtz', properties = ['dipole'])
--------------------------------------------------------------------------

    Molecular point group: c1
  Charge       = -1
  Multiplicity = 1
  Basis Set: AUG-CC-PVTZ
    Blend: AUG-CC-PVTZ
  Basis Set: (AUG-CC-PVTZ AUX)
    Blend: AUG-CC-PVTZ-JKFIT

    Orbital Energies [Eh]
    ---------------------

    Doubly Occupied:

       1A    -20.282655     2A    -20.280372     3A    -15.372201
       4A    -11.156693     5A     -1.166413     6A     -1.058078
       7A     -0.965179     8A     -0.563140     9A     -0.504261
      10A     -0.432419    11A     -0.374342    12A     -0.372260
      13A     -0.223072    14A     -0.210570    15A     -0.199385
      16A     -0.190782

  @DF-RHF Final Energy:  -243.34834809620227

   => Energetics <=

    Nuclear Repulsion Energy =            113.1924725057324821
    One-Electron Energy =                -566.3779981378555703
    Two-Electron Energy =                 209.8371775359208016
    Total Energy =                       -243.3483480962022725
  Basis Set: (AUG-CC-PVTZ AUX)
    Blend: AUG-CC-PVTZ-RI
    Molecular point group: c1

    Geometry (in Angstrom), charge = -1, multiplicity = 1:

       Center              X                  Y                   Z               Mass
    ------------   -----------------  -----------------  -----------------  -----------------
         O            0.633398144043    -1.144896828734     0.000024132879    15.994914619570
         O            0.673203744043     1.136073771266     0.000032532879    15.994914619570
         N           -1.325571855957     0.005035171266    -0.000173867121    14.003074004430
         C            0.111724144043     0.005039171266     0.000058132879    12.000000000000
         H           -1.824521855957     0.878878171266     0.000412132879     1.007825032230
         H           -1.824518855957    -0.868810828734     0.000412132879     1.007825032230

  Basis Set: AUG-CC-PVTZ
    Blend: AUG-CC-PVTZ
  Basis Set: (AUG-CC-PVTZ AUX)
    Blend: AUG-CC-PVTZ-JKFIT
	 Reference Energy          =    -243.3483480962022725 [Eh]
	 Singles Energy            =      -0.0000000000000000 [Eh]
	 Same-Spin Energy          =      -0.2386898212332896 [Eh]
	 Opposite-Spin Energy      =      -0.6918462299735080 [Eh]
	 Correlation Energy        =      -0.9305360512067976 [Eh]
	 Total Energy              =    -244.2788841474090589 [Eh]

	 ================> DF-SCS-MP2 Energies <==================
	-----------------------------------------------------------
	 SCS Same-Spin Scale       =       0.3333333333333333 [-]
	 SCS Opposite-Spin Scale   =       1.2000000000000000 [-]
	 SCS Same-Spin Energy      =      -0.0795632737444299 [Eh]
	 SCS Opposite-Spin Energy  =      -0.8302154759682095 [Eh]
	 SCS Correlation Energy    =      -0.9097787497126394 [Eh]
	 SCS Total Energy          =    -244.2581268459149157 [Eh]
	-----------------------------------------------------------

  Dipole Moment: [D]
     X:    -3.9054      Y:     0.0369      Z:     0.0017     Total:     3.9056

*** Psi4 exiting successfully. Buy a developer a beer!
