                               Psi4 1.3.2 release

  ==> Input File <==

--------------------------------------------------------------------------
#psi4
#
memory 32 gb

molecule  {
-1 1
  O        0.7018950    -1.1499360     0.0000130
  O        0.7808311     1.1107503     0.0000298
  N       -1.2570750    -0.0000040    -0.0001850
  C        0.1802210     0.0000000     0.0000470
  H       -1.7560250     0.8738390     0.0004010
  H       -1.7560220    -0.8738500     0.0004010
units angstrom
no_reorient  #important for SAPT in psi4, default
symmetry c1  #important for SAPT in psi4, default
}

set PROPERTIES_ORIGIN ["COM"]
properties('MP2/aug-cc-pvtz', properties = ['dipole'])
--------------------------------------------------------------------------

    Molecular point group: c1
  Charge       = -1
  Multiplicity = 1
  Basis Set: AUG-CC-PVTZ
    Blend: AUG-CC-PVTZ
  Basis Set: (AUG-CC-PVTZ AUX)
    Blend: AUG-CC-PVTZ-JKFIT

    Orbital Energies [Eh]
    ---------------------

    Doubly Occupied:

       1A    -20.282047     2A    -20.277525     3A    -15.375008
       4A    -11.156022     5A     -1.166062     6A     -1.054580
       7A     -0.967891     8A     -0.564301     9A     -0.506226
      10A     -0.432174    11A     -0.372372    12A     -0.371780
      13A     -0.224254    14A     -0.212655    15A     -0.195945
      16A     -0.188342

  @DF-RHF Final Energy:  -243.34756178681127

   => Energetics <=

    Nuclear Repulsion Energy =            113.1515269576571399
    One-Electron Energy =                -566.3038167505128513
    Two-Electron Energy =                 209.8047280060444280
    Total Energy =                       -243.3475617868112693
  Basis Set: (AUG-CC-PVTZ AUX)
    Blend: AUG-CC-PVTZ-RI
    Molecular point group: c1

    Geometry (in Angstrom), charge = -1, multiplicity = 1:

       Center              X                  Y                   Z               Mass
    ------------   -----------------  -----------------  -----------------  -----------------
         O            0.622968147451    -1.139490172037     0.000021893910    15.994914619570
         O            0.701904247451     1.121196127963     0.000038693910    15.994914619570
         N           -1.336001852549     0.010441827963    -0.000176106090    14.003074004430
         C            0.101294147451     0.010445827963     0.000055893910    12.000000000000
         H           -1.834951852549     0.884284827963     0.000409893910     1.007825032230
         H           -1.834948852549    -0.863404172037     0.000409893910     1.007825032230

  Basis Set: AUG-CC-PVTZ
    Blend: AUG-CC-PVTZ
  Basis Set: (AUG-CC-PVTZ AUX)
    Blend: AUG-CC-PVTZ-JKFIT
	 Reference Energy          =    -243.3475617868112693 [Eh]
	 Singles Energy            =      -0.0000000000000000 [Eh]
	 Same-Spin Energy          =      -0.2386573413124068 [Eh]
	 Opposite-Spin Energy      =      -0.6918031558805442 [Eh]
	 Correlation Energy        =      -0.9304604971929510 [Eh]
	 Total Energy              =    -244.2780222840042086 [Eh]

	 ================> DF-SCS-MP2 Energies <==================
	-----------------------------------------------------------
	 SCS Same-Spin Scale       =       0.3333333333333333 [-]
	 SCS Opposite-Spin Scale   =       1.2000000000000000 [-]
	 SCS Same-Spin Energy      =      -0.0795524471041356 [Eh]
	 SCS Opposite-Spin Energy  =      -0.8301637870566531 [Eh]
	 SCS Correlation Energy    =      -0.9097162341607886 [Eh]
	 SCS Total Energy          =    -244.2572780209720520 [Eh]
	-----------------------------------------------------------

  Dipole Moment: [D]
     X:    -3.9995      Y:     0.0767      Z:     0.0017     Total:     4.0002

*** Psi4 exiting successfully. Buy a developer a beer!
