                               Psi4 1.3.2 release

  ==> Input File <==

--------------------------------------------------------------------------
#psi4
#
memory 32 gb

molecule  {
-1 1
  O        0.7018950    -1.1499360     0.0000130
  O        0.7018860     1.1499410     0.0000130
  N       -1.2570750    -0.0000040    -0.0001850
  C        0.1800020     0.0250843     0.0000278
  H       -1.7560250     0.8738390     0.0004010
  H       -1.7560220    -0.8738500     0.0004010
units angstrom
no_reorient  #important for SAPT in psi4, default
symmetry c1  #important for SAPT in psi4, default
}

set PROPERTIES_ORIGIN ["COM"]
properties('MP2/aug-cc-pvtz', properties = ['dipole'])
--------------------------------------------------------------------------

    Molecular point group: c1
  Charge       = -1
  Multiplicity = 1
  Basis Set: AUG-CC-PVTZ
    Blend: AUG-CC-PVTZ
  Basis Set: (AUG-CC-PVTZ AUX)
    Blend: AUG-CC-PVTZ-JKFIT

    Orbital Energies [Eh]
    ---------------------

    Doubly Occupied:

       1A    -20.289096     2A    -20.277301     3A    -15.369335
       4A    -11.157233     5A     -1.169842     6A     -1.059307
       7A     -0.962044     8A     -0.562163     9A     -0.502140
      10A     -0.434006    11A     -0.375837    12A     -0.373537
      13A     -0.222450    14A     -0.209794    15A     -0.201041
      16A     -0.191427

  @DF-RHF Final Energy:  -243.34735825727947

   => Energetics <=

    Nuclear Repulsion Energy =            113.2575770464282812
    One-Electron Energy =                -566.4967628773043771
    Two-Electron Energy =                 209.8918275735966006
    Total Energy =                       -243.3473582572794669
  Basis Set: (AUG-CC-PVTZ AUX)
    Blend: AUG-CC-PVTZ-RI
    Molecular point group: c1

    Geometry (in Angstrom), charge = -1, multiplicity = 1:

       Center              X                  Y                   Z               Mass
    ------------   -----------------  -----------------  -----------------  -----------------
         O            0.644054277084    -1.154952359496     0.000030211300    15.994914619570
         O            0.644045277084     1.144924640504     0.000030211300    15.994914619570
         N           -1.314915722916    -0.005020359496    -0.000167788700    14.003074004430
         C            0.122161277084     0.020067940504     0.000045011300    12.000000000000
         H           -1.813865722916     0.868822640504     0.000418211300     1.007825032230
         H           -1.813862722916    -0.878866359496     0.000418211300     1.007825032230

  Basis Set: AUG-CC-PVTZ
    Blend: AUG-CC-PVTZ
  Basis Set: (AUG-CC-PVTZ AUX)
    Blend: AUG-CC-PVTZ-JKFIT
	 Reference Energy          =    -243.3473582572794669 [Eh]
	 Singles Energy            =      -0.0000000000000000 [Eh]
	 Same-Spin Energy          =      -0.2387485121511414 [Eh]
	 Opposite-Spin Energy      =      -0.6919563957801406 [Eh]
	 Correlation Energy        =      -0.9307049079312819 [Eh]
	 Total Energy              =    -244.2780631652107388 [Eh]

	 ================> DF-SCS-MP2 Energies <==================
	-----------------------------------------------------------
	 SCS Same-Spin Scale       =       0.3333333333333333 [-]
	 SCS Opposite-Spin Scale   =       1.2000000000000000 [-]
	 SCS Same-Spin Energy      =      -0.0795828373837138 [Eh]
	 SCS Opposite-Spin Energy  =      -0.8303476749361687 [Eh]
	 SCS Correlation Energy    =      -0.9099305123198824 [Eh]
	 SCS Total Energy          =    -244.2572887695993415 [Eh]
	-----------------------------------------------------------

  Dipole Moment: [D]
     X:    -3.8104      Y:     0.3097      Z:     0.0017     Total:     3.8230

*** Psi4 exiting successfully. Buy a developer a beer!
