                               Psi4 1.3.2 release

  ==> Input File <==

--------------------------------------------------------------------------
#psi4
#
memory 32 gb

molecule  {
-1 1
  O        0.7018950    -1.1499360     0.0000130
  O        0.7018860     1.1499410     0.0000130
  N       -1.2570750    -0.0000040    -0.0001850
  C        0.1723469     0.1502383    -0.0000689
  H       -1.7560250     0.8738390     0.0004010
  H       -1.7560220    -0.8738500     0.0004010
units angstrom
no_reorient  #important for SAPT in psi4, default
symmetry c1  #important for SAPT in psi4, default
}

set PROPERTIES_ORIGIN ["COM"]
properties('MP2/aug-cc-pvtz', properties = ['dipole'])
--------------------------------------------------------------------------

    Molecular point group: c1
  Charge       = -1
  Multiplicity = 1
  Basis Set: AUG-CC-PVTZ
    Blend: AUG-CC-PVTZ
  Basis Set: (AUG-CC-PVTZ AUX)
    Blend: AUG-CC-PVTZ-JKFIT

    Orbital Energies [Eh]
    ---------------------

    Doubly Occupied:

       1A    -20.318511     2A    -20.249225     3A    -15.369890
       4A    -11.152791     5A     -1.237728     6A     -1.020066
       7A     -0.949761     8A     -0.567745     9A     -0.498842
      10A     -0.466893    11A     -0.398596    12A     -0.379045
      13A     -0.225070    14A     -0.217455    15A     -0.173535
      16A     -0.165945

  @DF-RHF Final Energy:  -243.31146501397069

   => Energetics <=

    Nuclear Repulsion Energy =            113.5697248076095320
    One-Electron Energy =                -566.9801848108068043
    Two-Electron Energy =                 210.0989949892265827
    Total Energy =                       -243.3114650139706896
  Basis Set: (AUG-CC-PVTZ AUX)
    Blend: AUG-CC-PVTZ-RI
    Molecular point group: c1

    Geometry (in Angstrom), charge = -1, multiplicity = 1:

       Center              X                  Y                   Z               Mass
    ------------   -----------------  -----------------  -----------------  -----------------
         O            0.645585078860    -1.179979591735     0.000049548544    15.994914619570
         O            0.645576078860     1.119897408265     0.000049548544    15.994914619570
         N           -1.313384921140    -0.030047591735    -0.000148451456    14.003074004430
         C            0.116036978860     0.120194708265    -0.000032351456    12.000000000000
         H           -1.812334921140     0.843795408265     0.000437548544     1.007825032230
         H           -1.812331921140    -0.903893591735     0.000437548544     1.007825032230

  Basis Set: AUG-CC-PVTZ
    Blend: AUG-CC-PVTZ
  Basis Set: (AUG-CC-PVTZ AUX)
    Blend: AUG-CC-PVTZ-JKFIT
	 Reference Energy          =    -243.3114650139706896 [Eh]
	 Singles Energy            =      -0.0000000000000000 [Eh]
	 Same-Spin Energy          =      -0.2386997405038226 [Eh]
	 Opposite-Spin Energy      =      -0.6924110276286166 [Eh]
	 Correlation Energy        =      -0.9311107681324392 [Eh]
	 Total Energy              =    -244.2425757821031311 [Eh]

	 ================> DF-SCS-MP2 Energies <==================
	-----------------------------------------------------------
	 SCS Same-Spin Scale       =       0.3333333333333333 [-]
	 SCS Opposite-Spin Scale   =       1.2000000000000000 [-]
	 SCS Same-Spin Energy      =      -0.0795665801679409 [Eh]
	 SCS Opposite-Spin Energy  =      -0.8308932331543399 [Eh]
	 SCS Correlation Energy    =      -0.9104598133222808 [Eh]
	 SCS Total Energy          =    -244.2219248272929804 [Eh]
	-----------------------------------------------------------

  Dipole Moment: [D]
     X:    -3.8753      Y:     1.8614      Z:     0.0016     Total:     4.2991

*** Psi4 exiting successfully. Buy a developer a beer!
