                               Psi4 1.4a3.dev225

  ==> Input File <==

--------------------------------------------------------------------------
#psi4
#
memory 32 gb

molecule  {
-1 1
  O       -0.7074350     1.1407700     0.0087330
  O       -0.7074350    -1.1407700     0.0087330
  N        1.2758540     0.0000000    -0.1055120
  C       -0.1822245     0.0450856    -0.0029310
  H        1.6758320    -0.8356090     0.3096610
  H        1.6758330     0.8356080     0.3096610
units angstrom
no_reorient  #important for SAPT in psi4, default
symmetry c1  #important for SAPT in psi4, default
}

set PROPERTIES_ORIGIN ["COM"]
properties('MP2/aug-cc-pvtz', properties = ['dipole'])
--------------------------------------------------------------------------

    Molecular point group: c1
  Charge       = -1
  Multiplicity = 1
  Basis Set: AUG-CC-PVTZ
    Blend: AUG-CC-PVTZ
  Basis Set: (AUG-CC-PVTZ AUX)
    Blend: AUG-CC-PVTZ-JKFIT

    Orbital Energies [Eh]
    ---------------------

    Doubly Occupied:

       1A    -20.298424     2A    -20.276786     3A    -15.373338
       4A    -11.156081     5A     -1.183769     6A     -1.061161
       7A     -0.964830     8A     -0.549220     9A     -0.483589
      10A     -0.439812    11A     -0.380183    12A     -0.377952
      13A     -0.244095    14A     -0.214936    15A     -0.200648
      16A     -0.192555

  @DF-RHF Final Energy:  -243.34829219284649

   => Energetics <=

    Nuclear Repulsion Energy =            113.3149962201294301
    One-Electron Energy =                -566.5318188620550472
    Two-Electron Energy =                 209.8685304490791168
    Total Energy =                       -243.3482921928464862
  Basis Set: (AUG-CC-PVTZ AUX)
    Blend: AUG-CC-PVTZ-RI
    Molecular point group: c1

    Geometry (in Angstrom), charge = -1, multiplicity = 1:

       Center              X                  Y                   Z               Mass
    ------------   -----------------  -----------------  -----------------  -----------------
         O           -0.647882673152     1.131754182048     0.018883702149    15.994914619570
         O           -0.647882673152    -1.149785817952     0.018883702149    15.994914619570
         N            1.335406326848    -0.009015817952    -0.095361297851    14.003074004430
         C           -0.122672173152     0.036069782048     0.007219702149    12.000000000000
         H            1.735384326848    -0.844624817952     0.319811702149     1.007825032230
         H            1.735385326848     0.826592182048     0.319811702149     1.007825032230

  Basis Set: AUG-CC-PVTZ
    Blend: AUG-CC-PVTZ
  Basis Set: (AUG-CC-PVTZ AUX)
    Blend: AUG-CC-PVTZ-JKFIT
	 Reference Energy          =    -243.3482921928464862 [Eh]
	 Singles Energy            =      -0.0000000000000000 [Eh]
	 Same-Spin Energy          =      -0.2383920907678787 [Eh]
	 Opposite-Spin Energy      =      -0.6924529426423831 [Eh]
	 Correlation Energy        =      -0.9308450334102618 [Eh]
	 Total Energy              =    -244.2791372262567506 [Eh]

	 ================> DF-SCS-MP2 Energies <==================
	-----------------------------------------------------------
	 SCS Same-Spin Scale       =       0.3333333333333333 [-]
	 SCS Opposite-Spin Scale   =       1.2000000000000000 [-]
	 SCS Same-Spin Energy      =      -0.0794640302559596 [Eh]
	 SCS Opposite-Spin Energy  =      -0.8309435311708597 [Eh]
	 SCS Correlation Energy    =      -0.9104075614268193 [Eh]
	 SCS Total Energy          =    -244.2586997542732945 [Eh]
	-----------------------------------------------------------

  Dipole Moment: [D]
     X:     3.2826      Y:     0.5552      Z:     1.0647     Total:     3.4953

*** Psi4 exiting successfully. Buy a developer a beer!
