                               Psi4 1.3.2 release

  ==> Input File <==

--------------------------------------------------------------------------
#psi4
#
memory 32 gb

molecule  {
-1 1
  O        0.7018950    -1.1499360     0.0000130
  O        0.7018860     1.1499410     0.0000130
  N       -1.2570750    -0.0000040    -0.0001850
  C        0.1802210     0.0000000     0.0000470
  H       -1.7560250     0.8738390     0.0004010
  H       -1.7560220    -0.8738500     0.0004010
units angstrom
no_reorient  #important for SAPT in psi4, default
symmetry c1  #important for SAPT in psi4, default
}

set PROPERTIES_ORIGIN ["COM"]
properties('MP2/aug-cc-pvtz', properties = ['dipole'])
--------------------------------------------------------------------------

    Molecular point group: c1
  Charge       = -1
  Multiplicity = 1
  Basis Set: AUG-CC-PVTZ
    Blend: AUG-CC-PVTZ
  Basis Set: (AUG-CC-PVTZ AUX)
    Blend: AUG-CC-PVTZ-JKFIT

    Orbital Energies [Eh]
    ---------------------

    Doubly Occupied:

       1A    -20.283195     2A    -20.283164     3A    -15.369325
       4A    -11.157382     5A     -1.166867     6A     -1.061518
       7A     -0.962327     8A     -0.561994     9A     -0.502258
      10A     -0.432625    11A     -0.376228    12A     -0.372779
      13A     -0.221798    14A     -0.208453    15A     -0.202570
      16A     -0.193092

  @DF-RHF Final Energy:  -243.34835133823597

   => Energetics <=

    Nuclear Repulsion Energy =            113.2484726229071725
    One-Electron Energy =                -566.4825007587447772
    Two-Electron Energy =                 209.8856767976016329
    Total Energy =                       -243.3483513382359718
  Basis Set: (AUG-CC-PVTZ AUX)
    Blend: AUG-CC-PVTZ-RI
    Molecular point group: c1

    Geometry (in Angstrom), charge = -1, multiplicity = 1:

       Center              X                  Y                   Z               Mass
    ------------   -----------------  -----------------  -----------------  -----------------
         O            0.644010483327    -1.149936214573     0.000026371848    15.994914619570
         O            0.644001483327     1.149940785427     0.000026371848    15.994914619570
         N           -1.314959516673    -0.000004214573    -0.000171628152    14.003074004430
         C            0.122336483327    -0.000000214573     0.000060371848    12.000000000000
         H           -1.813909516673     0.873838785427     0.000414371848     1.007825032230
         H           -1.813906516673    -0.873850214573     0.000414371848     1.007825032230

  Basis Set: AUG-CC-PVTZ
    Blend: AUG-CC-PVTZ
  Basis Set: (AUG-CC-PVTZ AUX)
    Blend: AUG-CC-PVTZ-JKFIT
	 Reference Energy          =    -243.3483513382359718 [Eh]
	 Singles Energy            =      -0.0000000000000000 [Eh]
	 Same-Spin Energy          =      -0.2387530856429351 [Eh]
	 Opposite-Spin Energy      =      -0.6919481036321340 [Eh]
	 Correlation Energy        =      -0.9307011892750691 [Eh]
	 Total Energy              =    -244.2790525275110269 [Eh]

	 ================> DF-SCS-MP2 Energies <==================
	-----------------------------------------------------------
	 SCS Same-Spin Scale       =       0.3333333333333333 [-]
	 SCS Opposite-Spin Scale   =       1.2000000000000000 [-]
	 SCS Same-Spin Energy      =      -0.0795843618809784 [Eh]
	 SCS Opposite-Spin Energy  =      -0.8303377243585608 [Eh]
	 SCS Correlation Energy    =      -0.9099220862395392 [Eh]
	 SCS Total Energy          =    -244.2582734244755045 [Eh]
	-----------------------------------------------------------

  Dipole Moment: [D]
     X:    -3.8085      Y:    -0.0000      Z:     0.0017     Total:     3.8085

*** Psi4 exiting successfully. Buy a developer a beer!
