                               Psi4 1.3.2 release

  ==> Input File <==

--------------------------------------------------------------------------
#psi4
#
memory 32 gb

molecule  {
-1 1
  O        0.7018950    -1.1499360     0.0000130
  O        0.7018860     1.1499410     0.0000130
  N       -1.2570750    -0.0000040    -0.0001850
  C       -0.0197790    -0.0000006     0.0000147
  H       -1.7560250     0.8738390     0.0004010
  H       -1.7560220    -0.8738500     0.0004010
units angstrom
no_reorient  #important for SAPT in psi4, default
symmetry c1  #important for SAPT in psi4, default
}

set PROPERTIES_ORIGIN ["COM"]
properties('MP2/aug-cc-pvtz', properties = ['dipole'])
--------------------------------------------------------------------------

    Molecular point group: c1
  Charge       = -1
  Multiplicity = 1
  Basis Set: AUG-CC-PVTZ
    Blend: AUG-CC-PVTZ
  Basis Set: (AUG-CC-PVTZ AUX)
    Blend: AUG-CC-PVTZ-JKFIT

    Orbital Energies [Eh]
    ---------------------

    Doubly Occupied:

       1A    -20.265123     2A    -20.265094     3A    -15.410244
       4A    -11.151051     5A     -1.154066     6A     -1.017662
       7A     -0.990073     8A     -0.639578     9A     -0.560469
      10A     -0.406221    11A     -0.391744    12A     -0.315854
      13A     -0.215811    14A     -0.211865    15A     -0.164632
      16A     -0.161471

  @DF-RHF Final Energy:  -243.29465522762356

   => Energetics <=

    Nuclear Repulsion Energy =            113.2135547617629499
    One-Electron Energy =                -566.3745021782389131
    Two-Electron Energy =                 209.8662921888523840
    Total Energy =                       -243.2946552276235650
  Basis Set: (AUG-CC-PVTZ AUX)
    Blend: AUG-CC-PVTZ-RI
    Molecular point group: c1

    Geometry (in Angstrom), charge = -1, multiplicity = 1:

       Center              X                  Y                   Z               Mass
    ------------   -----------------  -----------------  -----------------  -----------------
         O            0.684004781934    -1.149936094590     0.000032830927    15.994914619570
         O            0.683995781934     1.149940905410     0.000032830927    15.994914619570
         N           -1.274965218066    -0.000004094590    -0.000165169073    14.003074004430
         C           -0.037669218066    -0.000000694590     0.000034530927    12.000000000000
         H           -1.773915218066     0.873838905410     0.000420830927     1.007825032230
         H           -1.773912218066    -0.873850094590     0.000420830927     1.007825032230

  Basis Set: AUG-CC-PVTZ
    Blend: AUG-CC-PVTZ
  Basis Set: (AUG-CC-PVTZ AUX)
    Blend: AUG-CC-PVTZ-JKFIT
	 Reference Energy          =    -243.2946552276235650 [Eh]
	 Singles Energy            =      -0.0000000000000000 [Eh]
	 Same-Spin Energy          =      -0.2412320842841013 [Eh]
	 Opposite-Spin Energy      =      -0.6964490496115618 [Eh]
	 Correlation Energy        =      -0.9376811338956632 [Eh]
	 Total Energy              =    -244.2323363615192306 [Eh]

	 ================> DF-SCS-MP2 Energies <==================
	-----------------------------------------------------------
	 SCS Same-Spin Scale       =       0.3333333333333333 [-]
	 SCS Opposite-Spin Scale   =       1.2000000000000000 [-]
	 SCS Same-Spin Energy      =      -0.0804106947613671 [Eh]
	 SCS Opposite-Spin Energy  =      -0.8357388595338742 [Eh]
	 SCS Correlation Energy    =      -0.9161495542952413 [Eh]
	 SCS Total Energy          =    -244.2108047819187959 [Eh]
	-----------------------------------------------------------

  Dipole Moment: [D]
     X:    -5.9281      Y:    -0.0000      Z:     0.0014     Total:     5.9281

*** Psi4 exiting successfully. Buy a developer a beer!
