                               Psi4 1.3.2 release

  ==> Input File <==

--------------------------------------------------------------------------
#psi4
#
memory 32 gb

molecule  {
-1 1
  O        0.7018950    -1.1499360     0.0000130
  O        0.8192298     1.0891127     0.0000382
  N       -1.2570750    -0.0000040    -0.0001850
  C        0.1802210     0.0000000     0.0000470
  H       -1.7560250     0.8738390     0.0004010
  H       -1.7560220    -0.8738500     0.0004010
units angstrom
no_reorient  #important for SAPT in psi4, default
symmetry c1  #important for SAPT in psi4, default
}

set PROPERTIES_ORIGIN ["COM"]
properties('MP2/aug-cc-pvtz', properties = ['dipole'])
--------------------------------------------------------------------------

    Molecular point group: c1
  Charge       = -1
  Multiplicity = 1
  Basis Set: AUG-CC-PVTZ
    Blend: AUG-CC-PVTZ
  Basis Set: (AUG-CC-PVTZ AUX)
    Blend: AUG-CC-PVTZ-JKFIT

    Orbital Energies [Eh]
    ---------------------

    Doubly Occupied:

       1A    -20.281357     2A    -20.274635     3A    -15.377745
       4A    -11.155368     5A     -1.165816     6A     -1.051024
       7A     -0.970459     8A     -0.565470     9A     -0.508147
      10A     -0.431892    11A     -0.371337    12A     -0.370312
      13A     -0.225340    14A     -0.214678    15A     -0.192265
      16A     -0.185802

  @DF-RHF Final Energy:  -243.34600043921506

   => Energetics <=

    Nuclear Repulsion Energy =            113.1255263907276429
    One-Electron Energy =                -566.2597619947185876
    Two-Electron Energy =                 209.7882351647758696
    Total Energy =                       -243.3460004392150609
  Basis Set: (AUG-CC-PVTZ AUX)
    Blend: AUG-CC-PVTZ-RI
    Molecular point group: c1

    Geometry (in Angstrom), charge = -1, multiplicity = 1:

       Center              X                  Y                   Z               Mass
    ------------   -----------------  -----------------  -----------------  -----------------
         O            0.612733207694    -1.133722801462     0.000019654941    15.994914619570
         O            0.730068007694     1.105325898538     0.000044854941    15.994914619570
         N           -1.346236792306     0.016209198538    -0.000178345059    14.003074004430
         C            0.091059207694     0.016213198538     0.000053654941    12.000000000000
         H           -1.845186792306     0.890052198538     0.000407654941     1.007825032230
         H           -1.845183792306    -0.857636801462     0.000407654941     1.007825032230

  Basis Set: AUG-CC-PVTZ
    Blend: AUG-CC-PVTZ
  Basis Set: (AUG-CC-PVTZ AUX)
    Blend: AUG-CC-PVTZ-JKFIT
	 Reference Energy          =    -243.3460004392150609 [Eh]
	 Singles Energy            =      -0.0000000000000000 [Eh]
	 Same-Spin Energy          =      -0.2386554263641896 [Eh]
	 Opposite-Spin Energy      =      -0.6918187154401375 [Eh]
	 Correlation Energy        =      -0.9304741418043271 [Eh]
	 Total Energy              =    -244.2764745810193858 [Eh]

	 ================> DF-SCS-MP2 Energies <==================
	-----------------------------------------------------------
	 SCS Same-Spin Scale       =       0.3333333333333333 [-]
	 SCS Opposite-Spin Scale   =       1.2000000000000000 [-]
	 SCS Same-Spin Energy      =      -0.0795518087880632 [Eh]
	 SCS Opposite-Spin Energy  =      -0.8301824585281650 [Eh]
	 SCS Correlation Energy    =      -0.9097342673162282 [Eh]
	 SCS Total Energy          =    -244.2557347065312854 [Eh]
	-----------------------------------------------------------

  Dipole Moment: [D]
     X:    -4.0907      Y:     0.1191      Z:     0.0017     Total:     4.0925

*** Psi4 exiting successfully. Buy a developer a beer!
