                               Psi4 1.3.2 release

  ==> Input File <==

--------------------------------------------------------------------------
#psi4
#
memory 32 gb

molecule  {
-1 1
  O        0.7018950    -1.1499360     0.0000130
  O        0.7018860     1.1499410     0.0000130
  N       -1.2570750    -0.0000040    -0.0001850
  C        0.0975949     0.1821344     0.0000524
  H       -1.7560250     0.8738390     0.0004010
  H       -1.7560220    -0.8738500     0.0004010
units angstrom
no_reorient  #important for SAPT in psi4, default
symmetry c1  #important for SAPT in psi4, default
}

set PROPERTIES_ORIGIN ["COM"]
properties('MP2/aug-cc-pvtz', properties = ['dipole'])
--------------------------------------------------------------------------

    Molecular point group: c1
  Charge       = -1
  Multiplicity = 1
  Basis Set: AUG-CC-PVTZ
    Blend: AUG-CC-PVTZ
  Basis Set: (AUG-CC-PVTZ AUX)
    Blend: AUG-CC-PVTZ-JKFIT

    Orbital Energies [Eh]
    ---------------------

    Doubly Occupied:

       1A    -20.317474     2A    -20.237240     3A    -15.386043
       4A    -11.151029     5A     -1.229926     6A     -1.026982
       7A     -0.942646     8A     -0.593019     9A     -0.516842
      10A     -0.467024    11A     -0.399675    12A     -0.367575
      13A     -0.237025    14A     -0.202882    15A     -0.157728
      16A     -0.151601

  @DF-RHF Final Energy:  -243.29627158895039

   => Energetics <=

    Nuclear Repulsion Energy =            113.5454680216059131
    One-Electron Energy =                -566.9140583666624025
    Two-Electron Energy =                 210.0723187561060854
    Total Energy =                       -243.2962715889503897
  Basis Set: (AUG-CC-PVTZ AUX)
    Blend: AUG-CC-PVTZ-RI
    Molecular point group: c1

    Geometry (in Angstrom), charge = -1, multiplicity = 1:

       Center              X                  Y                   Z               Mass
    ------------   -----------------  -----------------  -----------------  -----------------
         O            0.660533347908    -1.186357902474     0.000025292002    15.994914619570
         O            0.660524347908     1.113519097526     0.000025292002    15.994914619570
         N           -1.298436652092    -0.036425902474    -0.000172707998    14.003074004430
         C            0.056233247908     0.145712497526     0.000064692002    12.000000000000
         H           -1.797386652092     0.837417097526     0.000413292002     1.007825032230
         H           -1.797383652092    -0.910271902474     0.000413292002     1.007825032230

  Basis Set: AUG-CC-PVTZ
    Blend: AUG-CC-PVTZ
  Basis Set: (AUG-CC-PVTZ AUX)
    Blend: AUG-CC-PVTZ-JKFIT
	 Reference Energy          =    -243.2962715889503897 [Eh]
	 Singles Energy            =      -0.0000000000000000 [Eh]
	 Same-Spin Energy          =      -0.2396719695376948 [Eh]
	 Opposite-Spin Energy      =      -0.6944822656079015 [Eh]
	 Correlation Energy        =      -0.9341542351455963 [Eh]
	 Total Energy              =    -244.2304258240959882 [Eh]

	 ================> DF-SCS-MP2 Energies <==================
	-----------------------------------------------------------
	 SCS Same-Spin Scale       =       0.3333333333333333 [-]
	 SCS Opposite-Spin Scale   =       1.2000000000000000 [-]
	 SCS Same-Spin Energy      =      -0.0798906565125649 [Eh]
	 SCS Opposite-Spin Energy  =      -0.8333787187294818 [Eh]
	 SCS Correlation Energy    =      -0.9132693752420467 [Eh]
	 SCS Total Energy          =    -244.2095409641924277 [Eh]
	-----------------------------------------------------------

  Dipole Moment: [D]
     X:    -4.6888      Y:     2.2032      Z:     0.0016     Total:     5.1807

*** Psi4 exiting successfully. Buy a developer a beer!
