                               Psi4 1.3.2 release

  ==> Input File <==

--------------------------------------------------------------------------
#psi4
#
memory 32 gb

molecule  {
-1 1
  O        0.7018950    -1.1499360     0.0000130
  O        0.7018860     1.1499410     0.0000130
  N       -1.2570750    -0.0000040    -0.0001850
  C        0.2215341    -0.0910672     0.0000443
  H       -1.7560250     0.8738390     0.0004010
  H       -1.7560220    -0.8738500     0.0004010
units angstrom
no_reorient  #important for SAPT in psi4, default
symmetry c1  #important for SAPT in psi4, default
}

set PROPERTIES_ORIGIN ["COM"]
properties('MP2/aug-cc-pvtz', properties = ['dipole'])
--------------------------------------------------------------------------

    Molecular point group: c1
  Charge       = -1
  Multiplicity = 1
  Basis Set: AUG-CC-PVTZ
    Blend: AUG-CC-PVTZ
  Basis Set: (AUG-CC-PVTZ AUX)
    Blend: AUG-CC-PVTZ-JKFIT

    Orbital Energies [Eh]
    ---------------------

    Doubly Occupied:

       1A    -20.310235     2A    -20.266693     3A    -15.359222
       4A    -11.157046     5A     -1.213703     6A     -1.050237
       7A     -0.944210     8A     -0.551838     9A     -0.489406
      10A     -0.453457    11A     -0.388251    12A     -0.385241
      13A     -0.226241    14A     -0.213932    15A     -0.193437
      16A     -0.183481

  @DF-RHF Final Energy:  -243.33224673795303

   => Energetics <=

    Nuclear Repulsion Energy =            113.4367133601428179
    One-Electron Energy =                -566.7646564895138681
    Two-Electron Energy =                 209.9956963914180506
    Total Energy =                       -243.3322467379530281
  Basis Set: (AUG-CC-PVTZ AUX)
    Blend: AUG-CC-PVTZ-RI
    Molecular point group: c1

    Geometry (in Angstrom), charge = -1, multiplicity = 1:

       Center              X                  Y                   Z               Mass
    ------------   -----------------  -----------------  -----------------  -----------------
         O            0.635749041038    -1.131725370622     0.000026911771    15.994914619570
         O            0.635740041038     1.168151629378     0.000026911771    15.994914619570
         N           -1.323220958962     0.018206629378    -0.000171088229    14.003074004430
         C            0.155388141038    -0.072856570622     0.000058211771    12.000000000000
         H           -1.822170958962     0.892049629378     0.000414911771     1.007825032230
         H           -1.822167958962    -0.855639370622     0.000414911771     1.007825032230

  Basis Set: AUG-CC-PVTZ
    Blend: AUG-CC-PVTZ
  Basis Set: (AUG-CC-PVTZ AUX)
    Blend: AUG-CC-PVTZ-JKFIT
	 Reference Energy          =    -243.3322467379530281 [Eh]
	 Singles Energy            =      -0.0000000000000000 [Eh]
	 Same-Spin Energy          =      -0.2384686899281870 [Eh]
	 Opposite-Spin Energy      =      -0.6916347981590190 [Eh]
	 Correlation Energy        =      -0.9301034880872060 [Eh]
	 Total Energy              =    -244.2623502260402404 [Eh]

	 ================> DF-SCS-MP2 Energies <==================
	-----------------------------------------------------------
	 SCS Same-Spin Scale       =       0.3333333333333333 [-]
	 SCS Opposite-Spin Scale   =       1.2000000000000000 [-]
	 SCS Same-Spin Energy      =      -0.0794895633093957 [Eh]
	 SCS Opposite-Spin Energy  =      -0.8299617577908227 [Eh]
	 SCS Correlation Energy    =      -0.9094513211002184 [Eh]
	 SCS Total Energy          =    -244.2416980590532489 [Eh]
	-----------------------------------------------------------

  Dipole Moment: [D]
     X:    -3.3139      Y:    -1.1423      Z:     0.0018     Total:     3.5052

*** Psi4 exiting successfully. Buy a developer a beer!
