                               Psi4 1.3.2 release

  ==> Input File <==

--------------------------------------------------------------------------
#psi4
#
memory 32 gb

molecule  {
-1 1
  O        0.8192383    -1.0891067     0.0000054
  O        0.7018860     1.1499410     0.0000130
  N       -1.2570750    -0.0000040    -0.0001850
  C        0.1802210     0.0000000     0.0000470
  H       -1.7560250     0.8738390     0.0004010
  H       -1.7560220    -0.8738500     0.0004010
units angstrom
no_reorient  #important for SAPT in psi4, default
symmetry c1  #important for SAPT in psi4, default
}

set PROPERTIES_ORIGIN ["COM"]
properties('MP2/aug-cc-pvtz', properties = ['dipole'])
--------------------------------------------------------------------------

    Molecular point group: c1
  Charge       = -1
  Multiplicity = 1
  Basis Set: AUG-CC-PVTZ
    Blend: AUG-CC-PVTZ
  Basis Set: (AUG-CC-PVTZ AUX)
    Blend: AUG-CC-PVTZ-JKFIT

    Orbital Energies [Eh]
    ---------------------

    Doubly Occupied:

       1A    -20.281357     2A    -20.274635     3A    -15.377745
       4A    -11.155368     5A     -1.165816     6A     -1.051024
       7A     -0.970459     8A     -0.565470     9A     -0.508147
      10A     -0.431892    11A     -0.371337    12A     -0.370312
      13A     -0.225340    14A     -0.214678    15A     -0.192265
      16A     -0.185802

  @DF-RHF Final Energy:  -243.34600038433641

   => Energetics <=

    Nuclear Repulsion Energy =            113.1255292221529629
    One-Electron Energy =                -566.2597676424491056
    Two-Electron Energy =                 209.7882380359597221
    Total Energy =                       -243.3460003843364063
  Basis Set: (AUG-CC-PVTZ AUX)
    Blend: AUG-CC-PVTZ-RI
    Molecular point group: c1

    Geometry (in Angstrom), charge = -1, multiplicity = 1:

       Center              X                  Y                   Z               Mass
    ------------   -----------------  -----------------  -----------------  -----------------
         O            0.730076640966    -1.105320594227     0.000020797581    15.994914619570
         O            0.612724340966     1.133727105773     0.000028397581    15.994914619570
         N           -1.346236659034    -0.016217894227    -0.000169602419    14.003074004430
         C            0.091059340966    -0.016213894227     0.000062397581    12.000000000000
         H           -1.845186659034     0.857625105773     0.000416397581     1.007825032230
         H           -1.845183659034    -0.890063894227     0.000416397581     1.007825032230

  Basis Set: AUG-CC-PVTZ
    Blend: AUG-CC-PVTZ
  Basis Set: (AUG-CC-PVTZ AUX)
    Blend: AUG-CC-PVTZ-JKFIT
	 Reference Energy          =    -243.3460003843364063 [Eh]
	 Singles Energy            =      -0.0000000000000000 [Eh]
	 Same-Spin Energy          =      -0.2386554289639320 [Eh]
	 Opposite-Spin Energy      =      -0.6918187192389704 [Eh]
	 Correlation Energy        =      -0.9304741482029024 [Eh]
	 Total Energy              =    -244.2764745325393108 [Eh]

	 ================> DF-SCS-MP2 Energies <==================
	-----------------------------------------------------------
	 SCS Same-Spin Scale       =       0.3333333333333333 [-]
	 SCS Opposite-Spin Scale   =       1.2000000000000000 [-]
	 SCS Same-Spin Energy      =      -0.0795518096546440 [Eh]
	 SCS Opposite-Spin Energy  =      -0.8301824630867645 [Eh]
	 SCS Correlation Energy    =      -0.9097342727414085 [Eh]
	 SCS Total Energy          =    -244.2557346570778236 [Eh]
	-----------------------------------------------------------

  Dipole Moment: [D]
     X:    -4.0907      Y:    -0.1191      Z:     0.0017     Total:     4.0925

*** Psi4 exiting successfully. Buy a developer a beer!
