                               Psi4 1.3.2 release

  ==> Input File <==

--------------------------------------------------------------------------
#psi4
#
memory 32 gb

molecule  {
-1 1
  O        0.7218847    -1.1406564     0.0000117
  O        0.7018860     1.1499410     0.0000130
  N       -1.2570750    -0.0000040    -0.0001850
  C        0.1802210     0.0000000     0.0000470
  H       -1.7560250     0.8738390     0.0004010
  H       -1.7560220    -0.8738500     0.0004010
units angstrom
no_reorient  #important for SAPT in psi4, default
symmetry c1  #important for SAPT in psi4, default
}

set PROPERTIES_ORIGIN ["COM"]
properties('MP2/aug-cc-pvtz', properties = ['dipole'])
--------------------------------------------------------------------------

    Molecular point group: c1
  Charge       = -1
  Multiplicity = 1
  Basis Set: AUG-CC-PVTZ
    Blend: AUG-CC-PVTZ
  Basis Set: (AUG-CC-PVTZ AUX)
    Blend: AUG-CC-PVTZ-JKFIT

    Orbital Energies [Eh]
    ---------------------

    Doubly Occupied:

       1A    -20.282928     2A    -20.281780     3A    -15.370772
       4A    -11.157035     5A     -1.166627     6A     -1.059805
       7A     -0.963770     8A     -0.562565     9A     -0.503264
      10A     -0.432527    11A     -0.375295    12A     -0.372515
      13A     -0.222446    14A     -0.209512    15A     -0.201011
      16A     -0.191957

  @DF-RHF Final Energy:  -243.34844830050008

   => Energetics <=

    Nuclear Repulsion Energy =            113.2185814987652748
    One-Electron Energy =                -566.4264431766483767
    Two-Electron Energy =                 209.8594133773830208
    Total Energy =                       -243.3484483005000811
  Basis Set: (AUG-CC-PVTZ AUX)
    Blend: AUG-CC-PVTZ-RI
    Molecular point group: c1

    Geometry (in Angstrom), charge = -1, multiplicity = 1:

       Center              X                  Y                   Z               Mass
    ------------   -----------------  -----------------  -----------------  -----------------
         O            0.658672050467    -1.143130035469     0.000025418355    15.994914619570
         O            0.638673350467     1.147467364531     0.000026718355    15.994914619570
         N           -1.320287649533    -0.002477635469    -0.000171281645    14.003074004430
         C            0.117008350467    -0.002473635469     0.000060718355    12.000000000000
         H           -1.819237649533     0.871365364531     0.000414718355     1.007825032230
         H           -1.819234649533    -0.876323635469     0.000414718355     1.007825032230

  Basis Set: AUG-CC-PVTZ
    Blend: AUG-CC-PVTZ
  Basis Set: (AUG-CC-PVTZ AUX)
    Blend: AUG-CC-PVTZ-JKFIT
	 Reference Energy          =    -243.3484483005000811 [Eh]
	 Singles Energy            =      -0.0000000000000000 [Eh]
	 Same-Spin Energy          =      -0.2387175851400406 [Eh]
	 Opposite-Spin Energy      =      -0.6918897955629567 [Eh]
	 Correlation Energy        =      -0.9306073807029973 [Eh]
	 Total Energy              =    -244.2790556812030900 [Eh]

	 ================> DF-SCS-MP2 Energies <==================
	-----------------------------------------------------------
	 SCS Same-Spin Scale       =       0.3333333333333333 [-]
	 SCS Opposite-Spin Scale   =       1.2000000000000000 [-]
	 SCS Same-Spin Energy      =      -0.0795725283800135 [Eh]
	 SCS Opposite-Spin Energy  =      -0.8302677546755480 [Eh]
	 SCS Correlation Energy    =      -0.9098402830555615 [Eh]
	 SCS Total Energy          =    -244.2582885835556397 [Eh]
	-----------------------------------------------------------

  Dipole Moment: [D]
     X:    -3.8573      Y:    -0.0181      Z:     0.0017     Total:     3.8574

*** Psi4 exiting successfully. Buy a developer a beer!
