                               Psi4 1.3.2 release

  ==> Input File <==

--------------------------------------------------------------------------
#psi4
#
memory 32 gb

molecule  {
-1 1
  O        0.7018950    -1.1499360     0.0000130
  O        0.7018860     1.1499410     0.0000130
  N       -1.2570750    -0.0000040    -0.0001850
  C        0.1767201    -0.1002607     0.0001229
  H       -1.7560250     0.8738390     0.0004010
  H       -1.7560220    -0.8738500     0.0004010
units angstrom
no_reorient  #important for SAPT in psi4, default
symmetry c1  #important for SAPT in psi4, default
}

set PROPERTIES_ORIGIN ["COM"]
properties('MP2/aug-cc-pvtz', properties = ['dipole'])
--------------------------------------------------------------------------

    Molecular point group: c1
  Charge       = -1
  Multiplicity = 1
  Basis Set: AUG-CC-PVTZ
    Blend: AUG-CC-PVTZ
  Basis Set: (AUG-CC-PVTZ AUX)
    Blend: AUG-CC-PVTZ-JKFIT

    Orbital Energies [Eh]
    ---------------------

    Doubly Occupied:

       1A    -20.306844     2A    -20.260129     3A    -15.369529
       4A    -11.155154     5A     -1.204529     6A     -1.036470
       7A     -0.957319     8A     -0.564628     9A     -0.500524
      10A     -0.450729    11A     -0.384610    12A     -0.374460
      13A     -0.223689    14A     -0.219356    15A     -0.186089
      16A     -0.177238

  @DF-RHF Final Energy:  -243.33223803681972

   => Energetics <=

    Nuclear Repulsion Energy =            113.3929171672749305
    One-Electron Energy =                -566.7077190423564161
    Two-Electron Energy =                 209.9825638382617399
    Total Energy =                       -243.3322380368197173
  Basis Set: (AUG-CC-PVTZ AUX)
    Blend: AUG-CC-PVTZ-RI
    Molecular point group: c1

    Geometry (in Angstrom), charge = -1, multiplicity = 1:

       Center              X                  Y                   Z               Mass
    ------------   -----------------  -----------------  -----------------  -----------------
         O            0.644710563527    -1.129886932701     0.000011194011    15.994914619570
         O            0.644701563527     1.169990067299     0.000011194011    15.994914619570
         N           -1.314259436473     0.020045067299    -0.000186805989    14.003074004430
         C            0.119535663527    -0.080211632701     0.000121094011    12.000000000000
         H           -1.813209436473     0.893888067299     0.000399194011     1.007825032230
         H           -1.813206436473    -0.853800932701     0.000399194011     1.007825032230

  Basis Set: AUG-CC-PVTZ
    Blend: AUG-CC-PVTZ
  Basis Set: (AUG-CC-PVTZ AUX)
    Blend: AUG-CC-PVTZ-JKFIT
	 Reference Energy          =    -243.3322380368197173 [Eh]
	 Singles Energy            =      -0.0000000000000000 [Eh]
	 Same-Spin Energy          =      -0.2387020163452506 [Eh]
	 Opposite-Spin Energy      =      -0.6921139272635869 [Eh]
	 Correlation Energy        =      -0.9308159436088375 [Eh]
	 Total Energy              =    -244.2630539804285661 [Eh]

	 ================> DF-SCS-MP2 Energies <==================
	-----------------------------------------------------------
	 SCS Same-Spin Scale       =       0.3333333333333333 [-]
	 SCS Opposite-Spin Scale   =       1.2000000000000000 [-]
	 SCS Same-Spin Energy      =      -0.0795673387817502 [Eh]
	 SCS Opposite-Spin Energy  =      -0.8305367127163042 [Eh]
	 SCS Correlation Energy    =      -0.9101040514980545 [Eh]
	 SCS Total Energy          =    -244.2423420883177698 [Eh]
	-----------------------------------------------------------

  Dipole Moment: [D]
     X:    -3.8385      Y:    -1.2402      Z:     0.0018     Total:     4.0339

*** Psi4 exiting successfully. Buy a developer a beer!
