                               Psi4 1.4a3.dev225

  ==> Input File <==

--------------------------------------------------------------------------
#psi4
#
memory 32 gb

molecule  {
-1 1
  O       -0.7074350     1.1407700     0.0087330
  O       -0.7074350    -1.1407700     0.0087330
  N        1.2758540     0.0000000    -0.1055120
  C       -0.1390015    -0.0450856    -0.0038910
  H        1.6758320    -0.8356090     0.3096610
  H        1.6758330     0.8356080     0.3096610
units angstrom
no_reorient  #important for SAPT in psi4, default
symmetry c1  #important for SAPT in psi4, default
}

set PROPERTIES_ORIGIN ["COM"]
properties('MP2/aug-cc-pvtz', properties = ['dipole'])
--------------------------------------------------------------------------

    Molecular point group: c1
  Charge       = -1
  Multiplicity = 1
  Basis Set: AUG-CC-PVTZ
    Blend: AUG-CC-PVTZ
  Basis Set: (AUG-CC-PVTZ AUX)
    Blend: AUG-CC-PVTZ-JKFIT

    Orbital Energies [Eh]
    ---------------------

    Doubly Occupied:

       1A    -20.294305     2A    -20.273121     3A    -15.382124
       4A    -11.155839     5A     -1.173141     6A     -1.047539
       7A     -0.979537     8A     -0.561557     9A     -0.494500
      10A     -0.435531    11A     -0.377974    12A     -0.366624
      13A     -0.244139    14A     -0.218002    15A     -0.194062
      16A     -0.186203

  @DF-RHF Final Energy:  -243.34578488791115

   => Energetics <=

    Nuclear Repulsion Energy =            113.2396265313523713
    One-Electron Energy =                -566.4024302296674023
    Two-Electron Energy =                 209.8170188104038800
    Total Energy =                       -243.3457848879111509
  Basis Set: (AUG-CC-PVTZ AUX)
    Blend: AUG-CC-PVTZ-RI
    Molecular point group: c1

    Geometry (in Angstrom), charge = -1, multiplicity = 1:

       Center              X                  Y                   Z               Mass
    ------------   -----------------  -----------------  -----------------  -----------------
         O           -0.656526040995     1.149785851541     0.019075674782    15.994914619570
         O           -0.656526040995    -1.131754148459     0.019075674782    15.994914619570
         N            1.326762959005     0.009015851541    -0.095169325218    14.003074004430
         C           -0.088092540995    -0.036069748459     0.006451674782    12.000000000000
         H            1.726740959005    -0.826593148459     0.320003674782     1.007825032230
         H            1.726741959005     0.844623851541     0.320003674782     1.007825032230

  Basis Set: AUG-CC-PVTZ
    Blend: AUG-CC-PVTZ
  Basis Set: (AUG-CC-PVTZ AUX)
    Blend: AUG-CC-PVTZ-JKFIT
	 Reference Energy          =    -243.3457848879111509 [Eh]
	 Singles Energy            =      -0.0000000000000000 [Eh]
	 Same-Spin Energy          =      -0.2388299101791967 [Eh]
	 Opposite-Spin Energy      =      -0.6932273005215530 [Eh]
	 Correlation Energy        =      -0.9320572107007496 [Eh]
	 Total Energy              =    -244.2778420986118988 [Eh]

	 ================> DF-SCS-MP2 Energies <==================
	-----------------------------------------------------------
	 SCS Same-Spin Scale       =       0.3333333333333333 [-]
	 SCS Opposite-Spin Scale   =       1.2000000000000000 [-]
	 SCS Same-Spin Energy      =      -0.0796099700597322 [Eh]
	 SCS Opposite-Spin Energy  =      -0.8318727606258636 [Eh]
	 SCS Correlation Energy    =      -0.9114827306855958 [Eh]
	 SCS Total Energy          =    -244.2572676185967566 [Eh]
	-----------------------------------------------------------

  Dipole Moment: [D]
     X:     3.7389      Y:    -0.5466      Z:     1.0478     Total:     3.9213

*** Psi4 exiting successfully. Buy a developer a beer!
