                               Psi4 1.3.2 release

  ==> Input File <==

--------------------------------------------------------------------------
#psi4
#
memory 32 gb

molecule  {
-1 1
  O        0.7018950    -1.1499360     0.0000130
  O        0.7018860     1.1499410     0.0000130
  N       -1.2570750    -0.0000040    -0.0001850
  C        0.1793453     0.0501609     0.0000086
  H       -1.7560250     0.8738390     0.0004010
  H       -1.7560220    -0.8738500     0.0004010
units angstrom
no_reorient  #important for SAPT in psi4, default
symmetry c1  #important for SAPT in psi4, default
}

set PROPERTIES_ORIGIN ["COM"]
properties('MP2/aug-cc-pvtz', properties = ['dipole'])
--------------------------------------------------------------------------

    Molecular point group: c1
  Charge       = -1
  Multiplicity = 1
  Basis Set: AUG-CC-PVTZ
    Blend: AUG-CC-PVTZ
  Basis Set: (AUG-CC-PVTZ AUX)
    Blend: AUG-CC-PVTZ-JKFIT

    Orbital Energies [Eh]
    ---------------------

    Doubly Occupied:

       1A    -20.295027     2A    -20.271486     3A    -15.369369
       4A    -11.156796     5A     -1.178058     6A     -1.053403
       7A     -0.961171     8A     -0.562667     9A     -0.501795
      10A     -0.437883    11A     -0.375795    12A     -0.374963
      13A     -0.223672    14A     -0.212750    15A     -0.197150
      16A     -0.187512

  @DF-RHF Final Energy:  -243.34436756899453

   => Energetics <=

    Nuclear Repulsion Energy =            113.2848294329184711
    One-Electron Energy =                -566.5394012092650655
    Two-Electron Energy =                 209.9102042073520806
    Total Energy =                       -243.3443675689945280
  Basis Set: (AUG-CC-PVTZ AUX)
    Blend: AUG-CC-PVTZ-RI
    Molecular point group: c1

    Geometry (in Angstrom), charge = -1, multiplicity = 1:

       Center              X                  Y                   Z               Mass
    ------------   -----------------  -----------------  -----------------  -----------------
         O            0.644185598363    -1.159966964638     0.000034050753    15.994914619570
         O            0.644176598363     1.139910035362     0.000034050753    15.994914619570
         N           -1.314784401637    -0.010034964638    -0.000163949247    14.003074004430
         C            0.121635898363     0.040129935362     0.000029650753    12.000000000000
         H           -1.813734401637     0.863808035362     0.000422050753     1.007825032230
         H           -1.813731401637    -0.883880964638     0.000422050753     1.007825032230

  Basis Set: AUG-CC-PVTZ
    Blend: AUG-CC-PVTZ
  Basis Set: (AUG-CC-PVTZ AUX)
    Blend: AUG-CC-PVTZ-JKFIT
	 Reference Energy          =    -243.3443675689945280 [Eh]
	 Singles Energy            =      -0.0000000000000000 [Eh]
	 Same-Spin Energy          =      -0.2387359250229397 [Eh]
	 Opposite-Spin Energy      =      -0.6919829882591587 [Eh]
	 Correlation Energy        =      -0.9307189132820984 [Eh]
	 Total Energy              =    -244.2750864822766346 [Eh]

	 ================> DF-SCS-MP2 Energies <==================
	-----------------------------------------------------------
	 SCS Same-Spin Scale       =       0.3333333333333333 [-]
	 SCS Opposite-Spin Scale   =       1.2000000000000000 [-]
	 SCS Same-Spin Energy      =      -0.0795786416743132 [Eh]
	 SCS Opposite-Spin Energy  =      -0.8303795859109905 [Eh]
	 SCS Correlation Energy    =      -0.9099582275853038 [Eh]
	 SCS Total Energy          =    -244.2543257965798205 [Eh]
	-----------------------------------------------------------

  Dipole Moment: [D]
     X:    -3.8161      Y:     0.6195      Z:     0.0017     Total:     3.8661

*** Psi4 exiting successfully. Buy a developer a beer!
