                               Psi4 1.3.2 release

  ==> Input File <==

--------------------------------------------------------------------------
#psi4
#
memory 32 gb

molecule  {
-1 1
  O        0.7018950    -1.1499360     0.0000130
  O        0.6614359     1.1674463     0.0000047
  N       -1.2570750    -0.0000040    -0.0001850
  C        0.1802210     0.0000000     0.0000470
  H       -1.7560250     0.8738390     0.0004010
  H       -1.7560220    -0.8738500     0.0004010
units angstrom
no_reorient  #important for SAPT in psi4, default
symmetry c1  #important for SAPT in psi4, default
}

set PROPERTIES_ORIGIN ["COM"]
properties('MP2/aug-cc-pvtz', properties = ['dipole'])
--------------------------------------------------------------------------

    Molecular point group: c1
  Charge       = -1
  Multiplicity = 1
  Basis Set: AUG-CC-PVTZ
    Blend: AUG-CC-PVTZ
  Basis Set: (AUG-CC-PVTZ AUX)
    Blend: AUG-CC-PVTZ-JKFIT

    Orbital Energies [Eh]
    ---------------------

    Doubly Occupied:

       1A    -20.285946     2A    -20.283619     3A    -15.366379
       4A    -11.158089     5A     -1.167426     6A     -1.064904
       7A     -0.959335     8A     -0.560865     9A     -0.500222
      10A     -0.432794    11A     -0.378034    12A     -0.373339
      13A     -0.220461    14A     -0.206393    15A     -0.205455
      16A     -0.195186

  @DF-RHF Final Energy:  -243.34755801523116

   => Energetics <=

    Nuclear Repulsion Energy =            113.3196872196481451
    One-Electron Energy =                -566.6175974338465267
    Two-Electron Energy =                 209.9503521989672379
    Total Energy =                       -243.3475580152311579
  Basis Set: (AUG-CC-PVTZ AUX)
    Blend: AUG-CC-PVTZ-RI
    Molecular point group: c1

    Geometry (in Angstrom), charge = -1, multiplicity = 1:

       Center              X                  Y                   Z               Mass
    ------------   -----------------  -----------------  -----------------  -----------------
         O            0.654792211267    -1.154602145735     0.000028584162    15.994914619570
         O            0.614333111267     1.162780154265     0.000020284162    15.994914619570
         N           -1.304177788733    -0.004670145735    -0.000169415838    14.003074004430
         C            0.133118211267    -0.004666145735     0.000062584162    12.000000000000
         H           -1.803127788733     0.869172854265     0.000416584162     1.007825032230
         H           -1.803124788733    -0.878516145735     0.000416584162     1.007825032230

  Basis Set: AUG-CC-PVTZ
    Blend: AUG-CC-PVTZ
  Basis Set: (AUG-CC-PVTZ AUX)
    Blend: AUG-CC-PVTZ-JKFIT
	 Reference Energy          =    -243.3475580152311579 [Eh]
	 Singles Energy            =      -0.0000000000000000 [Eh]
	 Same-Spin Energy          =      -0.2388475522306166 [Eh]
	 Opposite-Spin Energy      =      -0.6921092733838831 [Eh]
	 Correlation Energy        =      -0.9309568256144997 [Eh]
	 Total Energy              =    -244.2785148408456450 [Eh]

	 ================> DF-SCS-MP2 Energies <==================
	-----------------------------------------------------------
	 SCS Same-Spin Scale       =       0.3333333333333333 [-]
	 SCS Opposite-Spin Scale   =       1.2000000000000000 [-]
	 SCS Same-Spin Energy      =      -0.0796158507435389 [Eh]
	 SCS Opposite-Spin Energy  =      -0.8305311280606597 [Eh]
	 SCS Correlation Energy    =      -0.9101469788041985 [Eh]
	 SCS Total Energy          =    -244.2577049940353504 [Eh]
	-----------------------------------------------------------

  Dipole Moment: [D]
     X:    -3.7090      Y:    -0.0339      Z:     0.0017     Total:     3.7091

*** Psi4 exiting successfully. Buy a developer a beer!
