                               Psi4 1.4a3.dev225

  ==> Input File <==

--------------------------------------------------------------------------
#psi4
#
memory 32 gb

molecule  {
-1 1
  O       -0.7074350     1.1407700     0.0087330
  O       -0.7074350    -1.1407700     0.0087330
  N        1.2758540     0.0000000    -0.1055120
  C       -0.2104872     0.0000000     0.0001339
  H        1.6758320    -0.8356090     0.3096610
  H        1.6758330     0.8356080     0.3096610
units angstrom
no_reorient  #important for SAPT in psi4, default
symmetry c1  #important for SAPT in psi4, default
}

set PROPERTIES_ORIGIN ["COM"]
properties('MP2/aug-cc-pvtz', properties = ['dipole'])
--------------------------------------------------------------------------

    Molecular point group: c1
  Charge       = -1
  Multiplicity = 1
  Basis Set: AUG-CC-PVTZ
    Blend: AUG-CC-PVTZ
  Basis Set: (AUG-CC-PVTZ AUX)
    Blend: AUG-CC-PVTZ-JKFIT

    Orbital Energies [Eh]
    ---------------------

    Doubly Occupied:

       1A    -20.290331     2A    -20.290298     3A    -15.367386
       4A    -11.157010     5A     -1.180721     6A     -1.078594
       7A     -0.955716     8A     -0.541576     9A     -0.477264
      10A     -0.438028    11A     -0.386272    12A     -0.379999
      13A     -0.241256    14A     -0.211642    15A     -0.207508
      16A     -0.200739

  @DF-RHF Final Energy:  -243.35143162239322

   => Energetics <=

    Nuclear Repulsion Energy =            113.3336408049911341
    One-Electron Energy =                -566.5614649333452917
    Two-Electron Energy =                 209.8763925059609221
    Total Energy =                       -243.3514316223932212
  Basis Set: (AUG-CC-PVTZ AUX)
    Blend: AUG-CC-PVTZ-RI
    Molecular point group: c1

    Geometry (in Angstrom), charge = -1, multiplicity = 1:

       Center              X                  Y                   Z               Mass
    ------------   -----------------  -----------------  -----------------  -----------------
         O           -0.642230938835     1.140770016795     0.018270809520    15.994914619570
         O           -0.642230938835    -1.140769983205     0.018270809520    15.994914619570
         N            1.341058061165     0.000000016795    -0.095974190480    14.003074004430
         C           -0.145283138835     0.000000016795     0.009671709520    12.000000000000
         H            1.741036061165    -0.835608983205     0.319198809520     1.007825032230
         H            1.741037061165     0.835608016795     0.319198809520     1.007825032230

  Basis Set: AUG-CC-PVTZ
    Blend: AUG-CC-PVTZ
  Basis Set: (AUG-CC-PVTZ AUX)
    Blend: AUG-CC-PVTZ-JKFIT
	 Reference Energy          =    -243.3514316223932212 [Eh]
	 Singles Energy            =      -0.0000000000000000 [Eh]
	 Same-Spin Energy          =      -0.2382306184637927 [Eh]
	 Opposite-Spin Energy      =      -0.6921245824653184 [Eh]
	 Correlation Energy        =      -0.9303552009291112 [Eh]
	 Total Energy              =    -244.2817868233223351 [Eh]

	 ================> DF-SCS-MP2 Energies <==================
	-----------------------------------------------------------
	 SCS Same-Spin Scale       =       0.3333333333333333 [-]
	 SCS Opposite-Spin Scale   =       1.2000000000000000 [-]
	 SCS Same-Spin Energy      =      -0.0794102061545976 [Eh]
	 SCS Opposite-Spin Energy  =      -0.8305494989583820 [Eh]
	 SCS Correlation Energy    =      -0.9099597051129796 [Eh]
	 SCS Total Energy          =    -244.2613913275062032 [Eh]
	-----------------------------------------------------------

  Dipole Moment: [D]
     X:     2.9730      Y:    -0.0000      Z:     1.0789     Total:     3.1627

*** Psi4 exiting successfully. Buy a developer a beer!
