                               Psi4 1.3.2 release

  ==> Input File <==

--------------------------------------------------------------------------
#psi4
#
memory 32 gb

molecule  {
-1 1
  O        0.7018950    -1.1499360     0.0000130
  O        0.7018860     1.1499410     0.0000130
  N       -1.2570750    -0.0000040    -0.0001850
  C        0.1723477    -0.1502383     0.0001603
  H       -1.7560250     0.8738390     0.0004010
  H       -1.7560220    -0.8738500     0.0004010
units angstrom
no_reorient  #important for SAPT in psi4, default
symmetry c1  #important for SAPT in psi4, default
}

set PROPERTIES_ORIGIN ["COM"]
properties('MP2/aug-cc-pvtz', properties = ['dipole'])
--------------------------------------------------------------------------

    Molecular point group: c1
  Charge       = -1
  Multiplicity = 1
  Basis Set: AUG-CC-PVTZ
    Blend: AUG-CC-PVTZ
  Basis Set: (AUG-CC-PVTZ AUX)
    Blend: AUG-CC-PVTZ-JKFIT

    Orbital Energies [Eh]
    ---------------------

    Doubly Occupied:

       1A    -20.318512     2A    -20.249224     3A    -15.369890
       4A    -11.152791     5A     -1.237728     6A     -1.020066
       7A     -0.949761     8A     -0.567745     9A     -0.498842
      10A     -0.466893    11A     -0.398596    12A     -0.379046
      13A     -0.225070    14A     -0.217455    15A     -0.173534
      16A     -0.165945

  @DF-RHF Final Energy:  -243.31146458056315

   => Energetics <=

    Nuclear Repulsion Energy =            113.5697240273898814
    One-Electron Energy =                -566.9801818300973082
    Two-Electron Energy =                 210.0989932221442587
    Total Energy =                       -243.3114645805631540
  Basis Set: (AUG-CC-PVTZ AUX)
    Blend: AUG-CC-PVTZ-RI
    Molecular point group: c1

    Geometry (in Angstrom), charge = -1, multiplicity = 1:

       Center              X                  Y                   Z               Mass
    ------------   -----------------  -----------------  -----------------  -----------------
         O            0.645584918883    -1.119892837410     0.000003715078    15.994914619570
         O            0.645575918883     1.179984162590     0.000003715078    15.994914619570
         N           -1.313385081117     0.030039162590    -0.000194284922    14.003074004430
         C            0.116037618883    -0.120195137410     0.000151015078    12.000000000000
         H           -1.812335081117     0.903882162590     0.000391715078     1.007825032230
         H           -1.812332081117    -0.843806837410     0.000391715078     1.007825032230

  Basis Set: AUG-CC-PVTZ
    Blend: AUG-CC-PVTZ
  Basis Set: (AUG-CC-PVTZ AUX)
    Blend: AUG-CC-PVTZ-JKFIT
	 Reference Energy          =    -243.3114645805631540 [Eh]
	 Singles Energy            =      -0.0000000000000000 [Eh]
	 Same-Spin Energy          =      -0.2386997478088504 [Eh]
	 Opposite-Spin Energy      =      -0.6924110504214895 [Eh]
	 Correlation Energy        =      -0.9311107982303399 [Eh]
	 Total Energy              =    -244.2425753787935037 [Eh]

	 ================> DF-SCS-MP2 Energies <==================
	-----------------------------------------------------------
	 SCS Same-Spin Scale       =       0.3333333333333333 [-]
	 SCS Opposite-Spin Scale   =       1.2000000000000000 [-]
	 SCS Same-Spin Energy      =      -0.0795665826029501 [Eh]
	 SCS Opposite-Spin Energy  =      -0.8308932605057874 [Eh]
	 SCS Correlation Energy    =      -0.9104598431087375 [Eh]
	 SCS Total Energy          =    -244.2219244236718794 [Eh]
	-----------------------------------------------------------

  Dipole Moment: [D]
     X:    -3.8752      Y:    -1.8614      Z:     0.0018     Total:     4.2991

*** Psi4 exiting successfully. Buy a developer a beer!
