                               Psi4 1.3.2 release

  ==> Input File <==

--------------------------------------------------------------------------
#psi4
#
memory 32 gb

molecule  {
-1 1
  O        0.7018950    -1.1499360     0.0000130
  O        0.7018860     1.1499410     0.0000130
  N       -1.2570750    -0.0000040    -0.0001850
  C        0.1793456    -0.0501609     0.0000851
  H       -1.7560250     0.8738390     0.0004010
  H       -1.7560220    -0.8738500     0.0004010
units angstrom
no_reorient  #important for SAPT in psi4, default
symmetry c1  #important for SAPT in psi4, default
}

set PROPERTIES_ORIGIN ["COM"]
properties('MP2/aug-cc-pvtz', properties = ['dipole'])
--------------------------------------------------------------------------

    Molecular point group: c1
  Charge       = -1
  Multiplicity = 1
  Basis Set: AUG-CC-PVTZ
    Blend: AUG-CC-PVTZ
  Basis Set: (AUG-CC-PVTZ AUX)
    Blend: AUG-CC-PVTZ-JKFIT

    Orbital Energies [Eh]
    ---------------------

    Doubly Occupied:

       1A    -20.295027     2A    -20.271485     3A    -15.369369
       4A    -11.156796     5A     -1.178059     6A     -1.053402
       7A     -0.961171     8A     -0.562667     9A     -0.501795
      10A     -0.437884    11A     -0.375795    12A     -0.374963
      13A     -0.223672    14A     -0.212751    15A     -0.197149
      16A     -0.187512

  @DF-RHF Final Energy:  -243.34436741496063

   => Energetics <=

    Nuclear Repulsion Energy =            113.2848294222498708
    One-Electron Energy =                -566.5394006543569958
    Two-Electron Energy =                 209.9102038171465097
    Total Energy =                       -243.3443674149606295
  Basis Set: (AUG-CC-PVTZ AUX)
    Blend: AUG-CC-PVTZ-RI
    Molecular point group: c1

    Geometry (in Angstrom), charge = -1, multiplicity = 1:

       Center              X                  Y                   Z               Mass
    ------------   -----------------  -----------------  -----------------  -----------------
         O            0.644185538372    -1.139905464508     0.000018752934    15.994914619570
         O            0.644176538372     1.159971535492     0.000018752934    15.994914619570
         N           -1.314784461628     0.010026535492    -0.000179247066    14.003074004430
         C            0.121636138372    -0.040130364508     0.000090852934    12.000000000000
         H           -1.813734461628     0.883869535492     0.000406752934     1.007825032230
         H           -1.813731461628    -0.863819464508     0.000406752934     1.007825032230

  Basis Set: AUG-CC-PVTZ
    Blend: AUG-CC-PVTZ
  Basis Set: (AUG-CC-PVTZ AUX)
    Blend: AUG-CC-PVTZ-JKFIT
	 Reference Energy          =    -243.3443674149606295 [Eh]
	 Singles Energy            =      -0.0000000000000000 [Eh]
	 Same-Spin Energy          =      -0.2387359263304515 [Eh]
	 Opposite-Spin Energy      =      -0.6919829941660444 [Eh]
	 Correlation Energy        =      -0.9307189204964958 [Eh]
	 Total Energy              =    -244.2750863354571322 [Eh]

	 ================> DF-SCS-MP2 Energies <==================
	-----------------------------------------------------------
	 SCS Same-Spin Scale       =       0.3333333333333333 [-]
	 SCS Opposite-Spin Scale   =       1.2000000000000000 [-]
	 SCS Same-Spin Energy      =      -0.0795786421101505 [Eh]
	 SCS Opposite-Spin Energy  =      -0.8303795929992532 [Eh]
	 SCS Correlation Energy    =      -0.9099582351094038 [Eh]
	 SCS Total Energy          =    -244.2543256500700295 [Eh]
	-----------------------------------------------------------

  Dipole Moment: [D]
     X:    -3.8161      Y:    -0.6196      Z:     0.0018     Total:     3.8661

*** Psi4 exiting successfully. Buy a developer a beer!
