                               Psi4 1.3.2 release

  ==> Input File <==

--------------------------------------------------------------------------
#psi4
#
memory 32 gb

molecule  {
-1 1
  O        0.7018950    -1.1499360     0.0000130
  O        0.7018860     1.1499410     0.0000130
  N       -1.2570750    -0.0000040    -0.0001850
  C        0.1389079     0.0910672     0.0000497
  H       -1.7560250     0.8738390     0.0004010
  H       -1.7560220    -0.8738500     0.0004010
units angstrom
no_reorient  #important for SAPT in psi4, default
symmetry c1  #important for SAPT in psi4, default
}

set PROPERTIES_ORIGIN ["COM"]
properties('MP2/aug-cc-pvtz', properties = ['dipole'])
--------------------------------------------------------------------------

    Molecular point group: c1
  Charge       = -1
  Multiplicity = 1
  Basis Set: AUG-CC-PVTZ
    Blend: AUG-CC-PVTZ
  Basis Set: (AUG-CC-PVTZ AUX)
    Blend: AUG-CC-PVTZ-JKFIT

    Orbital Energies [Eh]
    ---------------------

    Doubly Occupied:

       1A    -20.300249     2A    -20.258731     3A    -15.377972
       4A    -11.154574     5A     -1.186911     6A     -1.032970
       7A     -0.968564     8A     -0.576828     9A     -0.511117
      10A     -0.442786    11A     -0.379712    12A     -0.364284
      13A     -0.222196    14A     -0.221569    15A     -0.182753
      16A     -0.174773

  @DF-RHF Final Energy:  -243.33426156925100

   => Energetics <=

    Nuclear Repulsion Energy =            113.3138473906120680
    One-Electron Energy =                -566.5842410712973560
    Two-Electron Energy =                 209.9361321114342900
    Total Energy =                       -243.3342615692509980
  Basis Set: (AUG-CC-PVTZ AUX)
    Blend: AUG-CC-PVTZ-RI
    Molecular point group: c1

    Geometry (in Angstrom), charge = -1, multiplicity = 1:

       Center              X                  Y                   Z               Mass
    ------------   -----------------  -----------------  -----------------  -----------------
         O            0.652271925616    -1.168147058523     0.000025831925    15.994914619570
         O            0.652262925616     1.131729941477     0.000025831925    15.994914619570
         N           -1.306698074384    -0.018215058523    -0.000172168075    14.003074004430
         C            0.089284825616     0.072856141477     0.000062531925    12.000000000000
         H           -1.805648074384     0.855627941477     0.000413831925     1.007825032230
         H           -1.805645074384    -0.892061058523     0.000413831925     1.007825032230

  Basis Set: AUG-CC-PVTZ
    Blend: AUG-CC-PVTZ
  Basis Set: (AUG-CC-PVTZ AUX)
    Blend: AUG-CC-PVTZ-JKFIT
	 Reference Energy          =    -243.3342615692509980 [Eh]
	 Singles Energy            =      -0.0000000000000000 [Eh]
	 Same-Spin Energy          =      -0.2390407124632943 [Eh]
	 Opposite-Spin Energy      =      -0.6926870898711266 [Eh]
	 Correlation Energy        =      -0.9317278023344209 [Eh]
	 Total Energy              =    -244.2659893715854196 [Eh]

	 ================> DF-SCS-MP2 Energies <==================
	-----------------------------------------------------------
	 SCS Same-Spin Scale       =       0.3333333333333333 [-]
	 SCS Opposite-Spin Scale   =       1.2000000000000000 [-]
	 SCS Same-Spin Energy      =      -0.0796802374877648 [Eh]
	 SCS Opposite-Spin Energy  =      -0.8312245078453518 [Eh]
	 SCS Correlation Energy    =      -0.9109047453331166 [Eh]
	 SCS Total Energy          =    -244.2451663145841110 [Eh]
	-----------------------------------------------------------

  Dipole Moment: [D]
     X:    -4.2659      Y:     1.1111      Z:     0.0017     Total:     4.4082

*** Psi4 exiting successfully. Buy a developer a beer!
