                               Psi4 1.3.2 release

  ==> Input File <==

--------------------------------------------------------------------------
#psi4
#
memory 32 gb

molecule  {
-1 1
  O        0.6817464    -1.1588653     0.0000143
  O        0.7018860     1.1499410     0.0000130
  N       -1.2570750    -0.0000040    -0.0001850
  C        0.1802210     0.0000000     0.0000470
  H       -1.7560250     0.8738390     0.0004010
  H       -1.7560220    -0.8738500     0.0004010
units angstrom
no_reorient  #important for SAPT in psi4, default
symmetry c1  #important for SAPT in psi4, default
}

set PROPERTIES_ORIGIN ["COM"]
properties('MP2/aug-cc-pvtz', properties = ['dipole'])
--------------------------------------------------------------------------

    Molecular point group: c1
  Charge       = -1
  Multiplicity = 1
  Basis Set: AUG-CC-PVTZ
    Blend: AUG-CC-PVTZ
  Basis Set: (AUG-CC-PVTZ AUX)
    Blend: AUG-CC-PVTZ-JKFIT

    Orbital Energies [Eh]
    ---------------------

    Doubly Occupied:

       1A    -20.284568     2A    -20.283410     3A    -15.367861
       4A    -11.157733     5A     -1.167133     6A     -1.063217
       7A     -0.960848     8A     -0.561427     9A     -0.501243
      10A     -0.432715    11A     -0.377140    12A     -0.373054
      13A     -0.221133    14A     -0.207406    15A     -0.204055
      16A     -0.194176

  @DF-RHF Final Energy:  -243.34805532582411

   => Energetics <=

    Nuclear Repulsion Energy =            113.2821667760572950
    One-Electron Energy =                -566.5462060236635580
    Two-Electron Energy =                 209.9159839217821570
    Total Energy =                       -243.3480553258241059
  Basis Set: (AUG-CC-PVTZ AUX)
    Blend: AUG-CC-PVTZ-RI
    Molecular point group: c1

    Geometry (in Angstrom), charge = -1, multiplicity = 1:

       Center              X                  Y                   Z               Mass
    ------------   -----------------  -----------------  -----------------  -----------------
         O            0.629232370015    -1.156485464009     0.000027325341    15.994914619570
         O            0.649371970015     1.152320835991     0.000026025341    15.994914619570
         N           -1.309589029985     0.002375835991    -0.000171974659    14.003074004430
         C            0.127706970015     0.002379835991     0.000060025341    12.000000000000
         H           -1.808539029985     0.876218835991     0.000414025341     1.007825032230
         H           -1.808536029985    -0.871470164009     0.000414025341     1.007825032230

  Basis Set: AUG-CC-PVTZ
    Blend: AUG-CC-PVTZ
  Basis Set: (AUG-CC-PVTZ AUX)
    Blend: AUG-CC-PVTZ-JKFIT
	 Reference Energy          =    -243.3480553258241059 [Eh]
	 Singles Energy            =      -0.0000000000000000 [Eh]
	 Same-Spin Energy          =      -0.2387963833134805 [Eh]
	 Opposite-Spin Energy      =      -0.6920212308143789 [Eh]
	 Correlation Energy        =      -0.9308176141278595 [Eh]
	 Total Energy              =    -244.2788729399519525 [Eh]

	 ================> DF-SCS-MP2 Energies <==================
	-----------------------------------------------------------
	 SCS Same-Spin Scale       =       0.3333333333333333 [-]
	 SCS Opposite-Spin Scale   =       1.2000000000000000 [-]
	 SCS Same-Spin Energy      =      -0.0795987944378268 [Eh]
	 SCS Opposite-Spin Energy  =      -0.8304254769772547 [Eh]
	 SCS Correlation Energy    =      -0.9100242714150815 [Eh]
	 SCS Total Energy          =    -244.2580795972391741 [Eh]
	-----------------------------------------------------------

  Dipole Moment: [D]
     X:    -3.7591      Y:     0.0173      Z:     0.0017     Total:     3.7591

*** Psi4 exiting successfully. Buy a developer a beer!
