                               Psi4 1.4a2.dev612

  ==> Input File <==

--------------------------------------------------------------------------
#psi4
#
memory 32 gb

molecule  {
0 1
  O        1.2764910    -0.5580180    -0.0000140
  C       -0.0526320    -0.2163280    -0.0000090
  C        2.2283480     0.5091050    -0.0000050
  C       -0.5417410     1.0945740     0.0000030
  C       -0.9442271    -1.2979991     0.1000050
  C        3.5986500    -0.1324730     0.0000120
  C       -1.9250240     1.3079840    -0.0000030
  C       -2.3159710    -1.0695280    -0.0000020
  C       -2.8161410     0.2373500     0.0000110
  H        2.0858520     1.1373040    -0.8891130
  H        2.0858350     1.1373010     0.8891040
  H        0.1282520     1.9474600    -0.0000130
  H       -0.5338010    -2.3041010    -0.0000080
  H        4.3764260     0.6364270     0.0000070
  H        3.7225630    -0.7572470     0.8867960
  H        3.7225780    -0.7572730    -0.8867510
  H       -2.3006170     2.3287260     0.0000070
  H       -2.9984970    -1.9161460     0.0000120
  H       -3.8880810     0.4155830     0.0000010
units angstrom
no_reorient  #important for SAPT in psi4, default
symmetry c1  #important for SAPT in psi4, default
}

set PROPERTIES_ORIGIN ["COM"]
properties('MP2/aug-cc-pvtz', properties = ['dipole'])
--------------------------------------------------------------------------

    Molecular point group: c1
  Charge       = 0
  Multiplicity = 1
  Basis Set: AUG-CC-PVTZ
    Blend: AUG-CC-PVTZ
  Basis Set: (AUG-CC-PVTZ AUX)
    Blend: AUG-CC-PVTZ-JKFIT

    Orbital Energies [Eh]
    ---------------------

    Doubly Occupied:

       1A    -20.581713     2A    -11.300688     3A    -11.287513
       4A    -11.240468     5A    -11.239275     6A    -11.231429
       7A    -11.227286     8A    -11.226077     9A    -11.221565
      10A     -1.403209    11A     -1.144017    12A     -1.043688
      13A     -1.014605    14A     -0.985339    15A     -0.869177
      16A     -0.823262    17A     -0.800206    18A     -0.721174
      19A     -0.668751    20A     -0.664540    21A     -0.647925
      22A     -0.613839    23A     -0.585618    24A     -0.560941
      25A     -0.559615    26A     -0.545472    27A     -0.514073
      28A     -0.505331    29A     -0.501183    30A     -0.478604
      31A     -0.461933    32A     -0.338624    33A     -0.310929

  @DF-RHF Final Energy:  -383.75368322702030

   => Energetics <=

    Nuclear Repulsion Energy =            418.6607723854490359
    One-Electron Energy =               -1350.1927788221985338
    Two-Electron Energy =                 547.7783232097291375
    Total Energy =                       -383.7536832270203604
  Basis Set: (AUG-CC-PVTZ AUX)
    Blend: AUG-CC-PVTZ-RI
    Molecular point group: c1

    Geometry (in Angstrom), charge = 0, multiplicity = 1:

       Center              X                  Y                   Z               Mass
    ------------   -----------------  -----------------  -----------------  -----------------
         O            1.328565495229    -0.542858402550    -0.009843862283    15.994914619570
         C           -0.000557504771    -0.201168402550    -0.009838862283    12.000000000000
         C            2.280422495229     0.524264597450    -0.009834862283    12.000000000000
         C           -0.489666504771     1.109733597450    -0.009826862283    12.000000000000
         C           -0.892152604771    -1.282839502550     0.090175137717    12.000000000000
         C            3.650724495229    -0.117313402550    -0.009817862283    12.000000000000
         C           -1.872949504771     1.323143597450    -0.009832862283    12.000000000000
         C           -2.263896504771    -1.054368402550    -0.009831862283    12.000000000000
         C           -2.764066504771     0.252509597450    -0.009818862283    12.000000000000
         H            2.137926495229     1.152463597450    -0.898942862283     1.007825032230
         H            2.137909495229     1.152460597450     0.879274137717     1.007825032230
         H            0.180326495229     1.962619597450    -0.009842862283     1.007825032230
         H           -0.481726504771    -2.288941402550    -0.009837862283     1.007825032230
         H            4.428500495229     0.651586597450    -0.009822862283     1.007825032230
         H            3.774637495229    -0.742087402550     0.876966137717     1.007825032230
         H            3.774652495229    -0.742113402550    -0.896580862283     1.007825032230
         H           -2.248542504771     2.343885597450    -0.009822862283     1.007825032230
         H           -2.946422504771    -1.900986402550    -0.009817862283     1.007825032230
         H           -3.836006504771     0.430742597450    -0.009828862283     1.007825032230

  Basis Set: AUG-CC-PVTZ
    Blend: AUG-CC-PVTZ
  Basis Set: (AUG-CC-PVTZ AUX)
    Blend: AUG-CC-PVTZ-JKFIT
	 Reference Energy          =    -383.7536832270203035 [Eh]
	 Singles Energy            =      -0.0000000000000000 [Eh]
	 Same-Spin Energy          =      -0.4087051431660862 [Eh]
	 Opposite-Spin Energy      =      -1.3148442705836680 [Eh]
	 Correlation Energy        =      -1.7235494137497542 [Eh]
	 Total Energy              =    -385.4772326407700689 [Eh]

	 ================> DF-SCS-MP2 Energies <==================
	-----------------------------------------------------------
	 SCS Same-Spin Scale       =       0.3333333333333333 [-]
	 SCS Opposite-Spin Scale   =       1.2000000000000000 [-]
	 SCS Same-Spin Energy      =      -0.1362350477220287 [Eh]
	 SCS Opposite-Spin Energy  =      -1.5778131247004017 [Eh]
	 SCS Correlation Energy    =      -1.7140481724224303 [Eh]
	 SCS Total Energy          =    -385.4677313994427550 [Eh]
	-----------------------------------------------------------

  Dipole Moment: [D]
     X:     0.8780      Y:     1.0515      Z:    -0.0661     Total:     1.3715

*** Psi4 exiting successfully. Buy a developer a beer!
