                               Psi4 1.4a2.dev612

  ==> Input File <==

--------------------------------------------------------------------------
#psi4
#
memory 32 gb

molecule  {
0 1
  O        1.2764910    -0.5580180    -0.0000140
  C       -0.0526320    -0.2163280    -0.0000090
  C        2.2283480     0.5091050    -0.0000050
  C       -0.5417410     1.0945740     0.0000030
  C       -0.9442258    -1.2979992     0.2500050
  C        3.5986500    -0.1324730     0.0000120
  C       -1.9250240     1.3079840    -0.0000030
  C       -2.3159710    -1.0695280    -0.0000020
  C       -2.8161410     0.2373500     0.0000110
  H        2.0858520     1.1373040    -0.8891130
  H        2.0858350     1.1373010     0.8891040
  H        0.1282520     1.9474600    -0.0000130
  H       -0.5338010    -2.3041010    -0.0000080
  H        4.3764260     0.6364270     0.0000070
  H        3.7225630    -0.7572470     0.8867960
  H        3.7225780    -0.7572730    -0.8867510
  H       -2.3006170     2.3287260     0.0000070
  H       -2.9984970    -1.9161460     0.0000120
  H       -3.8880810     0.4155830     0.0000010
units angstrom
no_reorient  #important for SAPT in psi4, default
symmetry c1  #important for SAPT in psi4, default
}

set PROPERTIES_ORIGIN ["COM"]
properties('MP2/aug-cc-pvtz', properties = ['dipole'])
--------------------------------------------------------------------------

    Molecular point group: c1
  Charge       = 0
  Multiplicity = 1
  Basis Set: AUG-CC-PVTZ
    Blend: AUG-CC-PVTZ
  Basis Set: (AUG-CC-PVTZ AUX)
    Blend: AUG-CC-PVTZ-JKFIT

    Orbital Energies [Eh]
    ---------------------

    Doubly Occupied:

       1A    -20.583008     2A    -11.304966     3A    -11.287879
       4A    -11.243519     5A    -11.243348     6A    -11.231355
       7A    -11.231120     8A    -11.225931     9A    -11.221785
      10A     -1.404107    11A     -1.142566    12A     -1.043604
      13A     -1.013089    14A     -0.984484    15A     -0.868662
      16A     -0.822722    17A     -0.798528    18A     -0.720430
      19A     -0.669490    20A     -0.662346    21A     -0.645978
      22A     -0.612693    23A     -0.582416    24A     -0.560479
      25A     -0.557624    26A     -0.545774    27A     -0.512829
      28A     -0.504496    29A     -0.499912    30A     -0.476031
      31A     -0.460899    32A     -0.338259    33A     -0.311001

  @DF-RHF Final Energy:  -383.73795625402533

   => Energetics <=

    Nuclear Repulsion Energy =            418.0639550790907606
    One-Electron Energy =               -1348.9811643173209177
    Two-Electron Energy =                 547.1792529842048225
    Total Energy =                       -383.7379562540253346
  Basis Set: (AUG-CC-PVTZ AUX)
    Blend: AUG-CC-PVTZ-RI
    Molecular point group: c1

    Geometry (in Angstrom), charge = 0, multiplicity = 1:

       Center              X                  Y                   Z               Mass
    ------------   -----------------  -----------------  -----------------  -----------------
         O            1.328565367436    -0.542858392720    -0.024589117728    15.994914619570
         C           -0.000557632564    -0.201168392720    -0.024584117728    12.000000000000
         C            2.280422367436     0.524264607280    -0.024580117728    12.000000000000
         C           -0.489666632564     1.109733607280    -0.024572117728    12.000000000000
         C           -0.892151432564    -1.282839592720     0.225429882272    12.000000000000
         C            3.650724367436    -0.117313392720    -0.024563117728    12.000000000000
         C           -1.872949632564     1.323143607280    -0.024578117728    12.000000000000
         C           -2.263896632564    -1.054368392720    -0.024577117728    12.000000000000
         C           -2.764066632564     0.252509607280    -0.024564117728    12.000000000000
         H            2.137926367436     1.152463607280    -0.913688117728     1.007825032230
         H            2.137909367436     1.152460607280     0.864528882272     1.007825032230
         H            0.180326367436     1.962619607280    -0.024588117728     1.007825032230
         H           -0.481726632564    -2.288941392720    -0.024583117728     1.007825032230
         H            4.428500367436     0.651586607280    -0.024568117728     1.007825032230
         H            3.774637367436    -0.742087392720     0.862220882272     1.007825032230
         H            3.774652367436    -0.742113392720    -0.911326117728     1.007825032230
         H           -2.248542632564     2.343885607280    -0.024568117728     1.007825032230
         H           -2.946422632564    -1.900986392720    -0.024563117728     1.007825032230
         H           -3.836006632564     0.430742607280    -0.024574117728     1.007825032230

  Basis Set: AUG-CC-PVTZ
    Blend: AUG-CC-PVTZ
  Basis Set: (AUG-CC-PVTZ AUX)
    Blend: AUG-CC-PVTZ-JKFIT
	 Reference Energy          =    -383.7379562540253346 [Eh]
	 Singles Energy            =      -0.0000000000000000 [Eh]
	 Same-Spin Energy          =      -0.4093883159335558 [Eh]
	 Opposite-Spin Energy      =      -1.3171573379322326 [Eh]
	 Correlation Energy        =      -1.7265456538657884 [Eh]
	 Total Energy              =    -385.4645019078911332 [Eh]

	 ================> DF-SCS-MP2 Energies <==================
	-----------------------------------------------------------
	 SCS Same-Spin Scale       =       0.3333333333333333 [-]
	 SCS Opposite-Spin Scale   =       1.2000000000000000 [-]
	 SCS Same-Spin Energy      =      -0.1364627719778519 [Eh]
	 SCS Opposite-Spin Energy  =      -1.5805888055186790 [Eh]
	 SCS Correlation Energy    =      -1.7170515774965309 [Eh]
	 SCS Total Energy          =    -385.4550078315218684 [Eh]
	-----------------------------------------------------------

  Dipole Moment: [D]
     X:     0.8663      Y:     1.1647      Z:    -0.1720     Total:     1.4617

*** Psi4 exiting successfully. Buy a developer a beer!
