                               Psi4 1.4a2.dev612

  ==> Input File <==

--------------------------------------------------------------------------
#psi4
#
memory 32 gb

molecule  {
0 1
  O        1.2764910    -0.5580180    -0.0000140
  C       -0.0526320    -0.2163280    -0.0000090
  C        2.2283480     0.5091050    -0.0000050
  C       -0.5417410     1.0945740     0.0000030
  C       -0.9442267    -1.2979991     0.1500050
  C        3.5986500    -0.1324730     0.0000120
  C       -1.9250240     1.3079840    -0.0000030
  C       -2.3159710    -1.0695280    -0.0000020
  C       -2.8161410     0.2373500     0.0000110
  H        2.0858520     1.1373040    -0.8891130
  H        2.0858350     1.1373010     0.8891040
  H        0.1282520     1.9474600    -0.0000130
  H       -0.5338010    -2.3041010    -0.0000080
  H        4.3764260     0.6364270     0.0000070
  H        3.7225630    -0.7572470     0.8867960
  H        3.7225780    -0.7572730    -0.8867510
  H       -2.3006170     2.3287260     0.0000070
  H       -2.9984970    -1.9161460     0.0000120
  H       -3.8880810     0.4155830     0.0000010
units angstrom
no_reorient  #important for SAPT in psi4, default
symmetry c1  #important for SAPT in psi4, default
}

set PROPERTIES_ORIGIN ["COM"]
properties('MP2/aug-cc-pvtz', properties = ['dipole'])
--------------------------------------------------------------------------

    Molecular point group: c1
  Charge       = 0
  Multiplicity = 1
  Basis Set: AUG-CC-PVTZ
    Blend: AUG-CC-PVTZ
  Basis Set: (AUG-CC-PVTZ AUX)
    Blend: AUG-CC-PVTZ-JKFIT

    Orbital Energies [Eh]
    ---------------------

    Doubly Occupied:

       1A    -20.582018     2A    -11.301728     3A    -11.287598
       4A    -11.241145     5A    -11.240306     6A    -11.231399
       7A    -11.228223     8A    -11.226030     9A    -11.221617
      10A     -1.403421    11A     -1.143651    12A     -1.043661
      13A     -1.014233    14A     -0.985146    15A     -0.869037
      16A     -0.823129    17A     -0.799781    18A     -0.720951
      19A     -0.668945    20A     -0.663946    21A     -0.647416
      22A     -0.613563    23A     -0.584793    24A     -0.560904
      25A     -0.559077    26A     -0.545541    27A     -0.513804
      28A     -0.505135    29A     -0.500856    30A     -0.478054
      31A     -0.461690    32A     -0.338516    33A     -0.310933

  @DF-RHF Final Energy:  -383.74997739108431

   => Energetics <=

    Nuclear Repulsion Energy =            418.5168120195881443
    One-Electron Energy =               -1349.9010883723756251
    Two-Electron Energy =                 547.6342989617032799
    Total Energy =                       -383.7499773910842578
  Basis Set: (AUG-CC-PVTZ AUX)
    Blend: AUG-CC-PVTZ-RI
    Molecular point group: c1

    Geometry (in Angstrom), charge = 0, multiplicity = 1:

       Center              X                  Y                   Z               Mass
    ------------   -----------------  -----------------  -----------------  -----------------
         O            1.328565455908    -0.542858402550    -0.014758947431    15.994914619570
         C           -0.000557544092    -0.201168402550    -0.014753947431    12.000000000000
         C            2.280422455908     0.524264597450    -0.014749947431    12.000000000000
         C           -0.489666544092     1.109733597450    -0.014741947431    12.000000000000
         C           -0.892152244092    -1.282839502550     0.135260052569    12.000000000000
         C            3.650724455908    -0.117313402550    -0.014732947431    12.000000000000
         C           -1.872949544092     1.323143597450    -0.014747947431    12.000000000000
         C           -2.263896544092    -1.054368402550    -0.014746947431    12.000000000000
         C           -2.764066544092     0.252509597450    -0.014733947431    12.000000000000
         H            2.137926455908     1.152463597450    -0.903857947431     1.007825032230
         H            2.137909455908     1.152460597450     0.874359052569     1.007825032230
         H            0.180326455908     1.962619597450    -0.014757947431     1.007825032230
         H           -0.481726544092    -2.288941402550    -0.014752947431     1.007825032230
         H            4.428500455908     0.651586597450    -0.014737947431     1.007825032230
         H            3.774637455908    -0.742087402550     0.872051052569     1.007825032230
         H            3.774652455908    -0.742113402550    -0.901495947431     1.007825032230
         H           -2.248542544092     2.343885597450    -0.014737947431     1.007825032230
         H           -2.946422544092    -1.900986402550    -0.014732947431     1.007825032230
         H           -3.836006544092     0.430742597450    -0.014743947431     1.007825032230

  Basis Set: AUG-CC-PVTZ
    Blend: AUG-CC-PVTZ
  Basis Set: (AUG-CC-PVTZ AUX)
    Blend: AUG-CC-PVTZ-JKFIT
	 Reference Energy          =    -383.7499773910843146 [Eh]
	 Singles Energy            =      -0.0000000000000000 [Eh]
	 Same-Spin Energy          =      -0.4088728207756864 [Eh]
	 Opposite-Spin Energy      =      -1.3153941006871608 [Eh]
	 Correlation Energy        =      -1.7242669214628472 [Eh]
	 Total Energy              =    -385.4742443125471709 [Eh]

	 ================> DF-SCS-MP2 Energies <==================
	-----------------------------------------------------------
	 SCS Same-Spin Scale       =       0.3333333333333333 [-]
	 SCS Opposite-Spin Scale   =       1.2000000000000000 [-]
	 SCS Same-Spin Energy      =      -0.1362909402585621 [Eh]
	 SCS Opposite-Spin Energy  =      -1.5784729208245929 [Eh]
	 SCS Correlation Energy    =      -1.7147638610831550 [Eh]
	 SCS Total Energy          =    -385.4647412521674710 [Eh]
	-----------------------------------------------------------

  Dipole Moment: [D]
     X:     0.8750      Y:     1.0788      Z:    -0.1003     Total:     1.3926

*** Psi4 exiting successfully. Buy a developer a beer!
