                               Psi4 1.4a2.dev612

  ==> Input File <==

--------------------------------------------------------------------------
#psi4
#
memory 32 gb

molecule  {
0 1
  O        1.2764910    -0.5580180    -0.0000140
  C       -0.0526320    -0.2163280    -0.0000090
  C        2.2283480     0.5091050    -0.0000050
  C       -0.5417410     1.0945740     0.0000030
  C       -0.9442262    -1.2979991     0.2000050
  C        3.5986500    -0.1324730     0.0000120
  C       -1.9250240     1.3079840    -0.0000030
  C       -2.3159710    -1.0695280    -0.0000020
  C       -2.8161410     0.2373500     0.0000110
  H        2.0858520     1.1373040    -0.8891130
  H        2.0858350     1.1373010     0.8891040
  H        0.1282520     1.9474600    -0.0000130
  H       -0.5338010    -2.3041010    -0.0000080
  H        4.3764260     0.6364270     0.0000070
  H        3.7225630    -0.7572470     0.8867960
  H        3.7225780    -0.7572730    -0.8867510
  H       -2.3006170     2.3287260     0.0000070
  H       -2.9984970    -1.9161460     0.0000120
  H       -3.8880810     0.4155830     0.0000010
units angstrom
no_reorient  #important for SAPT in psi4, default
symmetry c1  #important for SAPT in psi4, default
}

set PROPERTIES_ORIGIN ["COM"]
properties('MP2/aug-cc-pvtz', properties = ['dipole'])
--------------------------------------------------------------------------

    Molecular point group: c1
  Charge       = 0
  Multiplicity = 1
  Basis Set: AUG-CC-PVTZ
    Blend: AUG-CC-PVTZ
  Basis Set: (AUG-CC-PVTZ AUX)
    Blend: AUG-CC-PVTZ-JKFIT

    Orbital Energies [Eh]
    ---------------------

    Doubly Occupied:

       1A    -20.582449     2A    -11.303163     3A    -11.287720
       4A    -11.242104     5A    -11.241729     6A    -11.231372
       7A    -11.229511     8A    -11.225978     9A    -11.221690
      10A     -1.403721    11A     -1.143162    12A     -1.043631
      13A     -1.013724    14A     -0.984866    15A     -0.868860
      16A     -0.822949    17A     -0.799214    18A     -0.720690
      19A     -0.669195    20A     -0.663195    21A     -0.646754
      22A     -0.613181    23A     -0.583703    24A     -0.560747
      25A     -0.558418    26A     -0.545640    27A     -0.513399
      28A     -0.504858    29A     -0.500426    30A     -0.477220
      31A     -0.461348    32A     -0.338388    33A     -0.310954

  @DF-RHF Final Energy:  -383.74474549302892

   => Energetics <=

    Nuclear Repulsion Energy =            418.3172425365701770
    One-Electron Energy =               -1349.4960573305834259
    Two-Electron Energy =                 547.4340693009843335
    Total Energy =                       -383.7447454930289723
  Basis Set: (AUG-CC-PVTZ AUX)
    Blend: AUG-CC-PVTZ-RI
    Molecular point group: c1

    Geometry (in Angstrom), charge = 0, multiplicity = 1:

       Center              X                  Y                   Z               Mass
    ------------   -----------------  -----------------  -----------------  -----------------
         O            1.328565406757    -0.542858402550    -0.019674032580    15.994914619570
         C           -0.000557593243    -0.201168402550    -0.019669032580    12.000000000000
         C            2.280422406757     0.524264597450    -0.019665032580    12.000000000000
         C           -0.489666593243     1.109733597450    -0.019657032580    12.000000000000
         C           -0.892151793243    -1.282839502550     0.180344967420    12.000000000000
         C            3.650724406757    -0.117313402550    -0.019648032580    12.000000000000
         C           -1.872949593243     1.323143597450    -0.019663032580    12.000000000000
         C           -2.263896593243    -1.054368402550    -0.019662032580    12.000000000000
         C           -2.764066593243     0.252509597450    -0.019649032580    12.000000000000
         H            2.137926406757     1.152463597450    -0.908773032580     1.007825032230
         H            2.137909406757     1.152460597450     0.869443967420     1.007825032230
         H            0.180326406757     1.962619597450    -0.019673032580     1.007825032230
         H           -0.481726593243    -2.288941402550    -0.019668032580     1.007825032230
         H            4.428500406757     0.651586597450    -0.019653032580     1.007825032230
         H            3.774637406757    -0.742087402550     0.867135967420     1.007825032230
         H            3.774652406757    -0.742113402550    -0.906411032580     1.007825032230
         H           -2.248542593243     2.343885597450    -0.019653032580     1.007825032230
         H           -2.946422593243    -1.900986402550    -0.019648032580     1.007825032230
         H           -3.836006593243     0.430742597450    -0.019659032580     1.007825032230

  Basis Set: AUG-CC-PVTZ
    Blend: AUG-CC-PVTZ
  Basis Set: (AUG-CC-PVTZ AUX)
    Blend: AUG-CC-PVTZ-JKFIT
	 Reference Energy          =    -383.7447454930289155 [Eh]
	 Singles Energy            =      -0.0000000000000000 [Eh]
	 Same-Spin Energy          =      -0.4091020142100256 [Eh]
	 Opposite-Spin Energy      =      -1.3161715777170602 [Eh]
	 Correlation Energy        =      -1.7252735919270856 [Eh]
	 Total Energy              =    -385.4700190849559931 [Eh]

	 ================> DF-SCS-MP2 Energies <==================
	-----------------------------------------------------------
	 SCS Same-Spin Scale       =       0.3333333333333333 [-]
	 SCS Opposite-Spin Scale   =       1.2000000000000000 [-]
	 SCS Same-Spin Energy      =      -0.1363673380700085 [Eh]
	 SCS Opposite-Spin Energy  =      -1.5794058932604722 [Eh]
	 SCS Correlation Energy    =      -1.7157732313304808 [Eh]
	 SCS Total Energy          =    -385.4605187243594173 [Eh]
	-----------------------------------------------------------

  Dipole Moment: [D]
     X:     0.8710      Y:     1.1166      Z:    -0.1355     Total:     1.4226

*** Psi4 exiting successfully. Buy a developer a beer!
