                               Psi4 1.4a2.dev612

  ==> Input File <==

--------------------------------------------------------------------------
#psi4
#
memory 32 gb

molecule  {
0 1
  O        1.2764910    -0.5580180    -0.0000140
  C       -0.0526320    -0.2163280    -0.0000090
  C        2.2283480     0.5091050    -0.0000050
  C       -0.5417410     1.0945740     0.0000030
  C       -0.9442276    -1.2979990     0.0500050
  C        3.5986500    -0.1324730     0.0000120
  C       -1.9250240     1.3079840    -0.0000030
  C       -2.3159710    -1.0695280    -0.0000020
  C       -2.8161410     0.2373500     0.0000110
  H        2.0858520     1.1373040    -0.8891130
  H        2.0858350     1.1373010     0.8891040
  H        0.1282520     1.9474600    -0.0000130
  H       -0.5338010    -2.3041010    -0.0000080
  H        4.3764260     0.6364270     0.0000070
  H        3.7225630    -0.7572470     0.8867960
  H        3.7225780    -0.7572730    -0.8867510
  H       -2.3006170     2.3287260     0.0000070
  H       -2.9984970    -1.9161460     0.0000120
  H       -3.8880810     0.4155830     0.0000010
units angstrom
no_reorient  #important for SAPT in psi4, default
symmetry c1  #important for SAPT in psi4, default
}

set PROPERTIES_ORIGIN ["COM"]
properties('MP2/aug-cc-pvtz', properties = ['dipole'])
--------------------------------------------------------------------------

    Molecular point group: c1
  Charge       = 0
  Multiplicity = 1
  Basis Set: AUG-CC-PVTZ
    Blend: AUG-CC-PVTZ
  Basis Set: (AUG-CC-PVTZ AUX)
    Blend: AUG-CC-PVTZ-JKFIT

    Orbital Energies [Eh]
    ---------------------

    Doubly Occupied:

       1A    -20.581534     2A    -11.300063     3A    -11.287464
       4A    -11.240071     5A    -11.238656     6A    -11.231458
       7A    -11.226723     8A    -11.226116     9A    -11.221536
      10A     -1.403085    11A     -1.144248    12A     -1.043709
      13A     -1.014837    14A     -0.985457    15A     -0.869270
      16A     -0.823348    17A     -0.800473    18A     -0.721329
      19A     -0.668627    20A     -0.664926    21A     -0.648250
      22A     -0.614011    23A     -0.586136    24A     -0.560883
      25A     -0.560020    26A     -0.545435    27A     -0.514230
      28A     -0.505452    29A     -0.501388    30A     -0.478920
      31A     -0.462079    32A     -0.338700    33A     -0.310936

  @DF-RHF Final Energy:  -383.75588985935553

   => Energetics <=

    Nuclear Repulsion Energy =            418.7477270963320848
    One-Electron Energy =               -1350.3684956682686789
    Two-Electron Energy =                 547.8648787125811168
    Total Energy =                       -383.7558898593555341
  Basis Set: (AUG-CC-PVTZ AUX)
    Blend: AUG-CC-PVTZ-RI
    Molecular point group: c1

    Geometry (in Angstrom), charge = 0, multiplicity = 1:

       Center              X                  Y                   Z               Mass
    ------------   -----------------  -----------------  -----------------  -----------------
         O            1.328565544380    -0.542858412380    -0.004928777135    15.994914619570
         C           -0.000557455620    -0.201168412380    -0.004923777135    12.000000000000
         C            2.280422544380     0.524264587620    -0.004919777135    12.000000000000
         C           -0.489666455620     1.109733587620    -0.004911777135    12.000000000000
         C           -0.892153055620    -1.282839412380     0.045090222865    12.000000000000
         C            3.650724544380    -0.117313412380    -0.004902777135    12.000000000000
         C           -1.872949455620     1.323143587620    -0.004917777135    12.000000000000
         C           -2.263896455620    -1.054368412380    -0.004916777135    12.000000000000
         C           -2.764066455620     0.252509587620    -0.004903777135    12.000000000000
         H            2.137926544380     1.152463587620    -0.894027777135     1.007825032230
         H            2.137909544380     1.152460587620     0.884189222865     1.007825032230
         H            0.180326544380     1.962619587620    -0.004927777135     1.007825032230
         H           -0.481726455620    -2.288941412380    -0.004922777135     1.007825032230
         H            4.428500544380     0.651586587620    -0.004907777135     1.007825032230
         H            3.774637544380    -0.742087412380     0.881881222865     1.007825032230
         H            3.774652544380    -0.742113412380    -0.891665777135     1.007825032230
         H           -2.248542455620     2.343885587620    -0.004907777135     1.007825032230
         H           -2.946422455620    -1.900986412380    -0.004902777135     1.007825032230
         H           -3.836006455620     0.430742587620    -0.004913777135     1.007825032230

  Basis Set: AUG-CC-PVTZ
    Blend: AUG-CC-PVTZ
  Basis Set: (AUG-CC-PVTZ AUX)
    Blend: AUG-CC-PVTZ-JKFIT
	 Reference Energy          =    -383.7558898593555341 [Eh]
	 Singles Energy            =      -0.0000000000000000 [Eh]
	 Same-Spin Energy          =      -0.4086005111476393 [Eh]
	 Opposite-Spin Energy      =      -1.3145316652600825 [Eh]
	 Correlation Energy        =      -1.7231321764077219 [Eh]
	 Total Energy              =    -385.4790220357632506 [Eh]

	 ================> DF-SCS-MP2 Energies <==================
	-----------------------------------------------------------
	 SCS Same-Spin Scale       =       0.3333333333333333 [-]
	 SCS Opposite-Spin Scale   =       1.2000000000000000 [-]
	 SCS Same-Spin Energy      =      -0.1362001703825464 [Eh]
	 SCS Opposite-Spin Energy  =      -1.5774379983120990 [Eh]
	 SCS Correlation Energy    =      -1.7136381686946454 [Eh]
	 SCS Total Energy          =    -385.4695280280502061 [Eh]
	-----------------------------------------------------------

  Dipole Moment: [D]
     X:     0.8799      Y:     1.0351      Z:    -0.0328     Total:     1.3589

*** Psi4 exiting successfully. Buy a developer a beer!
