                               Psi4 1.4a2.dev612

  ==> Input File <==

--------------------------------------------------------------------------
#psi4
#
memory 32 gb

molecule  {
0 1
  O        1.2764910    -0.5580180    -0.0000140
  C       -0.0526320    -0.2163280    -0.0000090
  C        2.2283480     0.5091050    -0.0000050
  C       -0.5417410     1.0945740     0.0000030
  C       -0.9442254    -1.2979992     0.3000050
  C        3.5986500    -0.1324730     0.0000120
  C       -1.9250240     1.3079840    -0.0000030
  C       -2.3159710    -1.0695280    -0.0000020
  C       -2.8161410     0.2373500     0.0000110
  H        2.0858520     1.1373040    -0.8891130
  H        2.0858350     1.1373010     0.8891040
  H        0.1282520     1.9474600    -0.0000130
  H       -0.5338010    -2.3041010    -0.0000080
  H        4.3764260     0.6364270     0.0000070
  H        3.7225630    -0.7572470     0.8867960
  H        3.7225780    -0.7572730    -0.8867510
  H       -2.3006170     2.3287260     0.0000070
  H       -2.9984970    -1.9161460     0.0000120
  H       -3.8880810     0.4155830     0.0000010
units angstrom
no_reorient  #important for SAPT in psi4, default
symmetry c1  #important for SAPT in psi4, default
}

set PROPERTIES_ORIGIN ["COM"]
properties('MP2/aug-cc-pvtz', properties = ['dipole'])
--------------------------------------------------------------------------

    Molecular point group: c1
  Charge       = 0
  Multiplicity = 1
  Basis Set: AUG-CC-PVTZ
    Blend: AUG-CC-PVTZ
  Basis Set: (AUG-CC-PVTZ AUX)
    Blend: AUG-CC-PVTZ-JKFIT

    Orbital Energies [Eh]
    ---------------------

    Doubly Occupied:

       1A    -20.583694     2A    -11.307107     3A    -11.288075
       4A    -11.245637     5A    -11.244884     6A    -11.233021
       7A    -11.231357     8A    -11.225900     9A    -11.221902
      10A     -1.404579    11A     -1.141886    12A     -1.043584
      13A     -1.012343    14A     -0.983978    15A     -0.868457
      16A     -0.822444    17A     -0.797753    18A     -0.720212
      19A     -0.669823    20A     -0.661467    21A     -0.645138
      22A     -0.612101    23A     -0.581021    24A     -0.560133
      25A     -0.556667    26A     -0.545943    27A     -0.512061
      28A     -0.504050    29A     -0.499328    30A     -0.474402
      31A     -0.460329    32A     -0.338156    33A     -0.311087

  @DF-RHF Final Energy:  -383.72958146102400

   => Energetics <=

    Nuclear Repulsion Energy =            417.7592822390234915
    One-Electron Energy =               -1348.3606910986804905
    Two-Electron Energy =                 546.8718273986329450
    Total Energy =                       -383.7295814610240541
  Basis Set: (AUG-CC-PVTZ AUX)
    Blend: AUG-CC-PVTZ-RI
    Molecular point group: c1

    Geometry (in Angstrom), charge = 0, multiplicity = 1:

       Center              X                  Y                   Z               Mass
    ------------   -----------------  -----------------  -----------------  -----------------
         O            1.328565328116    -0.542858392720    -0.029504202876    15.994914619570
         C           -0.000557671884    -0.201168392720    -0.029499202876    12.000000000000
         C            2.280422328116     0.524264607280    -0.029495202876    12.000000000000
         C           -0.489666671884     1.109733607280    -0.029487202876    12.000000000000
         C           -0.892151071884    -1.282839592720     0.270514797124    12.000000000000
         C            3.650724328116    -0.117313392720    -0.029478202876    12.000000000000
         C           -1.872949671884     1.323143607280    -0.029493202876    12.000000000000
         C           -2.263896671884    -1.054368392720    -0.029492202876    12.000000000000
         C           -2.764066671884     0.252509607280    -0.029479202876    12.000000000000
         H            2.137926328116     1.152463607280    -0.918603202876     1.007825032230
         H            2.137909328116     1.152460607280     0.859613797124     1.007825032230
         H            0.180326328116     1.962619607280    -0.029503202876     1.007825032230
         H           -0.481726671884    -2.288941392720    -0.029498202876     1.007825032230
         H            4.428500328116     0.651586607280    -0.029483202876     1.007825032230
         H            3.774637328116    -0.742087392720     0.857305797124     1.007825032230
         H            3.774652328116    -0.742113392720    -0.916241202876     1.007825032230
         H           -2.248542671884     2.343885607280    -0.029483202876     1.007825032230
         H           -2.946422671884    -1.900986392720    -0.029478202876     1.007825032230
         H           -3.836006671884     0.430742607280    -0.029489202876     1.007825032230

  Basis Set: AUG-CC-PVTZ
    Blend: AUG-CC-PVTZ
  Basis Set: (AUG-CC-PVTZ AUX)
    Blend: AUG-CC-PVTZ-JKFIT
	 Reference Energy          =    -383.7295814610239972 [Eh]
	 Singles Energy            =      -0.0000000000000000 [Eh]
	 Same-Spin Energy          =      -0.4097255837199170 [Eh]
	 Opposite-Spin Energy      =      -1.3183348630791938 [Eh]
	 Correlation Energy        =      -1.7280604467991107 [Eh]
	 Total Energy              =    -385.4576419078231311 [Eh]

	 ================> DF-SCS-MP2 Energies <==================
	-----------------------------------------------------------
	 SCS Same-Spin Scale       =       0.3333333333333333 [-]
	 SCS Opposite-Spin Scale   =       1.2000000000000000 [-]
	 SCS Same-Spin Energy      =      -0.1365751945733056 [Eh]
	 SCS Opposite-Spin Energy  =      -1.5820018356950325 [Eh]
	 SCS Correlation Energy    =      -1.7185770302683381 [Eh]
	 SCS Total Energy          =    -385.4481584912923608 [Eh]
	-----------------------------------------------------------

  Dipole Moment: [D]
     X:     0.8610      Y:     1.2226      Z:    -0.2096     Total:     1.5100

*** Psi4 exiting successfully. Buy a developer a beer!
