                               Psi4 1.3.2 release

  ==> Input File <==

--------------------------------------------------------------------------
#psi4
#
memory 32 gb

molecule  {
-1 1
  O       -0.4223990     1.5478120    -0.0024970
  O        2.2587260     0.7160740     0.0027440
  O        1.4389110    -1.4330490    -0.0022200
  C       -1.1980010    -0.7166360     0.0011530
  C       -2.6041790    -0.1343280     0.0009050
  C       -0.1615313     0.5472897    -0.0008815
  C        1.3671270    -0.1674410     0.0000880
  H       -1.0203320    -1.3658690    -0.8629620
  H       -1.0198480    -1.3637170     0.8668160
  H       -2.7610710     0.4967440    -0.8780030
  H       -3.3633830    -0.9249560     0.0021580
  H       -2.7605070     0.4989750     0.8783160
units angstrom
no_reorient  #important for SAPT in psi4, default
symmetry c1  #important for SAPT in psi4, default
}

set PROPERTIES_ORIGIN ["COM"]
properties('MP2/aug-cc-pvtz', properties = ['dipole'])
--------------------------------------------------------------------------

    Molecular point group: c1
  Charge       = -1
  Multiplicity = 1
  Basis Set: AUG-CC-PVTZ
    Blend: AUG-CC-PVTZ
  Basis Set: (AUG-CC-PVTZ AUX)
    Blend: AUG-CC-PVTZ-JKFIT

    Orbital Energies [Eh]
    ---------------------

    Doubly Occupied:

       1A    -20.415104     2A    -20.316872     3A    -20.311058
       4A    -11.154486     5A    -11.153731     6A    -11.090788
       7A    -11.075994     8A     -1.379335     9A     -1.175928
      10A     -1.084549    11A     -0.896404    12A     -0.734804
      13A     -0.630040    14A     -0.576202    15A     -0.535827
      16A     -0.502094    17A     -0.471675    18A     -0.448349
      19A     -0.419023    20A     -0.404546    21A     -0.377790
      22A     -0.364831    23A     -0.349478    24A     -0.314805
      25A     -0.230783    26A     -0.209115    27A     -0.155465

  @DF-RHF Final Energy:  -379.08459398527464

   => Energetics <=

    Nuclear Repulsion Energy =            286.0326271497444282
    One-Electron Energy =               -1096.6762893966345018
    Two-Electron Energy =                 431.5590682616153799
    Total Energy =                       -379.0845939852746369
  Basis Set: (AUG-CC-PVTZ AUX)
    Blend: AUG-CC-PVTZ-RI
    Molecular point group: c1

    Geometry (in Angstrom), charge = -1, multiplicity = 1:

       Center              X                  Y                   Z               Mass
    ------------   -----------------  -----------------  -----------------  -----------------
         O           -0.523538563229     1.498752753406    -0.002397919720    15.994914619570
         O            2.157586436771     0.667014753406     0.002843080280    15.994914619570
         O            1.337771436771    -1.482108246594    -0.002120919720    15.994914619570
         C           -1.299140563229    -0.765695246594     0.001252080280    12.000000000000
         C           -2.705318563229    -0.183387246594     0.001004080280    12.000000000000
         C           -0.262670863229     0.498230453406    -0.000782419720    12.000000000000
         C            1.265987436771    -0.216500246594     0.000187080280    12.000000000000
         H           -1.121471563229    -1.414928246594    -0.862862919720     1.007825032230
         H           -1.120987563229    -1.412776246594     0.866915080280     1.007825032230
         H           -2.862210563229     0.447684753406    -0.877903919720     1.007825032230
         H           -3.464522563229    -0.974015246594     0.002257080280     1.007825032230
         H           -2.861646563229     0.449915753406     0.878415080280     1.007825032230

  Basis Set: AUG-CC-PVTZ
    Blend: AUG-CC-PVTZ
  Basis Set: (AUG-CC-PVTZ AUX)
    Blend: AUG-CC-PVTZ-JKFIT
	 Reference Energy          =    -379.0845939852746369 [Eh]
	 Singles Energy            =      -0.0000000000000000 [Eh]
	 Same-Spin Energy          =      -0.3701558656006323 [Eh]
	 Opposite-Spin Energy      =      -1.1306486606459769 [Eh]
	 Correlation Energy        =      -1.5008045262466092 [Eh]
	 Total Energy              =    -380.5853985115212481 [Eh]

	 ================> DF-SCS-MP2 Energies <==================
	-----------------------------------------------------------
	 SCS Same-Spin Scale       =       0.3333333333333333 [-]
	 SCS Opposite-Spin Scale   =       1.2000000000000000 [-]
	 SCS Same-Spin Energy      =      -0.1233852885335441 [Eh]
	 SCS Opposite-Spin Energy  =      -1.3567783927751722 [Eh]
	 SCS Correlation Energy    =      -1.4801636813087162 [Eh]
	 SCS Total Energy          =    -380.5647576665833753 [Eh]
	-----------------------------------------------------------

  Dipole Moment: [D]
     X:    -6.5299      Y:     0.3561      Z:    -0.0003     Total:     6.5396

*** Psi4 exiting successfully. Buy a developer a beer!
