                               Psi4 1.3.2 release

  ==> Input File <==

--------------------------------------------------------------------------
#psi4
#
memory 32 gb

molecule  {
-1 1
  O       -0.4223990     1.5478120    -0.0024970
  O        2.2587260     0.7160740     0.0027440
  O        1.4389110    -1.4330490    -0.0022200
  C       -1.1980010    -0.7166360     0.0011530
  C       -2.5938022    -0.1098755     0.0008706
  C       -0.1110720     0.3537600    -0.0005690
  C        1.3671270    -0.1674410     0.0000880
  H       -1.0203320    -1.3658690    -0.8629620
  H       -1.0198480    -1.3637170     0.8668160
  H       -2.7610710     0.4967440    -0.8780030
  H       -3.3633830    -0.9249560     0.0021580
  H       -2.7605070     0.4989750     0.8783160
units angstrom
no_reorient  #important for SAPT in psi4, default
symmetry c1  #important for SAPT in psi4, default
}

set PROPERTIES_ORIGIN ["COM"]
properties('MP2/aug-cc-pvtz', properties = ['dipole'])
--------------------------------------------------------------------------

    Molecular point group: c1
  Charge       = -1
  Multiplicity = 1
  Basis Set: AUG-CC-PVTZ
    Blend: AUG-CC-PVTZ
  Basis Set: (AUG-CC-PVTZ AUX)
    Blend: AUG-CC-PVTZ-JKFIT

    Orbital Energies [Eh]
    ---------------------

    Doubly Occupied:

       1A    -20.398958     2A    -20.322182     3A    -20.318084
       4A    -11.172270     5A    -11.164413     6A    -11.098460
       7A    -11.094599     8A     -1.226050     9A     -1.181963
      10A     -1.092940    11A     -0.914385    12A     -0.771353
      13A     -0.656667    14A     -0.544511    15A     -0.494873
      16A     -0.490452    17A     -0.470818    18A     -0.419961
      19A     -0.404353    20A     -0.393130    21A     -0.383107
      22A     -0.362979    23A     -0.332077    24A     -0.311072
      25A     -0.237223    26A     -0.213637    27A     -0.208559

  @DF-RHF Final Energy:  -379.15138374584370

   => Energetics <=

    Nuclear Repulsion Energy =            284.9195849765332014
    One-Electron Energy =               -1094.7837858041659729
    Two-Electron Energy =                 430.7128170817890691
    Total Energy =                       -379.1513837458437024
  Basis Set: (AUG-CC-PVTZ AUX)
    Blend: AUG-CC-PVTZ-RI
    Molecular point group: c1

    Geometry (in Angstrom), charge = -1, multiplicity = 1:

       Center              X                  Y                   Z               Mass
    ------------   -----------------  -----------------  -----------------  -----------------
         O           -0.530764906934     1.518836387301    -0.002430953498    15.994914619570
         O            2.150360093066     0.687098387301     0.002810046502    15.994914619570
         O            1.330545093066    -1.462024612699    -0.002153953498    15.994914619570
         C           -1.306366906934    -0.745611612699     0.001219046502    12.000000000000
         C           -2.702168106934    -0.138851112699     0.000936646502    12.000000000000
         C           -0.219437906934     0.324784387301    -0.000502953498    12.000000000000
         C            1.258761093066    -0.196416612699     0.000154046502    12.000000000000
         H           -1.128697906934    -1.394844612699    -0.862895953498     1.007825032230
         H           -1.128213906934    -1.392692612699     0.866882046502     1.007825032230
         H           -2.869436906934     0.467768387301    -0.877936953498     1.007825032230
         H           -3.471748906934    -0.953931612699     0.002224046502     1.007825032230
         H           -2.868872906934     0.469999387301     0.878382046502     1.007825032230

  Basis Set: AUG-CC-PVTZ
    Blend: AUG-CC-PVTZ
  Basis Set: (AUG-CC-PVTZ AUX)
    Blend: AUG-CC-PVTZ-JKFIT
	 Reference Energy          =    -379.1513837458437024 [Eh]
	 Singles Energy            =      -0.0000000000000000 [Eh]
	 Same-Spin Energy          =      -0.3736632557292109 [Eh]
	 Opposite-Spin Energy      =      -1.1395533245075464 [Eh]
	 Correlation Energy        =      -1.5132165802367574 [Eh]
	 Total Energy              =    -380.6646003260804605 [Eh]

	 ================> DF-SCS-MP2 Energies <==================
	-----------------------------------------------------------
	 SCS Same-Spin Scale       =       0.3333333333333333 [-]
	 SCS Opposite-Spin Scale   =       1.2000000000000000 [-]
	 SCS Same-Spin Energy      =      -0.1245544185764036 [Eh]
	 SCS Opposite-Spin Energy  =      -1.3674639894090557 [Eh]
	 SCS Correlation Energy    =      -1.4920184079854593 [Eh]
	 SCS Total Energy          =    -380.6434021538291859 [Eh]
	-----------------------------------------------------------

  Dipole Moment: [D]
     X:    -6.5602      Y:    -0.7965      Z:     0.0023     Total:     6.6084

*** Psi4 exiting successfully. Buy a developer a beer!
