                               Psi4 1.3.2 release

  ==> Input File <==

--------------------------------------------------------------------------
#psi4
#
memory 32 gb

molecule  {
-1 1
  O       -0.4223990     1.5478120    -0.0024970
  O        2.2587260     0.7160740     0.0027440
  O        1.4389110    -1.4330490    -0.0022200
  C       -1.1980010    -0.7166360     0.0011530
  C       -2.6041790    -0.1343280     0.0009050
  C       -0.1797911     0.4118427     0.1313438
  C        1.3671270    -0.1674410     0.0000880
  H       -1.0203320    -1.3658690    -0.8629620
  H       -1.0198480    -1.3637170     0.8668160
  H       -2.7610710     0.4967440    -0.8780030
  H       -3.3633830    -0.9249560     0.0021580
  H       -2.7605070     0.4989750     0.8783160
units angstrom
no_reorient  #important for SAPT in psi4, default
symmetry c1  #important for SAPT in psi4, default
}

set PROPERTIES_ORIGIN ["COM"]
properties('MP2/aug-cc-pvtz', properties = ['dipole'])
--------------------------------------------------------------------------

    Molecular point group: c1
  Charge       = -1
  Multiplicity = 1
  Basis Set: AUG-CC-PVTZ
    Blend: AUG-CC-PVTZ
  Basis Set: (AUG-CC-PVTZ AUX)
    Blend: AUG-CC-PVTZ-JKFIT

    Orbital Energies [Eh]
    ---------------------

    Doubly Occupied:

       1A    -20.403236     2A    -20.318701     3A    -20.314762
       4A    -11.164432     5A    -11.161992     6A    -11.097072
       7A    -11.091032     8A     -1.267487     9A     -1.178688
      10A     -1.087995    11A     -0.914796    12A     -0.761555
      13A     -0.633864    14A     -0.551630    15A     -0.504607
      16A     -0.492701    17A     -0.470879    18A     -0.418882
      19A     -0.406206    20A     -0.398494    21A     -0.384340
      22A     -0.358209    23A     -0.350437    24A     -0.319765
      25A     -0.233142    26A     -0.211178    27A     -0.185293

  @DF-RHF Final Energy:  -379.14266669024499

   => Energetics <=

    Nuclear Repulsion Energy =            284.7685968905921072
    One-Electron Energy =               -1094.4597736786456608
    Two-Electron Energy =                 430.5485100978085597
    Total Energy =                       -379.1426666902449938
  Basis Set: (AUG-CC-PVTZ AUX)
    Blend: AUG-CC-PVTZ-RI
    Molecular point group: c1

    Geometry (in Angstrom), charge = -1, multiplicity = 1:

       Center              X                  Y                   Z               Mass
    ------------   -----------------  -----------------  -----------------  -----------------
         O           -0.521369594626     1.514841664035    -0.018104144550    15.994914619570
         O            2.159755405374     0.683103664035    -0.012863144550    15.994914619570
         O            1.339940405374    -1.466019335965    -0.017827144550    15.994914619570
         C           -1.296971594626    -0.749606335965    -0.014454144550    12.000000000000
         C           -2.703149594626    -0.167298335965    -0.014702144550    12.000000000000
         C           -0.278761694626     0.378872364035     0.115736655450    12.000000000000
         C            1.268156405374    -0.200411335965    -0.015519144550    12.000000000000
         H           -1.119302594626    -1.398839335965    -0.878569144550     1.007825032230
         H           -1.118818594626    -1.396687335965     0.851208855450     1.007825032230
         H           -2.860041594626     0.463773664035    -0.893610144550     1.007825032230
         H           -3.462353594626    -0.957926335965    -0.013449144550     1.007825032230
         H           -2.859477594626     0.466004664035     0.862708855450     1.007825032230

  Basis Set: AUG-CC-PVTZ
    Blend: AUG-CC-PVTZ
  Basis Set: (AUG-CC-PVTZ AUX)
    Blend: AUG-CC-PVTZ-JKFIT
	 Reference Energy          =    -379.1426666902449938 [Eh]
	 Singles Energy            =      -0.0000000000000000 [Eh]
	 Same-Spin Energy          =      -0.3726919082967605 [Eh]
	 Opposite-Spin Energy      =      -1.1369040481120511 [Eh]
	 Correlation Energy        =      -1.5095959564088117 [Eh]
	 Total Energy              =    -380.6522626466538100 [Eh]

	 ================> DF-SCS-MP2 Energies <==================
	-----------------------------------------------------------
	 SCS Same-Spin Scale       =       0.3333333333333333 [-]
	 SCS Opposite-Spin Scale   =       1.2000000000000000 [-]
	 SCS Same-Spin Energy      =      -0.1242306360989202 [Eh]
	 SCS Opposite-Spin Energy  =      -1.3642848577344613 [Eh]
	 SCS Correlation Energy    =      -1.4885154938333813 [Eh]
	 SCS Total Energy          =    -380.6311821840783978 [Eh]
	-----------------------------------------------------------

  Dipole Moment: [D]
     X:    -6.7356      Y:    -0.5691      Z:     0.1891     Total:     6.7623

*** Psi4 exiting successfully. Buy a developer a beer!
