                               Psi4 1.3.2 release

  ==> Input File <==

--------------------------------------------------------------------------
#psi4
#
memory 32 gb

molecule  {
-1 1
  O       -0.4223990     1.5478120    -0.0024970
  O        2.2587260     0.7160740     0.0027440
  O        1.4389110    -1.4330490    -0.0022200
  C       -1.2346952    -0.6780507     0.0010978
  C       -2.6041790    -0.1343280     0.0009050
  C       -0.1110720     0.3537600    -0.0005690
  C        1.3671270    -0.1674410     0.0000880
  H       -1.0203320    -1.3658690    -0.8629620
  H       -1.0198480    -1.3637170     0.8668160
  H       -2.7610710     0.4967440    -0.8780030
  H       -3.3633830    -0.9249560     0.0021580
  H       -2.7605070     0.4989750     0.8783160
units angstrom
no_reorient  #important for SAPT in psi4, default
symmetry c1  #important for SAPT in psi4, default
}

set PROPERTIES_ORIGIN ["COM"]
properties('MP2/aug-cc-pvtz', properties = ['dipole'])
--------------------------------------------------------------------------

    Molecular point group: c1
  Charge       = -1
  Multiplicity = 1
  Basis Set: AUG-CC-PVTZ
    Blend: AUG-CC-PVTZ
  Basis Set: (AUG-CC-PVTZ AUX)
    Blend: AUG-CC-PVTZ-JKFIT

    Orbital Energies [Eh]
    ---------------------

    Doubly Occupied:

       1A    -20.397157     2A    -20.322568     3A    -20.319160
       4A    -11.172361     5A    -11.166318     6A    -11.097402
       7A    -11.096553     8A     -1.225753     9A     -1.182454
      10A     -1.093545    11A     -0.922075    12A     -0.770489
      13A     -0.654494    14A     -0.545016    15A     -0.492099
      16A     -0.490335    17A     -0.471872    18A     -0.427102
      19A     -0.407332    20A     -0.401282    21A     -0.381023
      22A     -0.353262    23A     -0.327120    24A     -0.309072
      25A     -0.238067    26A     -0.214091    27A     -0.209751

  @DF-RHF Final Energy:  -379.14833192491182

   => Energetics <=

    Nuclear Repulsion Energy =            284.9639247882837481
    One-Electron Energy =               -1094.8490049654678842
    Two-Electron Energy =                 430.7367482522723208
    Total Energy =                       -379.1483319249118153
  Basis Set: (AUG-CC-PVTZ AUX)
    Blend: AUG-CC-PVTZ-RI
    Molecular point group: c1

    Geometry (in Angstrom), charge = -1, multiplicity = 1:

       Center              X                  Y                   Z               Mass
    ------------   -----------------  -----------------  -----------------  -----------------
         O           -0.525173634243     1.517157639479    -0.002428482794    15.994914619570
         O            2.155951365757     0.685419639479     0.002812517206    15.994914619570
         O            1.336136365757    -1.463703360521    -0.002151482794    15.994914619570
         C           -1.337469834243    -0.708705060521     0.001166317206    12.000000000000
         C           -2.706953634243    -0.164982360521     0.000973517206    12.000000000000
         C           -0.213846634243     0.323105639479    -0.000500482794    12.000000000000
         C            1.264352365757    -0.198095360521     0.000156517206    12.000000000000
         H           -1.123106634243    -1.396523360521    -0.862893482794     1.007825032230
         H           -1.122622634243    -1.394371360521     0.866884517206     1.007825032230
         H           -2.863845634243     0.466089639479    -0.877934482794     1.007825032230
         H           -3.466157634243    -0.955610360521     0.002226517206     1.007825032230
         H           -2.863281634243     0.468320639479     0.878384517206     1.007825032230

  Basis Set: AUG-CC-PVTZ
    Blend: AUG-CC-PVTZ
  Basis Set: (AUG-CC-PVTZ AUX)
    Blend: AUG-CC-PVTZ-JKFIT
	 Reference Energy          =    -379.1483319249118153 [Eh]
	 Singles Energy            =      -0.0000000000000000 [Eh]
	 Same-Spin Energy          =      -0.3741394117764509 [Eh]
	 Opposite-Spin Energy      =      -1.1400434861164881 [Eh]
	 Correlation Energy        =      -1.5141828978929390 [Eh]
	 Total Energy              =    -380.6625148228047806 [Eh]

	 ================> DF-SCS-MP2 Energies <==================
	-----------------------------------------------------------
	 SCS Same-Spin Scale       =       0.3333333333333333 [-]
	 SCS Opposite-Spin Scale   =       1.2000000000000000 [-]
	 SCS Same-Spin Energy      =      -0.1247131372588170 [Eh]
	 SCS Opposite-Spin Energy  =      -1.3680521833397856 [Eh]
	 SCS Correlation Energy    =      -1.4927653205986027 [Eh]
	 SCS Total Energy          =    -380.6410972455104229 [Eh]
	-----------------------------------------------------------

  Dipole Moment: [D]
     X:    -6.6174      Y:    -0.8086      Z:     0.0023     Total:     6.6666

*** Psi4 exiting successfully. Buy a developer a beer!
