                               Psi4 1.3.2 release

  ==> Input File <==

--------------------------------------------------------------------------
#psi4
#
memory 32 gb

molecule  {
-1 1
  O       -0.4223990     1.5478120    -0.0024970
  O        2.2587260     0.7160740     0.0027440
  O        1.4168121    -1.4341090    -0.0022465
  C       -1.1980010    -0.7166360     0.0011530
  C       -2.6041790    -0.1343280     0.0009050
  C       -0.1110720     0.3537600    -0.0005690
  C        1.3671270    -0.1674410     0.0000880
  H       -1.0203320    -1.3658690    -0.8629620
  H       -1.0198480    -1.3637170     0.8668160
  H       -2.7610710     0.4967440    -0.8780030
  H       -3.3633830    -0.9249560     0.0021580
  H       -2.7605070     0.4989750     0.8783160
units angstrom
no_reorient  #important for SAPT in psi4, default
symmetry c1  #important for SAPT in psi4, default
}

set PROPERTIES_ORIGIN ["COM"]
properties('MP2/aug-cc-pvtz', properties = ['dipole'])
--------------------------------------------------------------------------

    Molecular point group: c1
  Charge       = -1
  Multiplicity = 1
  Basis Set: AUG-CC-PVTZ
    Blend: AUG-CC-PVTZ
  Basis Set: (AUG-CC-PVTZ AUX)
    Blend: AUG-CC-PVTZ-JKFIT

    Orbital Energies [Eh]
    ---------------------

    Doubly Occupied:

       1A    -20.398038     2A    -20.322904     3A    -20.319446
       4A    -11.171287     5A    -11.165238     6A    -11.097614
       7A    -11.093536     8A     -1.225307     9A     -1.182151
      10A     -1.094944    11A     -0.913340    12A     -0.770478
      13A     -0.656032    14A     -0.544113    15A     -0.491252
      16A     -0.491183    17A     -0.470766    18A     -0.423386
      19A     -0.401608    20A     -0.397662    21A     -0.380866
      22A     -0.360316    23A     -0.331368    24A     -0.310540
      25A     -0.238946    26A     -0.214935    27A     -0.207903

  @DF-RHF Final Energy:  -379.15180896919560

   => Energetics <=

    Nuclear Repulsion Energy =            284.9468342815139863
    One-Electron Energy =               -1094.8469698779429109
    Two-Electron Energy =                 430.7483266272333822
    Total Energy =                       -379.1518089691955993
  Basis Set: (AUG-CC-PVTZ AUX)
    Blend: AUG-CC-PVTZ-RI
    Molecular point group: c1

    Geometry (in Angstrom), charge = -1, multiplicity = 1:

       Center              X                  Y                   Z               Mass
    ------------   -----------------  -----------------  -----------------  -----------------
         O           -0.526033434824     1.521908776158    -0.002430843967    15.994914619570
         O            2.155091565176     0.690170776158     0.002810156033    15.994914619570
         O            1.313177665176    -1.460012223842    -0.002180343967    15.994914619570
         C           -1.301635434824    -0.742539223842     0.001219156033    12.000000000000
         C           -2.707813434824    -0.160231223842     0.000971156033    12.000000000000
         C           -0.214706434824     0.327856776158    -0.000502843967    12.000000000000
         C            1.263492565176    -0.193344223842     0.000154156033    12.000000000000
         H           -1.123966434824    -1.391772223842    -0.862895843967     1.007825032230
         H           -1.123482434824    -1.389620223842     0.866882156033     1.007825032230
         H           -2.864705434824     0.470840776158    -0.877936843967     1.007825032230
         H           -3.467017434824    -0.950859223842     0.002224156033     1.007825032230
         H           -2.864141434824     0.473071776158     0.878382156033     1.007825032230

  Basis Set: AUG-CC-PVTZ
    Blend: AUG-CC-PVTZ
  Basis Set: (AUG-CC-PVTZ AUX)
    Blend: AUG-CC-PVTZ-JKFIT
	 Reference Energy          =    -379.1518089691955993 [Eh]
	 Singles Energy            =      -0.0000000000000000 [Eh]
	 Same-Spin Energy          =      -0.3737311811255642 [Eh]
	 Opposite-Spin Energy      =      -1.1396300980314686 [Eh]
	 Correlation Energy        =      -1.5133612791570328 [Eh]
	 Total Energy              =    -380.6651702483526378 [Eh]

	 ================> DF-SCS-MP2 Energies <==================
	-----------------------------------------------------------
	 SCS Same-Spin Scale       =       0.3333333333333333 [-]
	 SCS Opposite-Spin Scale   =       1.2000000000000000 [-]
	 SCS Same-Spin Energy      =      -0.1245770603751881 [Eh]
	 SCS Opposite-Spin Energy  =      -1.3675561176377624 [Eh]
	 SCS Correlation Energy    =      -1.4921331780129505 [Eh]
	 SCS Total Energy          =    -380.6439421472085769 [Eh]
	-----------------------------------------------------------

  Dipole Moment: [D]
     X:    -6.5031      Y:    -0.8392      Z:     0.0024     Total:     6.5571

*** Psi4 exiting successfully. Buy a developer a beer!
