                               Psi4 1.3.2 release

  ==> Input File <==

--------------------------------------------------------------------------
#psi4
#
memory 32 gb

molecule  {
-1 1
  O       -0.4223990     1.5478120    -0.0024970
  O        2.2740097     0.7003789     0.0027314
  O        1.4389110    -1.4330490    -0.0022200
  C       -1.1980010    -0.7166360     0.0011530
  C       -2.6041790    -0.1343280     0.0009050
  C       -0.1110720     0.3537600    -0.0005690
  C        1.3671270    -0.1674410     0.0000880
  H       -1.0203320    -1.3658690    -0.8629620
  H       -1.0198480    -1.3637170     0.8668160
  H       -2.7610710     0.4967440    -0.8780030
  H       -3.3633830    -0.9249560     0.0021580
  H       -2.7605070     0.4989750     0.8783160
units angstrom
no_reorient  #important for SAPT in psi4, default
symmetry c1  #important for SAPT in psi4, default
}

set PROPERTIES_ORIGIN ["COM"]
properties('MP2/aug-cc-pvtz', properties = ['dipole'])
--------------------------------------------------------------------------

    Molecular point group: c1
  Charge       = -1
  Multiplicity = 1
  Basis Set: AUG-CC-PVTZ
    Blend: AUG-CC-PVTZ
  Basis Set: (AUG-CC-PVTZ AUX)
    Blend: AUG-CC-PVTZ-JKFIT

    Orbital Energies [Eh]
    ---------------------

    Doubly Occupied:

       1A    -20.400002     2A    -20.321057     3A    -20.317597
       4A    -11.173996     5A    -11.164204     6A    -11.098725
       7A    -11.095055     8A     -1.226708     9A     -1.182193
      10A     -1.091375    11A     -0.914732    12A     -0.772074
      13A     -0.657348    14A     -0.545489    15A     -0.492372
      16A     -0.491679    17A     -0.470792    18A     -0.422523
      19A     -0.401796    20A     -0.397614    21A     -0.382200
      22A     -0.360735    23A     -0.332502    24A     -0.311786
      25A     -0.235786    26A     -0.212629    27A     -0.209933

  @DF-RHF Final Energy:  -379.15216259253532

   => Energetics <=

    Nuclear Repulsion Energy =            284.6574387184870147
    One-Electron Energy =               -1094.2533919178179076
    Two-Electron Energy =                 430.4437906067955737
    Total Energy =                       -379.1521625925353192
  Basis Set: (AUG-CC-PVTZ AUX)
    Blend: AUG-CC-PVTZ-RI
    Molecular point group: c1

    Geometry (in Angstrom), charge = -1, multiplicity = 1:

       Center              X                  Y                   Z               Mass
    ------------   -----------------  -----------------  -----------------  -----------------
         O           -0.531952149887     1.524225923355    -0.002433044727    15.994914619570
         O            2.164456550113     0.676792823355     0.002795355273    15.994914619570
         O            1.329357850113    -1.456635076645    -0.002156044727    15.994914619570
         C           -1.307554149887    -0.740222076645     0.001216955273    12.000000000000
         C           -2.713732149887    -0.157914076645     0.000968955273    12.000000000000
         C           -0.220625149887     0.330173923355    -0.000505044727    12.000000000000
         C            1.257573850113    -0.191027076645     0.000151955273    12.000000000000
         H           -1.129885149887    -1.389455076645    -0.862898044727     1.007825032230
         H           -1.129401149887    -1.387303076645     0.866879955273     1.007825032230
         H           -2.870624149887     0.473157923355    -0.877939044727     1.007825032230
         H           -3.472936149887    -0.948542076645     0.002221955273     1.007825032230
         H           -2.870060149887     0.475388923355     0.878379955273     1.007825032230

  Basis Set: AUG-CC-PVTZ
    Blend: AUG-CC-PVTZ
  Basis Set: (AUG-CC-PVTZ AUX)
    Blend: AUG-CC-PVTZ-JKFIT
	 Reference Energy          =    -379.1521625925353192 [Eh]
	 Singles Energy            =      -0.0000000000000000 [Eh]
	 Same-Spin Energy          =      -0.3736281438417308 [Eh]
	 Opposite-Spin Energy      =      -1.1395280559027836 [Eh]
	 Correlation Energy        =      -1.5131561997445144 [Eh]
	 Total Energy              =    -380.6653187922798338 [Eh]

	 ================> DF-SCS-MP2 Energies <==================
	-----------------------------------------------------------
	 SCS Same-Spin Scale       =       0.3333333333333333 [-]
	 SCS Opposite-Spin Scale   =       1.2000000000000000 [-]
	 SCS Same-Spin Energy      =      -0.1245427146139103 [Eh]
	 SCS Opposite-Spin Energy  =      -1.3674336670833402 [Eh]
	 SCS Correlation Energy    =      -1.4919763816972504 [Eh]
	 SCS Total Energy          =    -380.6441389742325896 [Eh]
	-----------------------------------------------------------

  Dipole Moment: [D]
     X:    -6.6248      Y:    -0.8055      Z:     0.0023     Total:     6.6736

*** Psi4 exiting successfully. Buy a developer a beer!
