                               Psi4 1.3.2 release

  ==> Input File <==

--------------------------------------------------------------------------
#psi4
#
memory 32 gb

molecule  {
-1 1
  O       -0.4223990     1.5478120    -0.0024970
  O        2.2587260     0.7160740     0.0027440
  O        1.4389110    -1.4330490    -0.0022200
  C       -1.1791544    -0.7354425     0.0011798
  C       -2.6041790    -0.1343280     0.0009050
  C       -0.1110720     0.3537600    -0.0005690
  C        1.3671270    -0.1674410     0.0000880
  H       -1.0203320    -1.3658690    -0.8629620
  H       -1.0198480    -1.3637170     0.8668160
  H       -2.7610710     0.4967440    -0.8780030
  H       -3.3633830    -0.9249560     0.0021580
  H       -2.7605070     0.4989750     0.8783160
units angstrom
no_reorient  #important for SAPT in psi4, default
symmetry c1  #important for SAPT in psi4, default
}

set PROPERTIES_ORIGIN ["COM"]
properties('MP2/aug-cc-pvtz', properties = ['dipole'])
--------------------------------------------------------------------------

    Molecular point group: c1
  Charge       = -1
  Multiplicity = 1
  Basis Set: AUG-CC-PVTZ
    Blend: AUG-CC-PVTZ
  Basis Set: (AUG-CC-PVTZ AUX)
    Blend: AUG-CC-PVTZ-JKFIT

    Orbital Energies [Eh]
    ---------------------

    Doubly Occupied:

       1A    -20.399969     2A    -20.322046     3A    -20.317794
       4A    -11.172952     5A    -11.163876     6A    -11.098726
       7A    -11.093591     8A     -1.226188     9A     -1.181863
      10A     -1.092807    11A     -0.910844    12A     -0.771876
      13A     -0.657834    14A     -0.544769    15A     -0.493382
      16A     -0.491287    17A     -0.470252    18A     -0.421871
      19A     -0.401980    20A     -0.394442    21A     -0.379049
      22A     -0.364681    23A     -0.333388    24A     -0.312017
      25A     -0.236886    26A     -0.213510    27A     -0.208443

  @DF-RHF Final Energy:  -379.15162330348812

   => Energetics <=

    Nuclear Repulsion Energy =            284.6905243048795455
    One-Electron Energy =               -1094.3316461291165069
    Two-Electron Energy =                 430.4894985207488389
    Total Energy =                       -379.1516233034881225
  Basis Set: (AUG-CC-PVTZ AUX)
    Blend: AUG-CC-PVTZ-RI
    Molecular point group: c1

    Geometry (in Angstrom), charge = -1, multiplicity = 1:

       Center              X                  Y                   Z               Mass
    ------------   -----------------  -----------------  -----------------  -----------------
         O           -0.531770982043     1.523974856110    -0.002438223067    15.994914619570
         O            2.149354017957     0.692236856110     0.002802776933    15.994914619570
         O            1.329539017957    -1.456886143890    -0.002161223067    15.994914619570
         C           -1.288526382043    -0.759279643890     0.001238576933    12.000000000000
         C           -2.713550982043    -0.158165143890     0.000963776933    12.000000000000
         C           -0.220443982043     0.329922856110    -0.000510223067    12.000000000000
         C            1.257755017957    -0.191278143890     0.000146776933    12.000000000000
         H           -1.129703982043    -1.389706143890    -0.862903223067     1.007825032230
         H           -1.129219982043    -1.387554143890     0.866874776933     1.007825032230
         H           -2.870442982043     0.472906856110    -0.877944223067     1.007825032230
         H           -3.472754982043    -0.948793143890     0.002216776933     1.007825032230
         H           -2.869878982043     0.475137856110     0.878374776933     1.007825032230

  Basis Set: AUG-CC-PVTZ
    Blend: AUG-CC-PVTZ
  Basis Set: (AUG-CC-PVTZ AUX)
    Blend: AUG-CC-PVTZ-JKFIT
	 Reference Energy          =    -379.1516233034881225 [Eh]
	 Singles Energy            =      -0.0000000000000000 [Eh]
	 Same-Spin Energy          =      -0.3735161150132094 [Eh]
	 Opposite-Spin Energy      =      -1.1394779125740246 [Eh]
	 Correlation Energy        =      -1.5129940275872340 [Eh]
	 Total Energy              =    -380.6646173310753625 [Eh]

	 ================> DF-SCS-MP2 Energies <==================
	-----------------------------------------------------------
	 SCS Same-Spin Scale       =       0.3333333333333333 [-]
	 SCS Opposite-Spin Scale   =       1.2000000000000000 [-]
	 SCS Same-Spin Energy      =      -0.1245053716710698 [Eh]
	 SCS Opposite-Spin Energy  =      -1.3673734950888294 [Eh]
	 SCS Correlation Energy    =      -1.4918788667598992 [Eh]
	 SCS Total Energy          =    -380.6435021702480412 [Eh]
	-----------------------------------------------------------

  Dipole Moment: [D]
     X:    -6.5468      Y:    -0.8385      Z:     0.0023     Total:     6.6003

*** Psi4 exiting successfully. Buy a developer a beer!
