                               Psi4 1.3.2 release

  ==> Input File <==

--------------------------------------------------------------------------
#psi4
#
memory 32 gb

molecule  {
-1 1
  O       -0.4223990     1.5478120    -0.0024970
  O        2.2587260     0.7160740     0.0027440
  O        1.5270206    -1.4249588    -0.0021070
  C       -1.1980010    -0.7166360     0.0011530
  C       -2.6041790    -0.1343280     0.0009050
  C       -0.1110720     0.3537600    -0.0005690
  C        1.3671270    -0.1674410     0.0000880
  H       -1.0203320    -1.3658690    -0.8629620
  H       -1.0198480    -1.3637170     0.8668160
  H       -2.7610710     0.4967440    -0.8780030
  H       -3.3633830    -0.9249560     0.0021580
  H       -2.7605070     0.4989750     0.8783160
units angstrom
no_reorient  #important for SAPT in psi4, default
symmetry c1  #important for SAPT in psi4, default
}

set PROPERTIES_ORIGIN ["COM"]
properties('MP2/aug-cc-pvtz', properties = ['dipole'])
--------------------------------------------------------------------------

    Molecular point group: c1
  Charge       = -1
  Multiplicity = 1
  Basis Set: AUG-CC-PVTZ
    Blend: AUG-CC-PVTZ
  Basis Set: (AUG-CC-PVTZ AUX)
    Blend: AUG-CC-PVTZ-JKFIT

    Orbital Energies [Eh]
    ---------------------

    Doubly Occupied:

       1A    -20.402812     2A    -20.319087     3A    -20.313198
       4A    -11.178101     5A    -11.162318     6A    -11.100919
       7A    -11.097999     8A     -1.228796     9A     -1.181611
      10A     -1.085075    11A     -0.917621    12A     -0.775344
      13A     -0.659192    14A     -0.547736    15A     -0.494745
      16A     -0.492612    17A     -0.469846    18A     -0.421797
      19A     -0.402164    20A     -0.396905    21A     -0.385179
      22A     -0.362031    23A     -0.333744    24A     -0.313235
      25A     -0.230007    26A     -0.212596    27A     -0.208461

  @DF-RHF Final Energy:  -379.15111881024762

   => Energetics <=

    Nuclear Repulsion Energy =            284.1422997072039607
    One-Electron Energy =               -1093.2005715403638533
    Two-Electron Energy =                 429.9071530229122686
    Total Energy =                       -379.1511188102476240
  Basis Set: (AUG-CC-PVTZ AUX)
    Blend: AUG-CC-PVTZ-RI
    Molecular point group: c1

    Geometry (in Angstrom), charge = -1, multiplicity = 1:

       Center              X                  Y                   Z               Mass
    ------------   -----------------  -----------------  -----------------  -----------------
         O           -0.543482534378     1.520460042614    -0.002452930733    15.994914619570
         O            2.137642465622     0.688722042614     0.002788069267    15.994914619570
         O            1.405937065622    -1.452310757386    -0.002062930733    15.994914619570
         C           -1.319084534378    -0.743987957386     0.001197069267    12.000000000000
         C           -2.725262534378    -0.161679957386     0.000949069267    12.000000000000
         C           -0.232155534378     0.326408042614    -0.000524930733    12.000000000000
         C            1.246043465622    -0.194792957386     0.000132069267    12.000000000000
         H           -1.141415534378    -1.393220957386    -0.862917930733     1.007825032230
         H           -1.140931534378    -1.391068957386     0.866860069267     1.007825032230
         H           -2.882154534378     0.469392042614    -0.877958930733     1.007825032230
         H           -3.484466534378    -0.952307957386     0.002202069267     1.007825032230
         H           -2.881590534378     0.471623042614     0.878360069267     1.007825032230

  Basis Set: AUG-CC-PVTZ
    Blend: AUG-CC-PVTZ
  Basis Set: (AUG-CC-PVTZ AUX)
    Blend: AUG-CC-PVTZ-JKFIT
	 Reference Energy          =    -379.1511188102476240 [Eh]
	 Singles Energy            =      -0.0000000000000000 [Eh]
	 Same-Spin Energy          =      -0.3735267235809462 [Eh]
	 Opposite-Spin Energy      =      -1.1394474048284100 [Eh]
	 Correlation Energy        =      -1.5129741284093563 [Eh]
	 Total Energy              =    -380.6640929386570065 [Eh]

	 ================> DF-SCS-MP2 Energies <==================
	-----------------------------------------------------------
	 SCS Same-Spin Scale       =       0.3333333333333333 [-]
	 SCS Opposite-Spin Scale   =       1.2000000000000000 [-]
	 SCS Same-Spin Energy      =      -0.1245089078603154 [Eh]
	 SCS Opposite-Spin Energy  =      -1.3673368857940920 [Eh]
	 SCS Correlation Energy    =      -1.4918457936544074 [Eh]
	 SCS Total Energy          =    -380.6429646039020440 [Eh]
	-----------------------------------------------------------

  Dipole Moment: [D]
     X:    -6.8484      Y:    -0.7944      Z:     0.0021     Total:     6.8943

*** Psi4 exiting successfully. Buy a developer a beer!
