                               Psi4 1.4a3.dev225

  ==> Input File <==

--------------------------------------------------------------------------
#psi4
#
memory 32 gb

molecule  {
-1 1
  O       -0.3985850     1.5131790    -0.2845690
  O        2.2066640     0.7149310     0.3161120
  O        1.5078530    -1.3885780    -0.2413420
  C       -1.2053190    -0.7120700     0.1148020
  C       -2.6123310    -0.1342710     0.1051660
  C       -0.1229610     0.3296160    -0.0682900
  C        1.3305852    -0.1522572     0.0121923
  H       -1.0703250    -1.4639250    -0.6703970
  H       -0.9966990    -1.2446330     1.0513490
  H       -2.8226470     0.3633290    -0.8444420
  H       -3.3547600    -0.9237900     0.2511250
  H       -2.7366210     0.6043540     0.9012280
units angstrom
no_reorient  #important for SAPT in psi4, default
symmetry c1  #important for SAPT in psi4, default
}

set PROPERTIES_ORIGIN ["COM"]
properties('MP2/aug-cc-pvtz', properties = ['dipole'])
--------------------------------------------------------------------------

    Molecular point group: c1
  Charge       = -1
  Multiplicity = 1
  Basis Set: AUG-CC-PVTZ
    Blend: AUG-CC-PVTZ
  Basis Set: (AUG-CC-PVTZ AUX)
    Blend: AUG-CC-PVTZ-JKFIT

    Orbital Energies [Eh]
    ---------------------

    Doubly Occupied:

       1A    -20.400862     2A    -20.319717     3A    -20.313606
       4A    -11.175971     5A    -11.161396     6A    -11.102752
       7A    -11.100849     8A     -1.228601     9A     -1.174685
      10A     -1.080377    11A     -0.922232    12A     -0.780979
      13A     -0.667094    14A     -0.550091    15A     -0.498684
      16A     -0.491649    17A     -0.468547    18A     -0.422408
      19A     -0.406805    20A     -0.393099    21A     -0.386305
      22A     -0.361555    23A     -0.330742    24A     -0.311353
      25A     -0.229608    26A     -0.215670    27A     -0.205866

  @DF-RHF Final Energy:  -379.14995081499825

   => Energetics <=

    Nuclear Repulsion Energy =            284.8791548384017460
    One-Electron Energy =               -1094.6552056395553336
    Two-Electron Energy =                 430.6260999861553387
    Total Energy =                       -379.1499508149982489
  Basis Set: (AUG-CC-PVTZ AUX)
    Blend: AUG-CC-PVTZ-RI
    Molecular point group: c1

    Geometry (in Angstrom), charge = -1, multiplicity = 1:

       Center              X                  Y                   Z               Mass
    ------------   -----------------  -----------------  -----------------  -----------------
         O           -0.504013159125     1.486304755356    -0.277689238575    15.994914619570
         O            2.101235840875     0.688056755356     0.322991761425    15.994914619570
         O            1.402424840875    -1.415452244644    -0.234462238575    15.994914619570
         C           -1.310747159125    -0.738944244644     0.121681761425    12.000000000000
         C           -2.717759159125    -0.161145244644     0.112045761425    12.000000000000
         C           -0.228389159125     0.302741755356    -0.061410238575    12.000000000000
         C            1.225157040875    -0.179131444644     0.019072061425    12.000000000000
         H           -1.175753159125    -1.490799244644    -0.663517238575     1.007825032230
         H           -1.102127159125    -1.271507244644     1.058228761425     1.007825032230
         H           -2.928075159125     0.336454755356    -0.837562238575     1.007825032230
         H           -3.460188159125    -0.950664244644     0.258004761425     1.007825032230
         H           -2.842049159125     0.577479755356     0.908107761425     1.007825032230

  Basis Set: AUG-CC-PVTZ
    Blend: AUG-CC-PVTZ
  Basis Set: (AUG-CC-PVTZ AUX)
    Blend: AUG-CC-PVTZ-JKFIT
	 Reference Energy          =    -379.1499508149982489 [Eh]
	 Singles Energy            =      -0.0000000000000000 [Eh]
	 Same-Spin Energy          =      -0.3739585097440628 [Eh]
	 Opposite-Spin Energy      =      -1.1402407619347952 [Eh]
	 Correlation Energy        =      -1.5141992716788579 [Eh]
	 Total Energy              =    -380.6641500866771253 [Eh]

	 ================> DF-SCS-MP2 Energies <==================
	-----------------------------------------------------------
	 SCS Same-Spin Scale       =       0.3333333333333333 [-]
	 SCS Opposite-Spin Scale   =       1.2000000000000000 [-]
	 SCS Same-Spin Energy      =      -0.1246528365813542 [Eh]
	 SCS Opposite-Spin Energy  =      -1.3682889143217543 [Eh]
	 SCS Correlation Energy    =      -1.4929417509031084 [Eh]
	 SCS Total Energy          =    -380.6428925659013771 [Eh]
	-----------------------------------------------------------

  Dipole Moment: [D]
     X:    -6.9658      Y:    -0.9007      Z:     0.2306     Total:     7.0275

*** Psi4 exiting successfully. Buy a developer a beer!
