                               Psi4 1.3.2 release

  ==> Input File <==

--------------------------------------------------------------------------
#psi4
#
memory 32 gb

molecule  {
-1 1
  O       -0.3383477     1.5666204    -0.0025270
  O        2.2587260     0.7160740     0.0027440
  O        1.4389110    -1.4330490    -0.0022200
  C       -1.1980010    -0.7166360     0.0011530
  C       -2.6041790    -0.1343280     0.0009050
  C       -0.1110720     0.3537600    -0.0005690
  C        1.3671270    -0.1674410     0.0000880
  H       -1.0203320    -1.3658690    -0.8629620
  H       -1.0198480    -1.3637170     0.8668160
  H       -2.7610710     0.4967440    -0.8780030
  H       -3.3633830    -0.9249560     0.0021580
  H       -2.7605070     0.4989750     0.8783160
units angstrom
no_reorient  #important for SAPT in psi4, default
symmetry c1  #important for SAPT in psi4, default
}

set PROPERTIES_ORIGIN ["COM"]
properties('MP2/aug-cc-pvtz', properties = ['dipole'])
--------------------------------------------------------------------------

    Molecular point group: c1
  Charge       = -1
  Multiplicity = 1
  Basis Set: AUG-CC-PVTZ
    Blend: AUG-CC-PVTZ
  Basis Set: (AUG-CC-PVTZ AUX)
    Blend: AUG-CC-PVTZ-JKFIT

    Orbital Energies [Eh]
    ---------------------

    Doubly Occupied:

       1A    -20.398664     2A    -20.319048     3A    -20.314694
       4A    -11.171776     5A    -11.160039     6A    -11.101055
       7A    -11.098311     8A     -1.225102     9A     -1.178216
      10A     -1.089773    11A     -0.917761    12A     -0.772500
      13A     -0.655650    14A     -0.544671    15A     -0.493867
      16A     -0.489954    17A     -0.469047    18A     -0.422715
      19A     -0.402131    20A     -0.398517    21A     -0.384125
      22A     -0.361160    23A     -0.330245    24A     -0.310600
      25A     -0.233718    26A     -0.210903    27A     -0.206209

  @DF-RHF Final Energy:  -379.15117922331683

   => Energetics <=

    Nuclear Repulsion Energy =            284.7771751456171501
    One-Electron Energy =               -1094.5358090614447519
    Two-Electron Energy =                 430.6074546925108280
    Total Energy =                       -379.1511792233168308
  Basis Set: (AUG-CC-PVTZ AUX)
    Blend: AUG-CC-PVTZ-RI
    Molecular point group: c1

    Geometry (in Angstrom), charge = -1, multiplicity = 1:

       Center              X                  Y                   Z               Mass
    ------------   -----------------  -----------------  -----------------  -----------------
         O           -0.458788691555     1.537571450651    -0.002460289818    15.994914619570
         O            2.138285008445     0.687025050651     0.002810710182    15.994914619570
         O            1.318470008445    -1.462097949349    -0.002153289818    15.994914619570
         C           -1.318441991555    -0.745684949349     0.001219710182    12.000000000000
         C           -2.724619991555    -0.163376949349     0.000971710182    12.000000000000
         C           -0.231512991555     0.324711050651    -0.000502289818    12.000000000000
         C            1.246686008445    -0.196489949349     0.000154710182    12.000000000000
         H           -1.140772991555    -1.394917949349    -0.862895289818     1.007825032230
         H           -1.140288991555    -1.392765949349     0.866882710182     1.007825032230
         H           -2.881511991555     0.467695050651    -0.877936289818     1.007825032230
         H           -3.483823991555    -0.954004949349     0.002224710182     1.007825032230
         H           -2.880947991555     0.469926050651     0.878382710182     1.007825032230

  Basis Set: AUG-CC-PVTZ
    Blend: AUG-CC-PVTZ
  Basis Set: (AUG-CC-PVTZ AUX)
    Blend: AUG-CC-PVTZ-JKFIT
	 Reference Energy          =    -379.1511792233168308 [Eh]
	 Singles Energy            =      -0.0000000000000000 [Eh]
	 Same-Spin Energy          =      -0.3735993565415788 [Eh]
	 Opposite-Spin Energy      =      -1.1394425361016736 [Eh]
	 Correlation Energy        =      -1.5130418926432525 [Eh]
	 Total Energy              =    -380.6642211159600606 [Eh]

	 ================> DF-SCS-MP2 Energies <==================
	-----------------------------------------------------------
	 SCS Same-Spin Scale       =       0.3333333333333333 [-]
	 SCS Opposite-Spin Scale   =       1.2000000000000000 [-]
	 SCS Same-Spin Energy      =      -0.1245331188471929 [Eh]
	 SCS Opposite-Spin Energy  =      -1.3673310433220083 [Eh]
	 SCS Correlation Energy    =      -1.4918641621692013 [Eh]
	 SCS Total Energy          =    -380.6430433854860098 [Eh]
	-----------------------------------------------------------

  Dipole Moment: [D]
     X:    -6.7620      Y:    -0.8449      Z:     0.0025     Total:     6.8145

*** Psi4 exiting successfully. Buy a developer a beer!
