                               Psi4 1.3.2 release

  ==> Input File <==

--------------------------------------------------------------------------
#psi4
#
memory 32 gb

molecule  {
-1 1
  O       -0.4223990     1.5478120    -0.0024970
  O        2.2587260     0.7160740     0.0027440
  O        1.4389110    -1.4330490    -0.0022200
  C       -1.1980010    -0.7166360     0.0011530
  C       -2.6041790    -0.1343280     0.0009050
  C       -0.1326898     0.3744581     0.0434714
  C        1.3671270    -0.1674410     0.0000880
  H       -1.0203320    -1.3658690    -0.8629620
  H       -1.0198480    -1.3637170     0.8668160
  H       -2.7610710     0.4967440    -0.8780030
  H       -3.3633830    -0.9249560     0.0021580
  H       -2.7605070     0.4989750     0.8783160
units angstrom
no_reorient  #important for SAPT in psi4, default
symmetry c1  #important for SAPT in psi4, default
}

set PROPERTIES_ORIGIN ["COM"]
properties('MP2/aug-cc-pvtz', properties = ['dipole'])
--------------------------------------------------------------------------

    Molecular point group: c1
  Charge       = -1
  Multiplicity = 1
  Basis Set: AUG-CC-PVTZ
    Blend: AUG-CC-PVTZ
  Basis Set: (AUG-CC-PVTZ AUX)
    Blend: AUG-CC-PVTZ-JKFIT

    Orbital Energies [Eh]
    ---------------------

    Doubly Occupied:

       1A    -20.400234     2A    -20.320840     3A    -20.316921
       4A    -11.169496     5A    -11.163680     6A    -11.097848
       7A    -11.093037     8A     -1.240317     9A     -1.181543
      10A     -1.091228    11A     -0.914304    12A     -0.767897
      13A     -0.649003    14A     -0.547327    15A     -0.495697
      16A     -0.492030    17A     -0.471260    18A     -0.421593
      19A     -0.402567    20A     -0.397666    21A     -0.382972
      22A     -0.359764    23A     -0.339646    24A     -0.314458
      25A     -0.235814    26A     -0.212755    27A     -0.201596

  @DF-RHF Final Energy:  -379.15311472623574

   => Energetics <=

    Nuclear Repulsion Energy =            284.8196120318972362
    One-Electron Energy =               -1094.5824674788125321
    Two-Electron Energy =                 430.6097407206795538
    Total Energy =                       -379.1531147262357422
  Basis Set: (AUG-CC-PVTZ AUX)
    Blend: AUG-CC-PVTZ-RI
    Molecular point group: c1

    Geometry (in Angstrom), charge = -1, multiplicity = 1:

       Center              X                  Y                   Z               Mass
    ------------   -----------------  -----------------  -----------------  -----------------
         O           -0.526964466467     1.519282349235    -0.007666326139    15.994914619570
         O            2.154160533533     0.687544349235    -0.002425326139    15.994914619570
         O            1.334345533533    -1.461578650765    -0.007389326139    15.994914619570
         C           -1.302566466467    -0.745165650765    -0.004016326139    12.000000000000
         C           -2.708744466467    -0.162857650765    -0.004264326139    12.000000000000
         C           -0.237255266467     0.345928449235     0.038302073861    12.000000000000
         C            1.262561533533    -0.195970650765    -0.005081326139    12.000000000000
         H           -1.124897466467    -1.394398650765    -0.868131326139     1.007825032230
         H           -1.124413466467    -1.392246650765     0.861646673861     1.007825032230
         H           -2.865636466467     0.468214349235    -0.883172326139     1.007825032230
         H           -3.467948466467    -0.953485650765    -0.003011326139     1.007825032230
         H           -2.865072466467     0.470445349235     0.873146673861     1.007825032230

  Basis Set: AUG-CC-PVTZ
    Blend: AUG-CC-PVTZ
  Basis Set: (AUG-CC-PVTZ AUX)
    Blend: AUG-CC-PVTZ-JKFIT
	 Reference Energy          =    -379.1531147262357422 [Eh]
	 Singles Energy            =      -0.0000000000000000 [Eh]
	 Same-Spin Energy          =      -0.3730874583867320 [Eh]
	 Opposite-Spin Energy      =      -1.1380919603687849 [Eh]
	 Correlation Energy        =      -1.5111794187555170 [Eh]
	 Total Energy              =    -380.6642941449912314 [Eh]

	 ================> DF-SCS-MP2 Energies <==================
	-----------------------------------------------------------
	 SCS Same-Spin Scale       =       0.3333333333333333 [-]
	 SCS Opposite-Spin Scale   =       1.2000000000000000 [-]
	 SCS Same-Spin Energy      =      -0.1243624861289107 [Eh]
	 SCS Opposite-Spin Energy  =      -1.3657103524425418 [Eh]
	 SCS Correlation Energy    =      -1.4900728385714526 [Eh]
	 SCS Total Energy          =    -380.6431875648071923 [Eh]
	-----------------------------------------------------------

  Dipole Moment: [D]
     X:    -6.6333      Y:    -0.7389      Z:     0.0660     Total:     6.6746

*** Psi4 exiting successfully. Buy a developer a beer!
