                               Psi4 1.3.2 release

  ==> Input File <==

--------------------------------------------------------------------------
#psi4
#
memory 32 gb

molecule  {
-1 1
  O       -0.4223990     1.5478120    -0.0024970
  O        2.2890172     0.6844194     0.0027179
  O        1.4389110    -1.4330490    -0.0022200
  C       -1.1980010    -0.7166360     0.0011530
  C       -2.6041790    -0.1343280     0.0009050
  C       -0.1110720     0.3537600    -0.0005690
  C        1.3671270    -0.1674410     0.0000880
  H       -1.0203320    -1.3658690    -0.8629620
  H       -1.0198480    -1.3637170     0.8668160
  H       -2.7610710     0.4967440    -0.8780030
  H       -3.3633830    -0.9249560     0.0021580
  H       -2.7605070     0.4989750     0.8783160
units angstrom
no_reorient  #important for SAPT in psi4, default
symmetry c1  #important for SAPT in psi4, default
}

set PROPERTIES_ORIGIN ["COM"]
properties('MP2/aug-cc-pvtz', properties = ['dipole'])
--------------------------------------------------------------------------

    Molecular point group: c1
  Charge       = -1
  Multiplicity = 1
  Basis Set: AUG-CC-PVTZ
    Blend: AUG-CC-PVTZ
  Basis Set: (AUG-CC-PVTZ AUX)
    Blend: AUG-CC-PVTZ-JKFIT

    Orbital Energies [Eh]
    ---------------------

    Doubly Occupied:

       1A    -20.400967     2A    -20.319922     3A    -20.316961
       4A    -11.175313     5A    -11.163760     6A    -11.099146
       7A    -11.095654     8A     -1.227427     9A     -1.182369
      10A     -1.089709    11A     -0.915239    12A     -0.772659
      13A     -0.658034    14A     -0.546113    15A     -0.492832
      16A     -0.491910    17A     -0.470931    18A     -0.422088
      19A     -0.401927    20A     -0.397537    21A     -0.382630
      22A     -0.360776    23A     -0.333099    24A     -0.312443
      25A     -0.234247    26A     -0.211565    27A     -0.210947

  @DF-RHF Final Energy:  -379.15208562280088

   => Energetics <=

    Nuclear Repulsion Energy =            284.5474250643986807
    One-Electron Energy =               -1094.0266095359791052
    Two-Electron Energy =                 430.3270988487795421
    Total Energy =                       -379.1520856228008824
  Basis Set: (AUG-CC-PVTZ AUX)
    Blend: AUG-CC-PVTZ-RI
    Molecular point group: c1

    Geometry (in Angstrom), charge = -1, multiplicity = 1:

       Center              X                  Y                   Z               Mass
    ------------   -----------------  -----------------  -----------------  -----------------
         O           -0.534328258459     1.526752760254    -0.002430907298    15.994914619570
         O            2.177087941541     0.663360160254     0.002783992702    15.994914619570
         O            1.326981741541    -1.454108239746    -0.002153907298    15.994914619570
         C           -1.309930258459    -0.737695239746     0.001219092702    12.000000000000
         C           -2.716108258459    -0.155387239746     0.000971092702    12.000000000000
         C           -0.223001258459     0.332700760254    -0.000502907298    12.000000000000
         C            1.255197741541    -0.188500239746     0.000154092702    12.000000000000
         H           -1.132261258459    -1.386928239746    -0.862895907298     1.007825032230
         H           -1.131777258459    -1.384776239746     0.866882092702     1.007825032230
         H           -2.873000258459     0.475684760254    -0.877936907298     1.007825032230
         H           -3.475312258459    -0.946015239746     0.002224092702     1.007825032230
         H           -2.872436258459     0.477915760254     0.878382092702     1.007825032230

  Basis Set: AUG-CC-PVTZ
    Blend: AUG-CC-PVTZ
  Basis Set: (AUG-CC-PVTZ AUX)
    Blend: AUG-CC-PVTZ-JKFIT
	 Reference Energy          =    -379.1520856228008824 [Eh]
	 Singles Energy            =      -0.0000000000000000 [Eh]
	 Same-Spin Energy          =      -0.3735927390941515 [Eh]
	 Opposite-Spin Energy      =      -1.1395081657128912 [Eh]
	 Correlation Energy        =      -1.5131009048070427 [Eh]
	 Total Energy              =    -380.6651865276079434 [Eh]

	 ================> DF-SCS-MP2 Energies <==================
	-----------------------------------------------------------
	 SCS Same-Spin Scale       =       0.3333333333333333 [-]
	 SCS Opposite-Spin Scale   =       1.2000000000000000 [-]
	 SCS Same-Spin Energy      =      -0.1245309130313838 [Eh]
	 SCS Opposite-Spin Energy  =      -1.3674097988554694 [Eh]
	 SCS Correlation Energy    =      -1.4919407118868533 [Eh]
	 SCS Total Energy          =    -380.6440263346877373 [Eh]
	-----------------------------------------------------------

  Dipole Moment: [D]
     X:    -6.6757      Y:    -0.7815      Z:     0.0024     Total:     6.7213

*** Psi4 exiting successfully. Buy a developer a beer!
