                               Psi4 1.4a3.dev225

  ==> Input File <==

--------------------------------------------------------------------------
#psi4
#
memory 32 gb

molecule  {
-1 1
  O       -0.3985850     1.5131790    -0.2845690
  O        2.2066640     0.7149310     0.3161120
  O        1.5078530    -1.3885780    -0.2413420
  C       -1.2053190    -0.7120700     0.1148020
  C       -2.6123310    -0.1342710     0.1051660
  C       -0.1587221     0.2951987    -0.0622406
  C        1.3495430    -0.1585420     0.0132420
  H       -1.0703250    -1.4639250    -0.6703970
  H       -0.9966990    -1.2446330     1.0513490
  H       -2.8226470     0.3633290    -0.8444420
  H       -3.3547600    -0.9237900     0.2511250
  H       -2.7366210     0.6043540     0.9012280
units angstrom
no_reorient  #important for SAPT in psi4, default
symmetry c1  #important for SAPT in psi4, default
}

set PROPERTIES_ORIGIN ["COM"]
properties('MP2/aug-cc-pvtz', properties = ['dipole'])
--------------------------------------------------------------------------

    Molecular point group: c1
  Charge       = -1
  Multiplicity = 1
  Basis Set: AUG-CC-PVTZ
    Blend: AUG-CC-PVTZ
  Basis Set: (AUG-CC-PVTZ AUX)
    Blend: AUG-CC-PVTZ-JKFIT

    Orbital Energies [Eh]
    ---------------------

    Doubly Occupied:

       1A    -20.395920     2A    -20.318897     3A    -20.313710
       4A    -11.174680     5A    -11.162339     6A    -11.104002
       7A    -11.101484     8A     -1.211373     9A     -1.175059
      10A     -1.085844    11A     -0.930745    12A     -0.785079
      13A     -0.654394    14A     -0.551343    15A     -0.502351
      16A     -0.486240    17A     -0.467581    18A     -0.421734
      19A     -0.406325    20A     -0.395995    21A     -0.385683
      22A     -0.364040    23A     -0.321982    24A     -0.312635
      25A     -0.231294    26A     -0.212892    27A     -0.205924

  @DF-RHF Final Energy:  -379.14559645500748

   => Energetics <=

    Nuclear Repulsion Energy =            284.6854882243256952
    One-Electron Energy =               -1094.3030794418602909
    Two-Electron Energy =                 430.4719947625271175
    Total Energy =                       -379.1455964550074782
  Basis Set: (AUG-CC-PVTZ AUX)
    Blend: AUG-CC-PVTZ-RI
    Molecular point group: c1

    Geometry (in Angstrom), charge = -1, multiplicity = 1:

       Center              X                  Y                   Z               Mass
    ------------   -----------------  -----------------  -----------------  -----------------
         O           -0.502017199141     1.491139505844    -0.278532496716    15.994914619570
         O            2.103231800859     0.692891505844     0.322148503284    15.994914619570
         O            1.404420800859    -1.410617494156    -0.235305496716    15.994914619570
         C           -1.308751199141    -0.734109494156     0.120838503284    12.000000000000
         C           -2.715763199141    -0.156310494156     0.111202503284    12.000000000000
         C           -0.262154299141     0.273159205844    -0.056204096716    12.000000000000
         C            1.246110800859    -0.180581494156     0.019278503284    12.000000000000
         H           -1.173757199141    -1.485964494156    -0.664360496716     1.007825032230
         H           -1.100131199141    -1.266672494156     1.057385503284     1.007825032230
         H           -2.926079199141     0.341289505844    -0.838405496716     1.007825032230
         H           -3.458192199141    -0.945829494156     0.257161503284     1.007825032230
         H           -2.840053199141     0.582314505844     0.907264503284     1.007825032230

  Basis Set: AUG-CC-PVTZ
    Blend: AUG-CC-PVTZ
  Basis Set: (AUG-CC-PVTZ AUX)
    Blend: AUG-CC-PVTZ-JKFIT
	 Reference Energy          =    -379.1455964550074782 [Eh]
	 Singles Energy            =      -0.0000000000000000 [Eh]
	 Same-Spin Energy          =      -0.3745133195089735 [Eh]
	 Opposite-Spin Energy      =      -1.1409278932835951 [Eh]
	 Correlation Energy        =      -1.5154412127925685 [Eh]
	 Total Energy              =    -380.6610376678000307 [Eh]

	 ================> DF-SCS-MP2 Energies <==================
	-----------------------------------------------------------
	 SCS Same-Spin Scale       =       0.3333333333333333 [-]
	 SCS Opposite-Spin Scale   =       1.2000000000000000 [-]
	 SCS Same-Spin Energy      =      -0.1248377731696578 [Eh]
	 SCS Opposite-Spin Energy  =      -1.3691134719403142 [Eh]
	 SCS Correlation Energy    =      -1.4939512451099719 [Eh]
	 SCS Total Energy          =    -380.6395477001174754 [Eh]
	-----------------------------------------------------------

  Dipole Moment: [D]
     X:    -7.0352      Y:    -1.1066      Z:     0.2839     Total:     7.1273

*** Psi4 exiting successfully. Buy a developer a beer!
