                               Psi4 1.3.2 release

  ==> Input File <==

--------------------------------------------------------------------------
#psi4
#
memory 32 gb

molecule  {
-1 1
  O       -0.4223990     1.5478120    -0.0024970
  O        2.2587260     0.7160740     0.0027440
  O        1.4389110    -1.4330490    -0.0022200
  C       -1.1206861    -0.7898488     0.0012571
  C       -2.6041790    -0.1343280     0.0009050
  C       -0.1110720     0.3537600    -0.0005690
  C        1.3671270    -0.1674410     0.0000880
  H       -1.0203320    -1.3658690    -0.8629620
  H       -1.0198480    -1.3637170     0.8668160
  H       -2.7610710     0.4967440    -0.8780030
  H       -3.3633830    -0.9249560     0.0021580
  H       -2.7605070     0.4989750     0.8783160
units angstrom
no_reorient  #important for SAPT in psi4, default
symmetry c1  #important for SAPT in psi4, default
}

set PROPERTIES_ORIGIN ["COM"]
properties('MP2/aug-cc-pvtz', properties = ['dipole'])
--------------------------------------------------------------------------

    Molecular point group: c1
  Charge       = -1
  Multiplicity = 1
  Basis Set: AUG-CC-PVTZ
    Blend: AUG-CC-PVTZ
  Basis Set: (AUG-CC-PVTZ AUX)
    Blend: AUG-CC-PVTZ-JKFIT

    Orbital Energies [Eh]
    ---------------------

    Doubly Occupied:

       1A    -20.402898     2A    -20.321947     3A    -20.316789
       4A    -11.174307     5A    -11.161849     6A    -11.099429
       7A    -11.092339     8A     -1.227012     9A     -1.181696
      10A     -1.092495    11A     -0.902811    12A     -0.772630
      13A     -0.661705    14A     -0.544407    15A     -0.500597
      16A     -0.491248    17A     -0.469991    18A     -0.420014
      19A     -0.403232    20A     -0.394173    21A     -0.375508
      22A     -0.359045    23A     -0.336250    24A     -0.314077
      25A     -0.235833    26A     -0.213269    27A     -0.207060

  @DF-RHF Final Energy:  -379.14207735545449

   => Energetics <=

    Nuclear Repulsion Energy =            284.4901574196491651
    One-Electron Energy =               -1093.9192448582969064
    Two-Electron Energy =                 430.2870100831931950
    Total Energy =                       -379.1420773554544894
  Basis Set: (AUG-CC-PVTZ AUX)
    Blend: AUG-CC-PVTZ-RI
    Molecular point group: c1

    Geometry (in Angstrom), charge = -1, multiplicity = 1:

       Center              X                  Y                   Z               Mass
    ------------   -----------------  -----------------  -----------------  -----------------
         O           -0.538716069444     1.530437443678    -0.002447405055    15.994914619570
         O            2.142408930556     0.698699443678     0.002793594945    15.994914619570
         O            1.322593930556    -1.450423556322    -0.002170405055    15.994914619570
         C           -1.237003169444    -0.807223356322     0.001306694945    12.000000000000
         C           -2.720496069444    -0.151702556322     0.000954594945    12.000000000000
         C           -0.227389069444     0.336385443678    -0.000519405055    12.000000000000
         C            1.250809930556    -0.184815556322     0.000137594945    12.000000000000
         H           -1.136649069444    -1.383243556322    -0.862912405055     1.007825032230
         H           -1.136165069444    -1.381091556322     0.866865594945     1.007825032230
         H           -2.877388069444     0.479369443678    -0.877953405055     1.007825032230
         H           -3.479700069444    -0.942330556322     0.002207594945     1.007825032230
         H           -2.876824069444     0.481600443678     0.878365594945     1.007825032230

  Basis Set: AUG-CC-PVTZ
    Blend: AUG-CC-PVTZ
  Basis Set: (AUG-CC-PVTZ AUX)
    Blend: AUG-CC-PVTZ-JKFIT
	 Reference Energy          =    -379.1420773554544894 [Eh]
	 Singles Energy            =      -0.0000000000000000 [Eh]
	 Same-Spin Energy          =      -0.3733625773360869 [Eh]
	 Opposite-Spin Energy      =      -1.1398628981493730 [Eh]
	 Correlation Energy        =      -1.5132254754854599 [Eh]
	 Total Energy              =    -380.6553028309399451 [Eh]

	 ================> DF-SCS-MP2 Energies <==================
	-----------------------------------------------------------
	 SCS Same-Spin Scale       =       0.3333333333333333 [-]
	 SCS Opposite-Spin Scale   =       1.2000000000000000 [-]
	 SCS Same-Spin Energy      =      -0.1244541924453623 [Eh]
	 SCS Opposite-Spin Energy  =      -1.3678354777792476 [Eh]
	 SCS Correlation Energy    =      -1.4922896702246100 [Eh]
	 SCS Total Energy          =    -380.6343670256791256 [Eh]
	-----------------------------------------------------------

  Dipole Moment: [D]
     X:    -6.4453      Y:    -0.8668      Z:     0.0023     Total:     6.5033

*** Psi4 exiting successfully. Buy a developer a beer!
