                               Psi4 1.3.2 release

  ==> Input File <==

--------------------------------------------------------------------------
#psi4
#
memory 32 gb

molecule  {
-1 1
  O       -0.5455061     1.5087284    -0.0024345
  O        2.2587260     0.7160740     0.0027440
  O        1.4389110    -1.4330490    -0.0022200
  C       -1.1980010    -0.7166360     0.0011530
  C       -2.6041790    -0.1343280     0.0009050
  C       -0.1110720     0.3537600    -0.0005690
  C        1.3671270    -0.1674410     0.0000880
  H       -1.0203320    -1.3658690    -0.8629620
  H       -1.0198480    -1.3637170     0.8668160
  H       -2.7610710     0.4967440    -0.8780030
  H       -3.3633830    -0.9249560     0.0021580
  H       -2.7605070     0.4989750     0.8783160
units angstrom
no_reorient  #important for SAPT in psi4, default
symmetry c1  #important for SAPT in psi4, default
}

set PROPERTIES_ORIGIN ["COM"]
properties('MP2/aug-cc-pvtz', properties = ['dipole'])
--------------------------------------------------------------------------

    Molecular point group: c1
  Charge       = -1
  Multiplicity = 1
  Basis Set: AUG-CC-PVTZ
    Blend: AUG-CC-PVTZ
  Basis Set: (AUG-CC-PVTZ AUX)
    Blend: AUG-CC-PVTZ-JKFIT

    Orbital Energies [Eh]
    ---------------------

    Doubly Occupied:

       1A    -20.398915     2A    -20.326662     3A    -20.323088
       4A    -11.173796     5A    -11.171355     6A    -11.093876
       7A    -11.088532     8A     -1.227931     9A     -1.187355
      10A     -1.097591    11A     -0.908387    12A     -0.770068
      13A     -0.657756    14A     -0.544975    15A     -0.493993
      16A     -0.489114    17A     -0.473057    18A     -0.424797
      19A     -0.401180    20A     -0.394264    21A     -0.377993
      22A     -0.359752    23A     -0.333502    24A     -0.309992
      25A     -0.242081    26A     -0.217582    27A     -0.211940

  @DF-RHF Final Energy:  -379.14812141166681

   => Energetics <=

    Nuclear Repulsion Energy =            284.9766344987725120
    One-Electron Energy =               -1094.8504479120244923
    Two-Electron Energy =                 430.7256920015852302
    Total Energy =                       -379.1481214116668070
  Basis Set: (AUG-CC-PVTZ AUX)
    Blend: AUG-CC-PVTZ-RI
    Molecular point group: c1

    Geometry (in Angstrom), charge = -1, multiplicity = 1:

       Center              X                  Y                   Z               Mass
    ------------   -----------------  -----------------  -----------------  -----------------
         O           -0.633148101051     1.488845379516    -0.002382435165    15.994914619570
         O            2.171083998949     0.696190979516     0.002796064835    15.994914619570
         O            1.351268998949    -1.452932020484    -0.002167935165    15.994914619570
         C           -1.285643001051    -0.736519020484     0.001205064835    12.000000000000
         C           -2.691821001051    -0.154211020484     0.000957064835    12.000000000000
         C           -0.198714001051     0.333876979516    -0.000516935165    12.000000000000
         C            1.279484998949    -0.187324020484     0.000140064835    12.000000000000
         H           -1.107974001051    -1.385752020484    -0.862909935165     1.007825032230
         H           -1.107490001051    -1.383600020484     0.866868064835     1.007825032230
         H           -2.848713001051     0.476860979516    -0.877950935165     1.007825032230
         H           -3.451025001051    -0.944839020484     0.002210064835     1.007825032230
         H           -2.848149001051     0.479091979516     0.878368064835     1.007825032230

  Basis Set: AUG-CC-PVTZ
    Blend: AUG-CC-PVTZ
  Basis Set: (AUG-CC-PVTZ AUX)
    Blend: AUG-CC-PVTZ-JKFIT
	 Reference Energy          =    -379.1481214116668070 [Eh]
	 Singles Energy            =      -0.0000000000000000 [Eh]
	 Same-Spin Energy          =      -0.3740150927349194 [Eh]
	 Opposite-Spin Energy      =      -1.1401850589872309 [Eh]
	 Correlation Energy        =      -1.5142001517221502 [Eh]
	 Total Energy              =    -380.6623215633889572 [Eh]

	 ================> DF-SCS-MP2 Energies <==================
	-----------------------------------------------------------
	 SCS Same-Spin Scale       =       0.3333333333333333 [-]
	 SCS Opposite-Spin Scale   =       1.2000000000000000 [-]
	 SCS Same-Spin Energy      =      -0.1246716975783065 [Eh]
	 SCS Opposite-Spin Energy  =      -1.3682220707846771 [Eh]
	 SCS Correlation Energy    =      -1.4928937683629835 [Eh]
	 SCS Total Energy          =    -380.6410151800297967 [Eh]
	-----------------------------------------------------------

  Dipole Moment: [D]
     X:    -6.2863      Y:    -0.7786      Z:     0.0021     Total:     6.3343

*** Psi4 exiting successfully. Buy a developer a beer!
