                               Psi4 1.4a3.dev225

  ==> Input File <==

--------------------------------------------------------------------------
#psi4
#
memory 32 gb

molecule  {
-1 1
  O       -0.3985850     1.5131790    -0.2845690
  O        2.2066640     0.7149310     0.3161120
  O        1.5078530    -1.3885780    -0.2413420
  C       -1.2053190    -0.7120700     0.1148020
  C       -2.6123310    -0.1342710     0.1051660
  C       -0.1086566     0.3433829    -0.0707097
  C        1.3495430    -0.1585420     0.0132420
  H       -1.0703250    -1.4639250    -0.6703970
  H       -0.9966990    -1.2446330     1.0513490
  H       -2.8226470     0.3633290    -0.8444420
  H       -3.3547600    -0.9237900     0.2511250
  H       -2.7366210     0.6043540     0.9012280
units angstrom
no_reorient  #important for SAPT in psi4, default
symmetry c1  #important for SAPT in psi4, default
}

set PROPERTIES_ORIGIN ["COM"]
properties('MP2/aug-cc-pvtz', properties = ['dipole'])
--------------------------------------------------------------------------

    Molecular point group: c1
  Charge       = -1
  Multiplicity = 1
  Basis Set: AUG-CC-PVTZ
    Blend: AUG-CC-PVTZ
  Basis Set: (AUG-CC-PVTZ AUX)
    Blend: AUG-CC-PVTZ-JKFIT

    Orbital Energies [Eh]
    ---------------------

    Doubly Occupied:

       1A    -20.399864     2A    -20.320440     3A    -20.314275
       4A    -11.173428     5A    -11.160745     6A    -11.101020
       7A    -11.098698     8A     -1.233198     9A     -1.180402
      10A     -1.087189    11A     -0.917352    12A     -0.774958
      13A     -0.663207    14A     -0.547465    15A     -0.495861
      16A     -0.492381    17A     -0.470056    18A     -0.423314
      19A     -0.407572    20A     -0.394224    21A     -0.385378
      22A     -0.362495    23A     -0.334712    24A     -0.310923
      25A     -0.232965    26A     -0.213361    27A     -0.206623

  @DF-RHF Final Energy:  -379.15343209973156

   => Energetics <=

    Nuclear Repulsion Energy =            284.8860557516756558
    One-Electron Energy =               -1094.6747603249571057
    Two-Electron Energy =                 430.6352724735498327
    Total Energy =                       -379.1534320997315604
  Basis Set: (AUG-CC-PVTZ AUX)
    Blend: AUG-CC-PVTZ-RI
    Molecular point group: c1

    Geometry (in Angstrom), charge = -1, multiplicity = 1:

       Center              X                  Y                   Z               Mass
    ------------   -----------------  -----------------  -----------------  -----------------
         O           -0.507964169950     1.485416003016    -0.277526504756    15.994914619570
         O            2.097284830050     0.687168003016     0.323154495244    15.994914619570
         O            1.398473830050    -1.416340996984    -0.234299504756    15.994914619570
         C           -1.314698169950    -0.739832996984     0.121844495244    12.000000000000
         C           -2.721710169950    -0.162033996984     0.112208495244    12.000000000000
         C           -0.218035769950     0.315619903016    -0.063667204756    12.000000000000
         C            1.240163830050    -0.186304996984     0.020284495244    12.000000000000
         H           -1.179704169950    -1.491687996984    -0.663354504756     1.007825032230
         H           -1.106078169950    -1.272395996984     1.058391495244     1.007825032230
         H           -2.932026169950     0.335566003016    -0.837399504756     1.007825032230
         H           -3.464139169950    -0.951552996984     0.258167495244     1.007825032230
         H           -2.846000169950     0.576591003016     0.908270495244     1.007825032230

  Basis Set: AUG-CC-PVTZ
    Blend: AUG-CC-PVTZ
  Basis Set: (AUG-CC-PVTZ AUX)
    Blend: AUG-CC-PVTZ-JKFIT
	 Reference Energy          =    -379.1534320997315604 [Eh]
	 Singles Energy            =      -0.0000000000000000 [Eh]
	 Same-Spin Energy          =      -0.3732030077898663 [Eh]
	 Opposite-Spin Energy      =      -1.1385934015844421 [Eh]
	 Correlation Energy        =      -1.5117964093743084 [Eh]
	 Total Energy              =    -380.6652285091058729 [Eh]

	 ================> DF-SCS-MP2 Energies <==================
	-----------------------------------------------------------
	 SCS Same-Spin Scale       =       0.3333333333333333 [-]
	 SCS Opposite-Spin Scale   =       1.2000000000000000 [-]
	 SCS Same-Spin Energy      =      -0.1244010025966221 [Eh]
	 SCS Opposite-Spin Energy  =      -1.3663120819013306 [Eh]
	 SCS Correlation Energy    =      -1.4907130844979526 [Eh]
	 SCS Total Energy          =    -380.6441451842295010 [Eh]
	-----------------------------------------------------------

  Dipole Moment: [D]
     X:    -6.7976      Y:    -0.8476      Z:     0.2152     Total:     6.8536

*** Psi4 exiting successfully. Buy a developer a beer!
