                               Psi4 1.3.2 release

  ==> Input File <==

--------------------------------------------------------------------------
#psi4
#
memory 32 gb

molecule  {
-1 1
  O       -0.5049336     1.5231863    -0.0024450
  O        2.2587260     0.7160740     0.0027440
  O        1.4389110    -1.4330490    -0.0022200
  C       -1.1980010    -0.7166360     0.0011530
  C       -2.6041790    -0.1343280     0.0009050
  C       -0.1110720     0.3537600    -0.0005690
  C        1.3671270    -0.1674410     0.0000880
  H       -1.0203320    -1.3658690    -0.8629620
  H       -1.0198480    -1.3637170     0.8668160
  H       -2.7610710     0.4967440    -0.8780030
  H       -3.3633830    -0.9249560     0.0021580
  H       -2.7605070     0.4989750     0.8783160
units angstrom
no_reorient  #important for SAPT in psi4, default
symmetry c1  #important for SAPT in psi4, default
}

set PROPERTIES_ORIGIN ["COM"]
properties('MP2/aug-cc-pvtz', properties = ['dipole'])
--------------------------------------------------------------------------

    Molecular point group: c1
  Charge       = -1
  Multiplicity = 1
  Basis Set: AUG-CC-PVTZ
    Blend: AUG-CC-PVTZ
  Basis Set: (AUG-CC-PVTZ AUX)
    Blend: AUG-CC-PVTZ-JKFIT

    Orbital Energies [Eh]
    ---------------------

    Doubly Occupied:

       1A    -20.399035     2A    -20.325199     3A    -20.321515
       4A    -11.173444     5A    -11.169153     6A    -11.095383
       7A    -11.090510     8A     -1.227204     9A     -1.185623
      10A     -1.096103    11A     -0.910396    12A     -0.770511
      13A     -0.657442    14A     -0.544967    15A     -0.493102
      16A     -0.490011    17A     -0.472227    18A     -0.424029
      19A     -0.401320    20A     -0.395642    21A     -0.379272
      22A     -0.360094    23A     -0.333074    24A     -0.310627
      25A     -0.240540    26A     -0.216312    27A     -0.211068

  @DF-RHF Final Energy:  -379.15016017469338

   => Energetics <=

    Nuclear Repulsion Energy =            284.8809073094688529
    One-Electron Energy =               -1094.6745265307661157
    Two-Electron Energy =                 430.6434590466038799
    Total Energy =                       -379.1501601746933829
  Basis Set: (AUG-CC-PVTZ AUX)
    Blend: AUG-CC-PVTZ-RI
    Molecular point group: c1

    Geometry (in Angstrom), charge = -1, multiplicity = 1:

       Center              X                  Y                   Z               Mass
    ------------   -----------------  -----------------  -----------------  -----------------
         O           -0.598999366837     1.501014188054    -0.002391272720    15.994914619570
         O            2.164660233163     0.693901888054     0.002797727280    15.994914619570
         O            1.344845233163    -1.455221111946    -0.002166272720    15.994914619570
         C           -1.292066766837    -0.738808111946     0.001206727280    12.000000000000
         C           -2.698244766837    -0.156500111946     0.000958727280    12.000000000000
         C           -0.205137766837     0.331587888054    -0.000515272720    12.000000000000
         C            1.273061233163    -0.189613111946     0.000141727280    12.000000000000
         H           -1.114397766837    -1.388041111946    -0.862908272720     1.007825032230
         H           -1.113913766837    -1.385889111946     0.866869727280     1.007825032230
         H           -2.855136766837     0.474571888054    -0.877949272720     1.007825032230
         H           -3.457448766837    -0.947128111946     0.002211727280     1.007825032230
         H           -2.854572766837     0.476802888054     0.878369727280     1.007825032230

  Basis Set: AUG-CC-PVTZ
    Blend: AUG-CC-PVTZ
  Basis Set: (AUG-CC-PVTZ AUX)
    Blend: AUG-CC-PVTZ-JKFIT
	 Reference Energy          =    -379.1501601746933829 [Eh]
	 Singles Energy            =      -0.0000000000000000 [Eh]
	 Same-Spin Energy          =      -0.3738681781607040 [Eh]
	 Opposite-Spin Energy      =      -1.1399171493517732 [Eh]
	 Correlation Energy        =      -1.5137853275124773 [Eh]
	 Total Energy              =    -380.6639455022058769 [Eh]

	 ================> DF-SCS-MP2 Energies <==================
	-----------------------------------------------------------
	 SCS Same-Spin Scale       =       0.3333333333333333 [-]
	 SCS Opposite-Spin Scale   =       1.2000000000000000 [-]
	 SCS Same-Spin Energy      =      -0.1246227260535680 [Eh]
	 SCS Opposite-Spin Energy  =      -1.3679005792221279 [Eh]
	 SCS Correlation Energy    =      -1.4925233052756959 [Eh]
	 SCS Total Energy          =    -380.6426834799690937 [Eh]
	-----------------------------------------------------------

  Dipole Moment: [D]
     X:    -6.3822      Y:    -0.7990      Z:     0.0021     Total:     6.4320

*** Psi4 exiting successfully. Buy a developer a beer!
