                               Psi4 1.3.2 release

  ==> Input File <==

--------------------------------------------------------------------------
#psi4
#
memory 32 gb

molecule  {
-1 1
  O       -0.4431907     1.5421967    -0.0024849
  O        2.2587260     0.7160740     0.0027440
  O        1.4389110    -1.4330490    -0.0022200
  C       -1.1980010    -0.7166360     0.0011530
  C       -2.6041790    -0.1343280     0.0009050
  C       -0.1110720     0.3537600    -0.0005690
  C        1.3671270    -0.1674410     0.0000880
  H       -1.0203320    -1.3658690    -0.8629620
  H       -1.0198480    -1.3637170     0.8668160
  H       -2.7610710     0.4967440    -0.8780030
  H       -3.3633830    -0.9249560     0.0021580
  H       -2.7605070     0.4989750     0.8783160
units angstrom
no_reorient  #important for SAPT in psi4, default
symmetry c1  #important for SAPT in psi4, default
}

set PROPERTIES_ORIGIN ["COM"]
properties('MP2/aug-cc-pvtz', properties = ['dipole'])
--------------------------------------------------------------------------

    Molecular point group: c1
  Charge       = -1
  Multiplicity = 1
  Basis Set: AUG-CC-PVTZ
    Blend: AUG-CC-PVTZ
  Basis Set: (AUG-CC-PVTZ AUX)
    Blend: AUG-CC-PVTZ-JKFIT

    Orbital Energies [Eh]
    ---------------------

    Doubly Occupied:

       1A    -20.399054     2A    -20.322947     3A    -20.319059
       4A    -11.172873     5A    -11.165787     6A    -11.097581
       7A    -11.093465     8A     -1.226271     9A     -1.182937
      10A     -1.093799    11A     -0.913285    12A     -0.771228
      13A     -0.656871    14A     -0.544893    15A     -0.491865
      16A     -0.491421    17A     -0.471017    18A     -0.423171
      19A     -0.401578    20A     -0.397250    21A     -0.381144
      22A     -0.360548    23A     -0.332225    24A     -0.311096
      25A     -0.238107    26A     -0.214345    27A     -0.209486

  @DF-RHF Final Energy:  -379.15185247565711

   => Energetics <=

    Nuclear Repulsion Energy =            284.7897079786384893
    One-Electron Energy =               -1094.5165112834883985
    Two-Electron Energy =                 430.5749508291928009
    Total Energy =                       -379.1518524756571082
  Basis Set: (AUG-CC-PVTZ AUX)
    Blend: AUG-CC-PVTZ-RI
    Molecular point group: c1

    Geometry (in Angstrom), charge = -1, multiplicity = 1:

       Center              X                  Y                   Z               Mass
    ------------   -----------------  -----------------  -----------------  -----------------
         O           -0.547032101283     1.517014708034    -0.002424855430    15.994914619570
         O            2.154884598717     0.690892008034     0.002804044570    15.994914619570
         O            1.335069598717    -1.458230991966    -0.002159955430    15.994914619570
         C           -1.301842401283    -0.741817991966     0.001213044570    12.000000000000
         C           -2.708020401283    -0.159509991966     0.000965044570    12.000000000000
         C           -0.214913401283     0.328578008034    -0.000508955430    12.000000000000
         C            1.263285598717    -0.192622991966     0.000148044570    12.000000000000
         H           -1.124173401283    -1.391050991966    -0.862901955430     1.007825032230
         H           -1.123689401283    -1.388898991966     0.866876044570     1.007825032230
         H           -2.864912401283     0.471562008034    -0.877942955430     1.007825032230
         H           -3.467224401283    -0.950137991966     0.002218044570     1.007825032230
         H           -2.864348401283     0.473793008034     0.878376044570     1.007825032230

  Basis Set: AUG-CC-PVTZ
    Blend: AUG-CC-PVTZ
  Basis Set: (AUG-CC-PVTZ AUX)
    Blend: AUG-CC-PVTZ-JKFIT
	 Reference Energy          =    -379.1518524756571082 [Eh]
	 Singles Energy            =      -0.0000000000000000 [Eh]
	 Same-Spin Energy          =      -0.3737086373917206 [Eh]
	 Opposite-Spin Energy      =      -1.1396272771076337 [Eh]
	 Correlation Energy        =      -1.5133359144993543 [Eh]
	 Total Energy              =    -380.6651883901564588 [Eh]

	 ================> DF-SCS-MP2 Energies <==================
	-----------------------------------------------------------
	 SCS Same-Spin Scale       =       0.3333333333333333 [-]
	 SCS Opposite-Spin Scale   =       1.2000000000000000 [-]
	 SCS Same-Spin Energy      =      -0.1245695457972402 [Eh]
	 SCS Opposite-Spin Energy  =      -1.3675527325291603 [Eh]
	 SCS Correlation Energy    =      -1.4921222783264005 [Eh]
	 SCS Total Energy          =    -380.6439747539835139 [Eh]
	-----------------------------------------------------------

  Dipole Moment: [D]
     X:    -6.5256      Y:    -0.8228      Z:     0.0023     Total:     6.5773

*** Psi4 exiting successfully. Buy a developer a beer!
