                               Psi4 1.3.2 release

  ==> Input File <==

--------------------------------------------------------------------------
#psi4
#
memory 32 gb

molecule  {
-1 1
  O       -0.4223990     1.5478120    -0.0024970
  O        2.2587260     0.7160740     0.0027440
  O        1.4389110    -1.4330490    -0.0022200
  C       -1.1980010    -0.7166360     0.0011530
  C       -2.6041790    -0.1343280     0.0009050
  C       -0.1110720     0.3537600    -0.0005690
  C        1.4614364    -0.2006937     0.0001299
  H       -1.0203320    -1.3658690    -0.8629620
  H       -1.0198480    -1.3637170     0.8668160
  H       -2.7610710     0.4967440    -0.8780030
  H       -3.3633830    -0.9249560     0.0021580
  H       -2.7605070     0.4989750     0.8783160
units angstrom
no_reorient  #important for SAPT in psi4, default
symmetry c1  #important for SAPT in psi4, default
}

set PROPERTIES_ORIGIN ["COM"]
properties('MP2/aug-cc-pvtz', properties = ['dipole'])
--------------------------------------------------------------------------

    Molecular point group: c1
  Charge       = -1
  Multiplicity = 1
  Basis Set: AUG-CC-PVTZ
    Blend: AUG-CC-PVTZ
  Basis Set: (AUG-CC-PVTZ AUX)
    Blend: AUG-CC-PVTZ-JKFIT

    Orbital Energies [Eh]
    ---------------------

    Doubly Occupied:

       1A    -20.386793     2A    -20.326842     3A    -20.324708
       4A    -11.167206     5A    -11.156513     6A    -11.093178
       7A    -11.087193     8A     -1.221941     9A     -1.197464
      10A     -1.126281    11A     -0.907059    12A     -0.757324
      13A     -0.627694    14A     -0.535331    15A     -0.493228
      16A     -0.485304    17A     -0.468580    18A     -0.436174
      19A     -0.406462    20A     -0.398079    21A     -0.376704
      22A     -0.365979    23A     -0.327333    24A     -0.313282
      25A     -0.252922    26A     -0.229931    27A     -0.182398

  @DF-RHF Final Energy:  -379.14969558976145

   => Energetics <=

    Nuclear Repulsion Energy =            284.4813213768867399
    One-Electron Energy =               -1093.9582303417139428
    Two-Electron Energy =                 430.3272133750657531
    Total Energy =                       -379.1496955897614498
  Basis Set: (AUG-CC-PVTZ AUX)
    Blend: AUG-CC-PVTZ-RI
    Molecular point group: c1

    Geometry (in Angstrom), charge = -1, multiplicity = 1:

       Center              X                  Y                   Z               Mass
    ------------   -----------------  -----------------  -----------------  -----------------
         O           -0.540734740893     1.525690830777    -0.002440016702    15.994914619570
         O            2.140390259107     0.693952830777     0.002800983298    15.994914619570
         O            1.320575259107    -1.455170169223    -0.002163016702    15.994914619570
         C           -1.316336740893    -0.738757169223     0.001209983298    12.000000000000
         C           -2.722514740893    -0.156449169223     0.000961983298    12.000000000000
         C           -0.229407740893     0.331638830777    -0.000512016702    12.000000000000
         C            1.343100659107    -0.222814869223     0.000186883298    12.000000000000
         H           -1.138667740893    -1.387990169223    -0.862905016702     1.007825032230
         H           -1.138183740893    -1.385838169223     0.866872983298     1.007825032230
         H           -2.879406740893     0.474622830777    -0.877946016702     1.007825032230
         H           -3.481718740893    -0.947077169223     0.002214983298     1.007825032230
         H           -2.878842740893     0.476853830777     0.878372983298     1.007825032230

  Basis Set: AUG-CC-PVTZ
    Blend: AUG-CC-PVTZ
  Basis Set: (AUG-CC-PVTZ AUX)
    Blend: AUG-CC-PVTZ-JKFIT
	 Reference Energy          =    -379.1496955897614498 [Eh]
	 Singles Energy            =      -0.0000000000000000 [Eh]
	 Same-Spin Energy          =      -0.3724972826699052 [Eh]
	 Opposite-Spin Energy      =      -1.1361145889895599 [Eh]
	 Correlation Energy        =      -1.5086118716594652 [Eh]
	 Total Energy              =    -380.6583074614209181 [Eh]

	 ================> DF-SCS-MP2 Energies <==================
	-----------------------------------------------------------
	 SCS Same-Spin Scale       =       0.3333333333333333 [-]
	 SCS Opposite-Spin Scale   =       1.2000000000000000 [-]
	 SCS Same-Spin Energy      =      -0.1241657608899684 [Eh]
	 SCS Opposite-Spin Energy  =      -1.3633375067874718 [Eh]
	 SCS Correlation Energy    =      -1.4875032676774402 [Eh]
	 SCS Total Energy          =    -380.6371988574388752 [Eh]
	-----------------------------------------------------------

  Dipole Moment: [D]
     X:    -5.9200      Y:    -0.9804      Z:     0.0026     Total:     6.0006

*** Psi4 exiting successfully. Buy a developer a beer!
