                               Psi4 1.3.2 release

  ==> Input File <==

--------------------------------------------------------------------------
#psi4
#
memory 32 gb

molecule  {
-1 1
  O       -0.4223990     1.5478120    -0.0024970
  O        2.2587260     0.7160740     0.0027440
  O        1.4389110    -1.4330490    -0.0022200
  C       -1.1980010    -0.7166360     0.0011530
  C       -2.6041790    -0.1343280     0.0009050
  C       -0.0907785     0.3317578    -0.0446073
  C        1.3671270    -0.1674410     0.0000880
  H       -1.0203320    -1.3658690    -0.8629620
  H       -1.0198480    -1.3637170     0.8668160
  H       -2.7610710     0.4967440    -0.8780030
  H       -3.3633830    -0.9249560     0.0021580
  H       -2.7605070     0.4989750     0.8783160
units angstrom
no_reorient  #important for SAPT in psi4, default
symmetry c1  #important for SAPT in psi4, default
}

set PROPERTIES_ORIGIN ["COM"]
properties('MP2/aug-cc-pvtz', properties = ['dipole'])
--------------------------------------------------------------------------

    Molecular point group: c1
  Charge       = -1
  Multiplicity = 1
  Basis Set: AUG-CC-PVTZ
    Blend: AUG-CC-PVTZ
  Basis Set: (AUG-CC-PVTZ AUX)
    Blend: AUG-CC-PVTZ-JKFIT

    Orbital Energies [Eh]
    ---------------------

    Doubly Occupied:

       1A    -20.398005     2A    -20.323620     3A    -20.319549
       4A    -11.176180     5A    -11.165630     6A    -11.098786
       7A    -11.096089     8A     -1.213326     9A     -1.180160
      10A     -1.094822    11A     -0.914225    12A     -0.775277
      13A     -0.664052    14A     -0.542386    15A     -0.491848
      16A     -0.488188    17A     -0.468883    18A     -0.424267
      19A     -0.401392    20A     -0.398136    21A     -0.379829
      22A     -0.361582    23A     -0.322920    24A     -0.307427
      25A     -0.238714    26A     -0.215520    27A     -0.214613

  @DF-RHF Final Energy:  -379.14653754839384

   => Energetics <=

    Nuclear Repulsion Energy =            284.6849320395338623
    One-Electron Energy =               -1094.3120850346672341
    Two-Electron Energy =                 430.4806154467395913
    Total Energy =                       -379.1465375483938374
  Basis Set: (AUG-CC-PVTZ AUX)
    Blend: AUG-CC-PVTZ-RI
    Molecular point group: c1

    Geometry (in Angstrom), charge = -1, multiplicity = 1:

       Center              X                  Y                   Z               Mass
    ------------   -----------------  -----------------  -----------------  -----------------
         O           -0.531942850337     1.524354453530     0.002795997372    15.994914619570
         O            2.149182149663     0.692616453530     0.008036997372    15.994914619570
         O            1.329367149663    -1.456506546470     0.003072997372    15.994914619570
         C           -1.307544850337    -0.740093546470     0.006445997372    12.000000000000
         C           -2.713722850337    -0.157785546470     0.006197997372    12.000000000000
         C           -0.200322350337     0.308300253530    -0.039314302628    12.000000000000
         C            1.257583149663    -0.190898546470     0.005380997372    12.000000000000
         H           -1.129875850337    -1.389326546470    -0.857669002628     1.007825032230
         H           -1.129391850337    -1.387174546470     0.872108997372     1.007825032230
         H           -2.870614850337     0.473286453530    -0.872710002628     1.007825032230
         H           -3.472926850337    -0.948413546470     0.007450997372     1.007825032230
         H           -2.870050850337     0.475517453530     0.883608997372     1.007825032230

  Basis Set: AUG-CC-PVTZ
    Blend: AUG-CC-PVTZ
  Basis Set: (AUG-CC-PVTZ AUX)
    Blend: AUG-CC-PVTZ-JKFIT
	 Reference Energy          =    -379.1465375483938374 [Eh]
	 Singles Energy            =      -0.0000000000000000 [Eh]
	 Same-Spin Energy          =      -0.3745077622541871 [Eh]
	 Opposite-Spin Energy      =      -1.1416026409524880 [Eh]
	 Correlation Energy        =      -1.5161104032066750 [Eh]
	 Total Energy              =    -380.6626479516004906 [Eh]

	 ================> DF-SCS-MP2 Energies <==================
	-----------------------------------------------------------
	 SCS Same-Spin Scale       =       0.3333333333333333 [-]
	 SCS Opposite-Spin Scale   =       1.2000000000000000 [-]
	 SCS Same-Spin Energy      =      -0.1248359207513957 [Eh]
	 SCS Opposite-Spin Energy  =      -1.3699231691429856 [Eh]
	 SCS Correlation Energy    =      -1.4947590898943814 [Eh]
	 SCS Total Energy          =    -380.6412966382882246 [Eh]
	-----------------------------------------------------------

  Dipole Moment: [D]
     X:    -6.5123      Y:    -0.9178      Z:    -0.0594     Total:     6.5769

*** Psi4 exiting successfully. Buy a developer a beer!
