                               Psi4 1.3.2 release

  ==> Input File <==

--------------------------------------------------------------------------
#psi4
#
memory 32 gb

molecule  {
-1 1
  O       -0.4638812     1.5362195    -0.0024722
  O        2.2587260     0.7160740     0.0027440
  O        1.4389110    -1.4330490    -0.0022200
  C       -1.1980010    -0.7166360     0.0011530
  C       -2.6041790    -0.1343280     0.0009050
  C       -0.1110720     0.3537600    -0.0005690
  C        1.3671270    -0.1674410     0.0000880
  H       -1.0203320    -1.3658690    -0.8629620
  H       -1.0198480    -1.3637170     0.8668160
  H       -2.7610710     0.4967440    -0.8780030
  H       -3.3633830    -0.9249560     0.0021580
  H       -2.7605070     0.4989750     0.8783160
units angstrom
no_reorient  #important for SAPT in psi4, default
symmetry c1  #important for SAPT in psi4, default
}

set PROPERTIES_ORIGIN ["COM"]
properties('MP2/aug-cc-pvtz', properties = ['dipole'])
--------------------------------------------------------------------------

    Molecular point group: c1
  Charge       = -1
  Multiplicity = 1
  Basis Set: AUG-CC-PVTZ
    Blend: AUG-CC-PVTZ
  Basis Set: (AUG-CC-PVTZ AUX)
    Blend: AUG-CC-PVTZ-JKFIT

    Orbital Energies [Eh]
    ---------------------

    Doubly Occupied:

       1A    -20.399069     2A    -20.323705     3A    -20.319891
       4A    -11.173071     5A    -11.166916     6A    -11.096858
       7A    -11.092483     8A     -1.226562     9A     -1.183845
      10A     -1.094576    11A     -0.912339    12A     -0.770983
      13A     -0.657075    14A     -0.544924    15A     -0.492266
      16A     -0.490944    17A     -0.471417    18A     -0.423413
      19A     -0.401486    20A     -0.396780    21A     -0.380526
      22A     -0.360405    23A     -0.332536    24A     -0.311004
      25A     -0.238934    26A     -0.215009    27A     -0.210048

  @DF-RHF Final Energy:  -379.15146673283300

   => Energetics <=

    Nuclear Repulsion Energy =            284.8131321183219029
    One-Electron Energy =               -1094.5550667427939970
    Two-Electron Energy =                 430.5904678916391504
    Total Energy =                       -379.1514667328330006
  Basis Set: (AUG-CC-PVTZ AUX)
    Blend: AUG-CC-PVTZ-RI
    Molecular point group: c1

    Geometry (in Angstrom), charge = -1, multiplicity = 1:

       Center              X                  Y                   Z               Mass
    ------------   -----------------  -----------------  -----------------  -----------------
         O           -0.564446714266     1.511983866598    -0.002414166197    15.994914619570
         O            2.158160485734     0.691838366598     0.002802033803    15.994914619570
         O            1.338345485734    -1.457284633402    -0.002161966197    15.994914619570
         C           -1.298566514266    -0.740871633402     0.001211033803    12.000000000000
         C           -2.704744514266    -0.158563633402     0.000963033803    12.000000000000
         C           -0.211637514266     0.329524366598    -0.000510966197    12.000000000000
         C            1.266561485734    -0.191676633402     0.000146033803    12.000000000000
         H           -1.120897514266    -1.390104633402    -0.862903966197     1.007825032230
         H           -1.120413514266    -1.387952633402     0.866874033803     1.007825032230
         H           -2.861636514266     0.472508366598    -0.877944966197     1.007825032230
         H           -3.463948514266    -0.949191633402     0.002216033803     1.007825032230
         H           -2.861072514266     0.474739366598     0.878374033803     1.007825032230

  Basis Set: AUG-CC-PVTZ
    Blend: AUG-CC-PVTZ
  Basis Set: (AUG-CC-PVTZ AUX)
    Blend: AUG-CC-PVTZ-JKFIT
	 Reference Energy          =    -379.1514667328330006 [Eh]
	 Singles Energy            =      -0.0000000000000000 [Eh]
	 Same-Spin Energy          =      -0.3737538612453642 [Eh]
	 Opposite-Spin Energy      =      -1.1397089338674866 [Eh]
	 Correlation Energy        =      -1.5134627951128508 [Eh]
	 Total Energy              =    -380.6649295279458443 [Eh]

	 ================> DF-SCS-MP2 Energies <==================
	-----------------------------------------------------------
	 SCS Same-Spin Scale       =       0.3333333333333333 [-]
	 SCS Opposite-Spin Scale   =       1.2000000000000000 [-]
	 SCS Same-Spin Energy      =      -0.1245846204151214 [Eh]
	 SCS Opposite-Spin Energy  =      -1.3676507206409838 [Eh]
	 SCS Correlation Energy    =      -1.4922353410561051 [Eh]
	 SCS Total Energy          =    -380.6437020738891306 [Eh]
	-----------------------------------------------------------

  Dipole Moment: [D]
     X:    -6.4779      Y:    -0.8158      Z:     0.0022     Total:     6.5291

*** Psi4 exiting successfully. Buy a developer a beer!
