                               Psi4 1.3.2 release

  ==> Input File <==

--------------------------------------------------------------------------
#psi4
#
memory 32 gb

molecule  {
-1 1
  O       -0.4223990     1.5478120    -0.0024970
  O        2.2587260     0.7160740     0.0027440
  O        1.4389110    -1.4330490    -0.0022200
  C       -1.1980010    -0.7166360     0.0011530
  C       -2.6041790    -0.1343280     0.0009050
  C       -0.0606127     0.1602303    -0.0002565
  C        1.3671270    -0.1674410     0.0000880
  H       -1.0203320    -1.3658690    -0.8629620
  H       -1.0198480    -1.3637170     0.8668160
  H       -2.7610710     0.4967440    -0.8780030
  H       -3.3633830    -0.9249560     0.0021580
  H       -2.7605070     0.4989750     0.8783160
units angstrom
no_reorient  #important for SAPT in psi4, default
symmetry c1  #important for SAPT in psi4, default
}

set PROPERTIES_ORIGIN ["COM"]
properties('MP2/aug-cc-pvtz', properties = ['dipole'])
--------------------------------------------------------------------------

    Molecular point group: c1
  Charge       = -1
  Multiplicity = 1
  Basis Set: AUG-CC-PVTZ
    Blend: AUG-CC-PVTZ
  Basis Set: (AUG-CC-PVTZ AUX)
    Blend: AUG-CC-PVTZ-JKFIT

    Orbital Energies [Eh]
    ---------------------

    Doubly Occupied:

       1A    -20.383946     2A    -20.329641     3A    -20.324783
       4A    -11.192018     5A    -11.169977     6A    -11.106545
       7A    -11.104959     8A     -1.204032     9A     -1.110241
      10A     -1.101729    11A     -0.931352    12A     -0.803443
      13A     -0.691417    14A     -0.542839    15A     -0.502585
      16A     -0.485925    17A     -0.451848    18A     -0.425430
      19A     -0.413585    20A     -0.405686    21A     -0.369838
      22A     -0.355354    23A     -0.287359    24A     -0.266559
      25A     -0.243569    26A     -0.235944    27A     -0.218586

  @DF-RHF Final Energy:  -379.07933865975042

   => Energetics <=

    Nuclear Repulsion Energy =            284.5434465757046496
    One-Electron Energy =               -1093.9271918590734458
    Two-Electron Energy =                 430.3044066236184335
    Total Energy =                       -379.0793386597504195
  Basis Set: (AUG-CC-PVTZ AUX)
    Blend: AUG-CC-PVTZ-RI
    Molecular point group: c1

    Geometry (in Angstrom), charge = -1, multiplicity = 1:

       Center              X                  Y                   Z               Mass
    ------------   -----------------  -----------------  -----------------  -----------------
         O           -0.535526058973     1.544729143393    -0.002472159601    15.994914619570
         O            2.145598941027     0.712991143393     0.002768840399    15.994914619570
         O            1.325783941027    -1.436131856607    -0.002195159601    15.994914619570
         C           -1.311128058973    -0.719718856607     0.001177840399    12.000000000000
         C           -2.717306058973    -0.137410856607     0.000929840399    12.000000000000
         C           -0.173739758973     0.157147443393    -0.000231659601    12.000000000000
         C            1.253999941027    -0.170523856607     0.000112840399    12.000000000000
         H           -1.133459058973    -1.368951856607    -0.862937159601     1.007825032230
         H           -1.132975058973    -1.366799856607     0.866840840399     1.007825032230
         H           -2.874198058973     0.493661143393    -0.877978159601     1.007825032230
         H           -3.476510058973    -0.928038856607     0.002182840399     1.007825032230
         H           -2.873634058973     0.495892143393     0.878340840399     1.007825032230

  Basis Set: AUG-CC-PVTZ
    Blend: AUG-CC-PVTZ
  Basis Set: (AUG-CC-PVTZ AUX)
    Blend: AUG-CC-PVTZ-JKFIT
	 Reference Energy          =    -379.0793386597504195 [Eh]
	 Singles Energy            =      -0.0000000000000000 [Eh]
	 Same-Spin Energy          =      -0.3816045787262268 [Eh]
	 Opposite-Spin Energy      =      -1.1563226674296128 [Eh]
	 Correlation Energy        =      -1.5379272461558395 [Eh]
	 Total Energy              =    -380.6172659059062653 [Eh]

	 ================> DF-SCS-MP2 Energies <==================
	-----------------------------------------------------------
	 SCS Same-Spin Scale       =       0.3333333333333333 [-]
	 SCS Opposite-Spin Scale   =       1.2000000000000000 [-]
	 SCS Same-Spin Energy      =      -0.1272015262420756 [Eh]
	 SCS Opposite-Spin Energy  =      -1.3875872009155352 [Eh]
	 SCS Correlation Energy    =      -1.5147887271576108 [Eh]
	 SCS Total Energy          =    -380.5941273869080419 [Eh]
	-----------------------------------------------------------

  Dipole Moment: [D]
     X:    -6.5634      Y:    -1.5105      Z:     0.0039     Total:     6.7350

*** Psi4 exiting successfully. Buy a developer a beer!
