                               Psi4 1.3.2 release

  ==> Input File <==

--------------------------------------------------------------------------
#psi4
#
memory 32 gb

molecule  {
-1 1
  O       -0.4223990     1.5478120    -0.0024970
  O        2.2587260     0.7160740     0.0027440
  O        1.4830364    -1.4297729    -0.0021649
  C       -1.1980010    -0.7166360     0.0011530
  C       -2.6041790    -0.1343280     0.0009050
  C       -0.1110720     0.3537600    -0.0005690
  C        1.3671270    -0.1674410     0.0000880
  H       -1.0203320    -1.3658690    -0.8629620
  H       -1.0198480    -1.3637170     0.8668160
  H       -2.7610710     0.4967440    -0.8780030
  H       -3.3633830    -0.9249560     0.0021580
  H       -2.7605070     0.4989750     0.8783160
units angstrom
no_reorient  #important for SAPT in psi4, default
symmetry c1  #important for SAPT in psi4, default
}

set PROPERTIES_ORIGIN ["COM"]
properties('MP2/aug-cc-pvtz', properties = ['dipole'])
--------------------------------------------------------------------------

    Molecular point group: c1
  Charge       = -1
  Multiplicity = 1
  Basis Set: AUG-CC-PVTZ
    Blend: AUG-CC-PVTZ
  Basis Set: (AUG-CC-PVTZ AUX)
    Blend: AUG-CC-PVTZ-JKFIT

    Orbital Energies [Eh]
    ---------------------

    Doubly Occupied:

       1A    -20.400941     2A    -20.320675     3A    -20.315724
       4A    -11.175406     5A    -11.163479     6A    -11.099628
       7A    -11.096238     8A     -1.227394     9A     -1.181787
      10A     -1.089087    11A     -0.915936    12A     -0.773437
      13A     -0.657916    14A     -0.546314    15A     -0.493331
      16A     -0.491998    17A     -0.470269    18A     -0.422291
      19A     -0.401879    20A     -0.397424    21A     -0.383494
      22A     -0.361381    23A     -0.332860    24A     -0.312220
      25A     -0.233739    26A     -0.211103    27A     -0.210790

  @DF-RHF Final Energy:  -379.15197840542731

   => Energetics <=

    Nuclear Repulsion Energy =            284.4451931031774166
    One-Electron Energy =               -1093.8208604416970502
    Two-Electron Energy =                 430.2236889330923191
    Total Energy =                       -379.1519784054273146
  Basis Set: (AUG-CC-PVTZ AUX)
    Blend: AUG-CC-PVTZ-RI
    Molecular point group: c1

    Geometry (in Angstrom), charge = -1, multiplicity = 1:

       Center              X                  Y                   Z               Mass
    ------------   -----------------  -----------------  -----------------  -----------------
         O           -0.536518600702     1.521222249796    -0.002443763537    15.994914619570
         O            2.144606399298     0.689484249796     0.002797236463    15.994914619570
         O            1.368916799298    -1.456362650204    -0.002111663537    15.994914619570
         C           -1.312120600702    -0.743225750204     0.001206236463    12.000000000000
         C           -2.718298600702    -0.160917750204     0.000958236463    12.000000000000
         C           -0.225191600702     0.327170249796    -0.000515763537    12.000000000000
         C            1.253007399298    -0.194030750204     0.000141236463    12.000000000000
         H           -1.134451600702    -1.392458750204    -0.862908763537     1.007825032230
         H           -1.133967600702    -1.390306750204     0.866869236463     1.007825032230
         H           -2.875190600702     0.470154249796    -0.877949763537     1.007825032230
         H           -3.477502600702    -0.951545750204     0.002211236463     1.007825032230
         H           -2.874626600702     0.472385249796     0.878369236463     1.007825032230

  Basis Set: AUG-CC-PVTZ
    Blend: AUG-CC-PVTZ
  Basis Set: (AUG-CC-PVTZ AUX)
    Blend: AUG-CC-PVTZ-JKFIT
	 Reference Energy          =    -379.1519784054273146 [Eh]
	 Singles Energy            =      -0.0000000000000000 [Eh]
	 Same-Spin Energy          =      -0.3735803094786949 [Eh]
	 Opposite-Spin Energy      =      -1.1394712546823249 [Eh]
	 Correlation Energy        =      -1.5130515641610198 [Eh]
	 Total Energy              =    -380.6650299695883177 [Eh]

	 ================> DF-SCS-MP2 Energies <==================
	-----------------------------------------------------------
	 SCS Same-Spin Scale       =       0.3333333333333333 [-]
	 SCS Opposite-Spin Scale   =       1.2000000000000000 [-]
	 SCS Same-Spin Energy      =      -0.1245267698262316 [Eh]
	 SCS Opposite-Spin Energy  =      -1.3673655056187899 [Eh]
	 SCS Correlation Energy    =      -1.4918922754450215 [Eh]
	 SCS Total Energy          =    -380.6438706808723396 [Eh]
	-----------------------------------------------------------

  Dipole Moment: [D]
     X:    -6.7118      Y:    -0.8104      Z:     0.0022     Total:     6.7606

*** Psi4 exiting successfully. Buy a developer a beer!
