                               Psi4 1.3.2 release

  ==> Input File <==

--------------------------------------------------------------------------
#psi4
#
memory 32 gb

molecule  {
-1 1
  O       -0.4223990     1.5478120    -0.0024970
  O        2.2587260     0.7160740     0.0027440
  O        1.3946981    -1.4347832    -0.0022723
  C       -1.1980010    -0.7166360     0.0011530
  C       -2.6041790    -0.1343280     0.0009050
  C       -0.1110720     0.3537600    -0.0005690
  C        1.3671270    -0.1674410     0.0000880
  H       -1.0203320    -1.3658690    -0.8629620
  H       -1.0198480    -1.3637170     0.8668160
  H       -2.7610710     0.4967440    -0.8780030
  H       -3.3633830    -0.9249560     0.0021580
  H       -2.7605070     0.4989750     0.8783160
units angstrom
no_reorient  #important for SAPT in psi4, default
symmetry c1  #important for SAPT in psi4, default
}

set PROPERTIES_ORIGIN ["COM"]
properties('MP2/aug-cc-pvtz', properties = ['dipole'])
--------------------------------------------------------------------------

    Molecular point group: c1
  Charge       = -1
  Multiplicity = 1
  Basis Set: AUG-CC-PVTZ
    Blend: AUG-CC-PVTZ
  Basis Set: (AUG-CC-PVTZ AUX)
    Blend: AUG-CC-PVTZ-JKFIT

    Orbital Energies [Eh]
    ---------------------

    Doubly Occupied:

       1A    -20.397046     2A    -20.323608     3A    -20.320669
       4A    -11.169898     5A    -11.165828     6A    -11.096921
       7A    -11.092621     8A     -1.224622     9A     -1.182294
      10A     -1.096857    11A     -0.912457    12A     -0.769465
      13A     -0.655417    14A     -0.543362    15A     -0.491054
      16A     -0.490468    17A     -0.470892    18A     -0.423835
      19A     -0.401562    20A     -0.397612    21A     -0.379964
      22A     -0.359932    23A     -0.330830    24A     -0.309931
      25A     -0.240576    26A     -0.216182    27A     -0.206887

  @DF-RHF Final Energy:  -379.15135417780118

   => Energetics <=

    Nuclear Repulsion Energy =            285.1268565859714954
    One-Electron Energy =               -1095.2148436538132046
    Two-Electron Energy =                 430.9366328900405279
    Total Energy =                       -379.1513541778011813
  Basis Set: (AUG-CC-PVTZ AUX)
    Blend: AUG-CC-PVTZ-RI
    Molecular point group: c1

    Geometry (in Angstrom), charge = -1, multiplicity = 1:

       Center              X                  Y                   Z               Mass
    ------------   -----------------  -----------------  -----------------  -----------------
         O           -0.522532167794     1.522015520945    -0.002426759102    15.994914619570
         O            2.158592832206     0.690277520945     0.002814240898    15.994914619570
         O            1.294564932206    -1.460579679055    -0.002202059102    15.994914619570
         C           -1.298134167794    -0.742432479055     0.001223240898    12.000000000000
         C           -2.704312167794    -0.160124479055     0.000975240898    12.000000000000
         C           -0.211205167794     0.327963520945    -0.000498759102    12.000000000000
         C            1.266993832206    -0.193237479055     0.000158240898    12.000000000000
         H           -1.120465167794    -1.391665479055    -0.862891759102     1.007825032230
         H           -1.119981167794    -1.389513479055     0.866886240898     1.007825032230
         H           -2.861204167794     0.470947520945    -0.877932759102     1.007825032230
         H           -3.463516167794    -0.950752479055     0.002228240898     1.007825032230
         H           -2.860640167794     0.473178520945     0.878386240898     1.007825032230

  Basis Set: AUG-CC-PVTZ
    Blend: AUG-CC-PVTZ
  Basis Set: (AUG-CC-PVTZ AUX)
    Blend: AUG-CC-PVTZ-JKFIT
	 Reference Energy          =    -379.1513541778011813 [Eh]
	 Singles Energy            =      -0.0000000000000000 [Eh]
	 Same-Spin Energy          =      -0.3738009995841679 [Eh]
	 Opposite-Spin Energy      =      -1.1397163508678294 [Eh]
	 Correlation Energy        =      -1.5135173504519974 [Eh]
	 Total Energy              =    -380.6648715282531725 [Eh]

	 ================> DF-SCS-MP2 Energies <==================
	-----------------------------------------------------------
	 SCS Same-Spin Scale       =       0.3333333333333333 [-]
	 SCS Opposite-Spin Scale   =       1.2000000000000000 [-]
	 SCS Same-Spin Energy      =      -0.1246003331947226 [Eh]
	 SCS Opposite-Spin Energy  =      -1.3676596210413952 [Eh]
	 SCS Correlation Energy    =      -1.4922599542361179 [Eh]
	 SCS Total Energy          =    -380.6436141320372712 [Eh]
	-----------------------------------------------------------

  Dipole Moment: [D]
     X:    -6.4326      Y:    -0.8501      Z:     0.0024     Total:     6.4885

*** Psi4 exiting successfully. Buy a developer a beer!
