                               Psi4 1.3.2 release

  ==> Input File <==

--------------------------------------------------------------------------
#psi4
#
memory 32 gb

molecule  {
-1 1
  O       -0.4223990     1.5478120    -0.0024970
  O        2.2587260     0.7160740     0.0027440
  O        1.4389110    -1.4330490    -0.0022200
  C       -1.1980010    -0.7166360     0.0011530
  C       -2.6041790    -0.1343280     0.0009050
  C       -0.1110720     0.3537600    -0.0005690
  C        1.3671270    -0.1674410     0.0000880
  H       -1.0203320    -1.3658690    -0.8629620
  H       -1.0198480    -1.3637170     0.8668160
  H       -2.7610710     0.4967440    -0.8780030
  H       -3.3633830    -0.9249560     0.0021580
  H       -2.7605070     0.4989750     0.8783160
units angstrom
no_reorient  #important for SAPT in psi4, default
symmetry c1  #important for SAPT in psi4, default
}

set PROPERTIES_ORIGIN ["COM"]
properties('MP2/aug-cc-pvtz', properties = ['dipole'])
--------------------------------------------------------------------------

    Molecular point group: c1
  Charge       = -1
  Multiplicity = 1
  Basis Set: AUG-CC-PVTZ
    Blend: AUG-CC-PVTZ
  Basis Set: (AUG-CC-PVTZ AUX)
    Blend: AUG-CC-PVTZ-JKFIT

    Orbital Energies [Eh]
    ---------------------

    Doubly Occupied:

       1A    -20.399018     2A    -20.322181     3A    -20.318214
       4A    -11.172669     5A    -11.164650     6A    -11.098296
       7A    -11.094444     8A     -1.225999     9A     -1.182018
      10A     -1.093012    11A     -0.914214    12A     -0.771478
      13A     -0.656654    14A     -0.544855    15A     -0.491904
      16A     -0.491472    17A     -0.470619    18A     -0.422977
      19A     -0.401676    20A     -0.397650    21A     -0.381755
      22A     -0.360685    23A     -0.331886    24A     -0.311123
      25A     -0.237263    26A     -0.213673    27A     -0.208892

  @DF-RHF Final Energy:  -379.15206279603296

   => Energetics <=

    Nuclear Repulsion Energy =            284.7732499746056192
    One-Electron Energy =               -1094.4920697278519128
    Two-Electron Energy =                 430.5667569572133289
    Total Energy =                       -379.1520627960329648
  Basis Set: (AUG-CC-PVTZ AUX)
    Blend: AUG-CC-PVTZ-RI
    Molecular point group: c1

    Geometry (in Angstrom), charge = -1, multiplicity = 1:

       Center              X                  Y                   Z               Mass
    ------------   -----------------  -----------------  -----------------  -----------------
         O           -0.529532311101     1.521740948399    -0.002435039661    15.994914619570
         O            2.151592688899     0.690002948399     0.002805960339    15.994914619570
         O            1.331777688899    -1.459120051601    -0.002158039661    15.994914619570
         C           -1.305134311101    -0.742707051601     0.001214960339    12.000000000000
         C           -2.711312311101    -0.160399051601     0.000966960339    12.000000000000
         C           -0.218205311101     0.327688948399    -0.000507039661    12.000000000000
         C            1.259993688899    -0.193512051601     0.000149960339    12.000000000000
         H           -1.127465311101    -1.391940051601    -0.862900039661     1.007825032230
         H           -1.126981311101    -1.389788051601     0.866877960339     1.007825032230
         H           -2.868204311101     0.470672948399    -0.877941039661     1.007825032230
         H           -3.470516311101    -0.951027051601     0.002219960339     1.007825032230
         H           -2.867640311101     0.472903948399     0.878377960339     1.007825032230

  Basis Set: AUG-CC-PVTZ
    Blend: AUG-CC-PVTZ
  Basis Set: (AUG-CC-PVTZ AUX)
    Blend: AUG-CC-PVTZ-JKFIT
	 Reference Energy          =    -379.1520627960329648 [Eh]
	 Singles Energy            =      -0.0000000000000000 [Eh]
	 Same-Spin Energy          =      -0.3736712602730458 [Eh]
	 Opposite-Spin Energy      =      -1.1395606040474662 [Eh]
	 Correlation Energy        =      -1.5132318643205118 [Eh]
	 Total Energy              =    -380.6652946603534815 [Eh]

	 ================> DF-SCS-MP2 Energies <==================
	-----------------------------------------------------------
	 SCS Same-Spin Scale       =       0.3333333333333333 [-]
	 SCS Opposite-Spin Scale   =       1.2000000000000000 [-]
	 SCS Same-Spin Energy      =      -0.1245570867576819 [Eh]
	 SCS Opposite-Spin Energy  =      -1.3674727248569594 [Eh]
	 SCS Correlation Energy    =      -1.4920298116146413 [Eh]
	 SCS Total Energy          =    -380.6440926076476217 [Eh]
	-----------------------------------------------------------

  Dipole Moment: [D]
     X:    -6.5732      Y:    -0.8290      Z:     0.0023     Total:     6.6253

*** Psi4 exiting successfully. Buy a developer a beer!
