                               Psi4 1.3.2 release

  ==> Input File <==

--------------------------------------------------------------------------
#psi4
#
memory 32 gb

molecule  {
-1 1
  O       -0.4223990     1.5478120    -0.0024970
  O        2.2587260     0.7160740     0.0027440
  O        1.4389110    -1.4330490    -0.0022200
  C       -1.1980010    -0.7166360     0.0011530
  C       -2.6041790    -0.1343280     0.0009050
  C       -0.1110720     0.3537600    -0.0005690
  C        1.2728176    -0.1341883     0.0000461
  H       -1.0203320    -1.3658690    -0.8629620
  H       -1.0198480    -1.3637170     0.8668160
  H       -2.7610710     0.4967440    -0.8780030
  H       -3.3633830    -0.9249560     0.0021580
  H       -2.7605070     0.4989750     0.8783160
units angstrom
no_reorient  #important for SAPT in psi4, default
symmetry c1  #important for SAPT in psi4, default
}

set PROPERTIES_ORIGIN ["COM"]
properties('MP2/aug-cc-pvtz', properties = ['dipole'])
--------------------------------------------------------------------------

    Molecular point group: c1
  Charge       = -1
  Multiplicity = 1
  Basis Set: AUG-CC-PVTZ
    Blend: AUG-CC-PVTZ
  Basis Set: (AUG-CC-PVTZ AUX)
    Blend: AUG-CC-PVTZ-JKFIT

    Orbital Energies [Eh]
    ---------------------

    Doubly Occupied:

       1A    -20.409093     2A    -20.322157     3A    -20.316838
       4A    -11.181665     5A    -11.166305     6A    -11.102011
       7A    -11.099565     8A     -1.235702     9A     -1.159940
      10A     -1.062650    11A     -0.920035    12A     -0.790493
      13A     -0.686391    14A     -0.553402    15A     -0.497280
      16A     -0.496759    17A     -0.465779    18A     -0.421108
      19A     -0.404675    20A     -0.387769    21A     -0.383033
      22A     -0.356962    23A     -0.325838    24A     -0.308642
      25A     -0.230228    26A     -0.223735    27A     -0.200056

  @DF-RHF Final Energy:  -379.13338589035112

   => Energetics <=

    Nuclear Repulsion Energy =            285.0848795379149010
    One-Electron Energy =               -1095.0203042330927019
    Two-Electron Energy =                 430.8020388048266227
    Total Energy =                       -379.1333858903511214
  Basis Set: (AUG-CC-PVTZ AUX)
    Blend: AUG-CC-PVTZ-RI
    Molecular point group: c1

    Geometry (in Angstrom), charge = -1, multiplicity = 1:

       Center              X                  Y                   Z               Mass
    ------------   -----------------  -----------------  -----------------  -----------------
         O           -0.518329881309     1.517791066021    -0.002430062619    15.994914619570
         O            2.162795118691     0.686053066021     0.002810937381    15.994914619570
         O            1.342980118691    -1.463069933979    -0.002153062619    15.994914619570
         C           -1.293931881309    -0.746656933979     0.001219937381    12.000000000000
         C           -2.700109881309    -0.164348933979     0.000971937381    12.000000000000
         C           -0.207002881309     0.323739066021    -0.000502062619    12.000000000000
         C            1.176886718691    -0.164209233979     0.000113037381    12.000000000000
         H           -1.116262881309    -1.395889933979    -0.862895062619     1.007825032230
         H           -1.115778881309    -1.393737933979     0.866882937381     1.007825032230
         H           -2.857001881309     0.466723066021    -0.877936062619     1.007825032230
         H           -3.459313881309    -0.954976933979     0.002224937381     1.007825032230
         H           -2.856437881309     0.468954066021     0.878382937381     1.007825032230

  Basis Set: AUG-CC-PVTZ
    Blend: AUG-CC-PVTZ
  Basis Set: (AUG-CC-PVTZ AUX)
    Blend: AUG-CC-PVTZ-JKFIT
	 Reference Energy          =    -379.1333858903511214 [Eh]
	 Singles Energy            =      -0.0000000000000000 [Eh]
	 Same-Spin Energy          =      -0.3762408972216047 [Eh]
	 Opposite-Spin Energy      =      -1.1458090065591779 [Eh]
	 Correlation Energy        =      -1.5220499037807826 [Eh]
	 Total Energy              =    -380.6554357941319040 [Eh]

	 ================> DF-SCS-MP2 Energies <==================
	-----------------------------------------------------------
	 SCS Same-Spin Scale       =       0.3333333333333333 [-]
	 SCS Opposite-Spin Scale   =       1.2000000000000000 [-]
	 SCS Same-Spin Energy      =      -0.1254136324072015 [Eh]
	 SCS Opposite-Spin Energy  =      -1.3749708078710134 [Eh]
	 SCS Correlation Energy    =      -1.5003844402782149 [Eh]
	 SCS Total Energy          =    -380.6337703306293179 [Eh]
	-----------------------------------------------------------

  Dipole Moment: [D]
     X:    -6.9784      Y:    -0.7381      Z:     0.0021     Total:     7.0173

*** Psi4 exiting successfully. Buy a developer a beer!
