                               Psi4 1.3.2 release

  ==> Input File <==

--------------------------------------------------------------------------
#psi4
#
memory 32 gb

molecule  {
-1 1
  O       -0.4223990     1.5478120    -0.0024970
  O        2.2587260     0.7160740     0.0027440
  O        1.4389110    -1.4330490    -0.0022200
  C       -1.1980010    -0.7166360     0.0011530
  C       -2.6041790    -0.1343280     0.0009050
  C       -0.1110720     0.3537600    -0.0005690
  C        1.5557457    -0.2339464     0.0001718
  H       -1.0203320    -1.3658690    -0.8629620
  H       -1.0198480    -1.3637170     0.8668160
  H       -2.7610710     0.4967440    -0.8780030
  H       -3.3633830    -0.9249560     0.0021580
  H       -2.7605070     0.4989750     0.8783160
units angstrom
no_reorient  #important for SAPT in psi4, default
symmetry c1  #important for SAPT in psi4, default
}

set PROPERTIES_ORIGIN ["COM"]
properties('MP2/aug-cc-pvtz', properties = ['dipole'])
--------------------------------------------------------------------------

    Molecular point group: c1
  Charge       = -1
  Multiplicity = 1
  Basis Set: AUG-CC-PVTZ
    Blend: AUG-CC-PVTZ
  Basis Set: (AUG-CC-PVTZ AUX)
    Blend: AUG-CC-PVTZ-JKFIT

    Orbital Energies [Eh]
    ---------------------

    Doubly Occupied:

       1A    -20.372047     2A    -20.337542     3A    -20.337365
       4A    -11.175887     5A    -11.133288     6A    -11.086451
       7A    -11.077555     8A     -1.239397     9A     -1.190316
      10A     -1.161338    11A     -0.898240    12A     -0.744651
      13A     -0.603366    14A     -0.528366    15A     -0.499735
      16A     -0.477408    17A     -0.464189    18A     -0.451951
      19A     -0.422876    20A     -0.392722    21A     -0.370703
      22A     -0.363396    23A     -0.317386    24A     -0.313061
      25A     -0.270359    26A     -0.249141    27A     -0.152075

  @DF-RHF Final Energy:  -379.13230649457228

   => Energetics <=

    Nuclear Repulsion Energy =            284.1347646086767327
    One-Electron Energy =               -1093.2725234677623121
    Two-Electron Energy =                 430.0054523645133031
    Total Energy =                       -379.1323064945722763
  Basis Set: (AUG-CC-PVTZ AUX)
    Blend: AUG-CC-PVTZ-RI
    Molecular point group: c1

    Geometry (in Angstrom), charge = -1, multiplicity = 1:

       Center              X                  Y                   Z               Mass
    ------------   -----------------  -----------------  -----------------  -----------------
         O           -0.551937158806     1.529640713155    -0.002444993744    15.994914619570
         O            2.129187841194     0.697902713155     0.002796006256    15.994914619570
         O            1.309372841194    -1.451220286845    -0.002167993744    15.994914619570
         C           -1.327539158806    -0.734807286845     0.001205006256    12.000000000000
         C           -2.733717158806    -0.152499286845     0.000957006256    12.000000000000
         C           -0.240610158806     0.335588713155    -0.000516993744    12.000000000000
         C            1.426207541194    -0.252117686845     0.000223806256    12.000000000000
         H           -1.149870158806    -1.384040286845    -0.862909993744     1.007825032230
         H           -1.149386158806    -1.381888286845     0.866868006256     1.007825032230
         H           -2.890609158806     0.478572713155    -0.877950993744     1.007825032230
         H           -3.492921158806    -0.943127286845     0.002210006256     1.007825032230
         H           -2.890045158806     0.480803713155     0.878368006256     1.007825032230

  Basis Set: AUG-CC-PVTZ
    Blend: AUG-CC-PVTZ
  Basis Set: (AUG-CC-PVTZ AUX)
    Blend: AUG-CC-PVTZ-JKFIT
	 Reference Energy          =    -379.1323064945722763 [Eh]
	 Singles Energy            =      -0.0000000000000000 [Eh]
	 Same-Spin Energy          =      -0.3723689849554140 [Eh]
	 Opposite-Spin Energy      =      -1.1348023513339665 [Eh]
	 Correlation Energy        =      -1.5071713362893804 [Eh]
	 Total Energy              =    -380.6394778308616651 [Eh]

	 ================> DF-SCS-MP2 Energies <==================
	-----------------------------------------------------------
	 SCS Same-Spin Scale       =       0.3333333333333333 [-]
	 SCS Opposite-Spin Scale   =       1.2000000000000000 [-]
	 SCS Same-Spin Energy      =      -0.1241229949851380 [Eh]
	 SCS Opposite-Spin Energy  =      -1.3617628216007598 [Eh]
	 SCS Correlation Energy    =      -1.4858858165858977 [Eh]
	 SCS Total Energy          =    -380.6181923111581682 [Eh]
	-----------------------------------------------------------

  Dipole Moment: [D]
     X:    -5.0236      Y:    -1.1888      Z:     0.0029     Total:     5.1624

*** Psi4 exiting successfully. Buy a developer a beer!
