                               Psi4 1.3.2 release

  ==> Input File <==

--------------------------------------------------------------------------
#psi4
#
memory 32 gb

molecule  {
-1 1
  O       -0.4223990     1.5478120    -0.0024970
  O        2.2587260     0.7160740     0.0027440
  O        1.4389110    -1.4330490    -0.0022200
  C       -1.1980010    -0.7166360     0.0011530
  C       -2.5356081     0.0094675     0.0007004
  C       -0.1110720     0.3537600    -0.0005690
  C        1.3671270    -0.1674410     0.0000880
  H       -1.0203320    -1.3658690    -0.8629620
  H       -1.0198480    -1.3637170     0.8668160
  H       -2.7610710     0.4967440    -0.8780030
  H       -3.3633830    -0.9249560     0.0021580
  H       -2.7605070     0.4989750     0.8783160
units angstrom
no_reorient  #important for SAPT in psi4, default
symmetry c1  #important for SAPT in psi4, default
}

set PROPERTIES_ORIGIN ["COM"]
properties('MP2/aug-cc-pvtz', properties = ['dipole'])
--------------------------------------------------------------------------

    Molecular point group: c1
  Charge       = -1
  Multiplicity = 1
  Basis Set: AUG-CC-PVTZ
    Blend: AUG-CC-PVTZ
  Basis Set: (AUG-CC-PVTZ AUX)
    Blend: AUG-CC-PVTZ-JKFIT

    Orbital Energies [Eh]
    ---------------------

    Doubly Occupied:

       1A    -20.399807     2A    -20.322740     3A    -20.318028
       4A    -11.171432     5A    -11.163915     6A    -11.103265
       7A    -11.097071     8A     -1.227561     9A     -1.182353
      10A     -1.093155    11A     -0.917014    12A     -0.773392
      13A     -0.658328    14A     -0.544111    15A     -0.513524
      16A     -0.487756    17A     -0.472008    18A     -0.418150
      19A     -0.414652    20A     -0.399898    21A     -0.370387
      22A     -0.348743    23A     -0.333704    24A     -0.311597
      25A     -0.237554    26A     -0.213972    27A     -0.207523

  @DF-RHF Final Energy:  -379.12937094279101

   => Energetics <=

    Nuclear Repulsion Energy =            285.7101964588500209
    One-Electron Energy =               -1096.2758552161444641
    Two-Electron Energy =                 431.4362878145033733
    Total Energy =                       -379.1293709427910130
  Basis Set: (AUG-CC-PVTZ AUX)
    Blend: AUG-CC-PVTZ-RI
    Molecular point group: c1

    Geometry (in Angstrom), charge = -1, multiplicity = 1:

       Center              X                  Y                   Z               Mass
    ------------   -----------------  -----------------  -----------------  -----------------
         O           -0.537677423815     1.504660371138    -0.002410736493    15.994914619570
         O            2.143447576185     0.672922371138     0.002830263507    15.994914619570
         O            1.323632576185    -1.476200628862    -0.002133736493    15.994914619570
         C           -1.313279423815    -0.759787628862     0.001239263507    12.000000000000
         C           -2.650886523815    -0.033684128862     0.000786663507    12.000000000000
         C           -0.226350423815     0.310608371138    -0.000482736493    12.000000000000
         C            1.251848576185    -0.210592628862     0.000174263507    12.000000000000
         H           -1.135610423815    -1.409020628862    -0.862875736493     1.007825032230
         H           -1.135126423815    -1.406868628862     0.866902263507     1.007825032230
         H           -2.876349423815     0.453592371138    -0.877916736493     1.007825032230
         H           -3.478661423815    -0.968107628862     0.002244263507     1.007825032230
         H           -2.875785423815     0.455823371138     0.878402263507     1.007825032230

  Basis Set: AUG-CC-PVTZ
    Blend: AUG-CC-PVTZ
  Basis Set: (AUG-CC-PVTZ AUX)
    Blend: AUG-CC-PVTZ-JKFIT
	 Reference Energy          =    -379.1293709427910130 [Eh]
	 Singles Energy            =      -0.0000000000000000 [Eh]
	 Same-Spin Energy          =      -0.3739511835732177 [Eh]
	 Opposite-Spin Energy      =      -1.1404658153959166 [Eh]
	 Correlation Energy        =      -1.5144169989691343 [Eh]
	 Total Energy              =    -380.6437879417601380 [Eh]

	 ================> DF-SCS-MP2 Energies <==================
	-----------------------------------------------------------
	 SCS Same-Spin Scale       =       0.3333333333333333 [-]
	 SCS Opposite-Spin Scale   =       1.2000000000000000 [-]
	 SCS Same-Spin Energy      =      -0.1246503945244059 [Eh]
	 SCS Opposite-Spin Energy  =      -1.3685589784751000 [Eh]
	 SCS Correlation Energy    =      -1.4932093729995060 [Eh]
	 SCS Total Energy          =    -380.6225803157905148 [Eh]
	-----------------------------------------------------------

  Dipole Moment: [D]
     X:    -6.4111      Y:    -0.6088      Z:     0.0020     Total:     6.4399

*** Psi4 exiting successfully. Buy a developer a beer!
