                               Psi4 1.3.2 release

  ==> Input File <==

--------------------------------------------------------------------------
#psi4
#
memory 32 gb

molecule  {
-1 1
  O       -0.4223990     1.5478120    -0.0024970
  O        2.2587260     0.7160740     0.0027440
  O        1.4389110    -1.4330490    -0.0022200
  C       -1.1980010    -0.7166360     0.0011530
  C       -2.6041790    -0.1343280     0.0009050
  C       -0.0858423     0.2569951    -0.0004128
  C        1.3671270    -0.1674410     0.0000880
  H       -1.0203320    -1.3658690    -0.8629620
  H       -1.0198480    -1.3637170     0.8668160
  H       -2.7610710     0.4967440    -0.8780030
  H       -3.3633830    -0.9249560     0.0021580
  H       -2.7605070     0.4989750     0.8783160
units angstrom
no_reorient  #important for SAPT in psi4, default
symmetry c1  #important for SAPT in psi4, default
}

set PROPERTIES_ORIGIN ["COM"]
properties('MP2/aug-cc-pvtz', properties = ['dipole'])
--------------------------------------------------------------------------

    Molecular point group: c1
  Charge       = -1
  Multiplicity = 1
  Basis Set: AUG-CC-PVTZ
    Blend: AUG-CC-PVTZ
  Basis Set: (AUG-CC-PVTZ AUX)
    Blend: AUG-CC-PVTZ-JKFIT

    Orbital Energies [Eh]
    ---------------------

    Doubly Occupied:

       1A    -20.392420     2A    -20.325307     3A    -20.321554
       4A    -11.182674     5A    -11.167627     6A    -11.101835
       7A    -11.100720     8A     -1.200201     9A     -1.154238
      10A     -1.097389    11A     -0.923018    12A     -0.788458
      13A     -0.673459    14A     -0.542158    15A     -0.496762
      16A     -0.484511    17A     -0.460443    18A     -0.425024
      19A     -0.404049    20A     -0.401721    21A     -0.373049
      22A     -0.365352    23A     -0.300941    24A     -0.297857
      25A     -0.240245    26A     -0.226017    27A     -0.215940

  @DF-RHF Final Energy:  -379.12623728756017

   => Energetics <=

    Nuclear Repulsion Energy =            284.5688834606767159
    One-Electron Energy =               -1094.0643013569924733
    Two-Electron Energy =                 430.3691806087555847
    Total Energy =                       -379.1262372875601727
  Basis Set: (AUG-CC-PVTZ AUX)
    Blend: AUG-CC-PVTZ-RI
    Molecular point group: c1

    Geometry (in Angstrom), charge = -1, multiplicity = 1:

       Center              X                  Y                   Z               Mass
    ------------   -----------------  -----------------  -----------------  -----------------
         O           -0.532529190976     1.533235051835    -0.002453593692    15.994914619570
         O            2.148595809024     0.701497051835     0.002787406308    15.994914619570
         O            1.328780809024    -1.447625948165    -0.002176593692    15.994914619570
         C           -1.308131190976    -0.731212948165     0.001196406308    12.000000000000
         C           -2.714309190976    -0.148904948165     0.000948406308    12.000000000000
         C           -0.195972490976     0.242418151835    -0.000369393692    12.000000000000
         C            1.256996809024    -0.182017948165     0.000131406308    12.000000000000
         H           -1.130462190976    -1.380445948165    -0.862918593692     1.007825032230
         H           -1.129978190976    -1.378293948165     0.866859406308     1.007825032230
         H           -2.871201190976     0.482167051835    -0.877959593692     1.007825032230
         H           -3.473513190976    -0.939532948165     0.002201406308     1.007825032230
         H           -2.870637190976     0.484398051835     0.878359406308     1.007825032230

  Basis Set: AUG-CC-PVTZ
    Blend: AUG-CC-PVTZ
  Basis Set: (AUG-CC-PVTZ AUX)
    Blend: AUG-CC-PVTZ-JKFIT
	 Reference Energy          =    -379.1262372875601727 [Eh]
	 Singles Energy            =      -0.0000000000000000 [Eh]
	 Same-Spin Energy          =      -0.3770805284691921 [Eh]
	 Opposite-Spin Energy      =      -1.1470338363803370 [Eh]
	 Correlation Energy        =      -1.5241143648495290 [Eh]
	 Total Energy              =    -380.6503516524097108 [Eh]

	 ================> DF-SCS-MP2 Energies <==================
	-----------------------------------------------------------
	 SCS Same-Spin Scale       =       0.3333333333333333 [-]
	 SCS Opposite-Spin Scale   =       1.2000000000000000 [-]
	 SCS Same-Spin Energy      =      -0.1256935094897307 [Eh]
	 SCS Opposite-Spin Energy  =      -1.3764406036564043 [Eh]
	 SCS Correlation Energy    =      -1.5021341131461350 [Eh]
	 SCS Total Energy          =    -380.6283714007063281 [Eh]
	-----------------------------------------------------------

  Dipole Moment: [D]
     X:    -6.5725      Y:    -1.2216      Z:     0.0033     Total:     6.6851

*** Psi4 exiting successfully. Buy a developer a beer!
