                               Psi4 1.3.2 release

  ==> Input File <==

--------------------------------------------------------------------------
#psi4
#
memory 32 gb

molecule  {
-1 1
  O       -0.4223990     1.5478120    -0.0024970
  O        2.2587260     0.7160740     0.0027440
  O        1.4389110    -1.4330490    -0.0022200
  C       -1.1980010    -0.7166360     0.0011530
  C       -2.6041790    -0.1343280     0.0009050
  C        0.0314289     0.4940933    -0.0007948
  C        1.3671270    -0.1674410     0.0000880
  H       -1.0203320    -1.3658690    -0.8629620
  H       -1.0198480    -1.3637170     0.8668160
  H       -2.7610710     0.4967440    -0.8780030
  H       -3.3633830    -0.9249560     0.0021580
  H       -2.7605070     0.4989750     0.8783160
units angstrom
no_reorient  #important for SAPT in psi4, default
symmetry c1  #important for SAPT in psi4, default
}

set PROPERTIES_ORIGIN ["COM"]
properties('MP2/aug-cc-pvtz', properties = ['dipole'])
--------------------------------------------------------------------------

    Molecular point group: c1
  Charge       = -1
  Multiplicity = 1
  Basis Set: AUG-CC-PVTZ
    Blend: AUG-CC-PVTZ
  Basis Set: (AUG-CC-PVTZ AUX)
    Blend: AUG-CC-PVTZ-JKFIT

    Orbital Energies [Eh]
    ---------------------

    Doubly Occupied:

       1A    -20.413723     2A    -20.329398     3A    -20.324431
       4A    -11.176621     5A    -11.167867     6A    -11.087502
       7A    -11.074932     8A     -1.291924     9A     -1.195250
      10A     -1.100669    11A     -0.883506    12A     -0.754005
      13A     -0.670759    14A     -0.554671    15A     -0.504605
      16A     -0.478875    17A     -0.476035    18A     -0.428726
      19A     -0.423149    20A     -0.399720    21A     -0.372609
      22A     -0.361949    23A     -0.345518    24A     -0.293065
      25A     -0.245210    26A     -0.218700    27A     -0.192621

  @DF-RHF Final Energy:  -379.12127992049778

   => Energetics <=

    Nuclear Repulsion Energy =            285.3215479262024701
    One-Electron Energy =               -1095.3535782049020781
    Two-Electron Energy =                 430.9107503582018239
    Total Energy =                       -379.1212799204977841
  Basis Set: (AUG-CC-PVTZ AUX)
    Blend: AUG-CC-PVTZ-RI
    Molecular point group: c1

    Geometry (in Angstrom), charge = -1, multiplicity = 1:

       Center              X                  Y                   Z               Mass
    ------------   -----------------  -----------------  -----------------  -----------------
         O           -0.546459110842     1.505071624443    -0.002408218276    15.994914619570
         O            2.134665889158     0.673333624443     0.002832781724    15.994914619570
         O            1.314850889158    -1.475789375557    -0.002131218276    15.994914619570
         C           -1.322061110842    -0.759376375557     0.001241781724    12.000000000000
         C           -2.728239110842    -0.177068375557     0.000993781724    12.000000000000
         C           -0.092631210842     0.451352924443    -0.000706018276    12.000000000000
         C            1.243066889158    -0.210181375557     0.000176781724    12.000000000000
         H           -1.144392110842    -1.408609375557    -0.862873218276     1.007825032230
         H           -1.143908110842    -1.406457375557     0.866904781724     1.007825032230
         H           -2.885131110842     0.454003624443    -0.877914218276     1.007825032230
         H           -3.487443110842    -0.967696375557     0.002246781724     1.007825032230
         H           -2.884567110842     0.456234624443     0.878404781724     1.007825032230

  Basis Set: AUG-CC-PVTZ
    Blend: AUG-CC-PVTZ
  Basis Set: (AUG-CC-PVTZ AUX)
    Blend: AUG-CC-PVTZ-JKFIT
	 Reference Energy          =    -379.1212799204977841 [Eh]
	 Singles Energy            =      -0.0000000000000000 [Eh]
	 Same-Spin Energy          =      -0.3729715867329993 [Eh]
	 Opposite-Spin Energy      =      -1.1382689968594872 [Eh]
	 Correlation Energy        =      -1.5112405835924865 [Eh]
	 Total Energy              =    -380.6325205040902802 [Eh]

	 ================> DF-SCS-MP2 Energies <==================
	-----------------------------------------------------------
	 SCS Same-Spin Scale       =       0.3333333333333333 [-]
	 SCS Opposite-Spin Scale   =       1.2000000000000000 [-]
	 SCS Same-Spin Energy      =      -0.1243238622443331 [Eh]
	 SCS Opposite-Spin Energy  =      -1.3659227962313847 [Eh]
	 SCS Correlation Energy    =      -1.4902466584757177 [Eh]
	 SCS Total Energy          =    -380.6115265789734963 [Eh]
	-----------------------------------------------------------

  Dipole Moment: [D]
     X:    -5.5663      Y:     0.0677      Z:     0.0001     Total:     5.5667

*** Psi4 exiting successfully. Buy a developer a beer!
