                               Psi4 1.4a3.dev225

  ==> Input File <==

--------------------------------------------------------------------------
#psi4
#
memory 32 gb

molecule  {
-1 1
  O       -0.3985850     1.5131790    -0.2845690
  O        2.2066640     0.7149310     0.3161120
  O        1.5078530    -1.3885780    -0.2413420
  C       -1.2053190    -0.7120700     0.1148020
  C       -2.6123310    -0.1342710     0.1051660
  C       -0.0871999     0.3640333    -0.0743394
  C        1.3495430    -0.1585420     0.0132420
  H       -1.0703250    -1.4639250    -0.6703970
  H       -0.9966990    -1.2446330     1.0513490
  H       -2.8226470     0.3633290    -0.8444420
  H       -3.3547600    -0.9237900     0.2511250
  H       -2.7366210     0.6043540     0.9012280
units angstrom
no_reorient  #important for SAPT in psi4, default
symmetry c1  #important for SAPT in psi4, default
}

set PROPERTIES_ORIGIN ["COM"]
properties('MP2/aug-cc-pvtz', properties = ['dipole'])
--------------------------------------------------------------------------

    Molecular point group: c1
  Charge       = -1
  Multiplicity = 1
  Basis Set: AUG-CC-PVTZ
    Blend: AUG-CC-PVTZ
  Basis Set: (AUG-CC-PVTZ AUX)
    Blend: AUG-CC-PVTZ-JKFIT

    Orbital Energies [Eh]
    ---------------------

    Doubly Occupied:

       1A    -20.401541     2A    -20.321239     3A    -20.314800
       4A    -11.173058     5A    -11.160430     6A    -11.099642
       7A    -11.096926     8A     -1.243222     9A     -1.182244
      10A     -1.087999    11A     -0.912225    12A     -0.771131
      13A     -0.666539    14A     -0.546858    15A     -0.495801
      16A     -0.492417    17A     -0.471104    18A     -0.424094
      19A     -0.409050    20A     -0.394027    21A     -0.384929
      22A     -0.361492    23A     -0.339505    24A     -0.308960
      25A     -0.233885    26A     -0.213352    27A     -0.206543

  @DF-RHF Final Energy:  -379.15326813832360

   => Energetics <=

    Nuclear Repulsion Energy =            284.9843104662637643
    One-Electron Energy =               -1094.8491290747281255
    Two-Electron Energy =                 430.7115504701407644
    Total Energy =                       -379.1532681383235968
  Basis Set: (AUG-CC-PVTZ AUX)
    Blend: AUG-CC-PVTZ-RI
    Molecular point group: c1

    Geometry (in Angstrom), charge = -1, multiplicity = 1:

       Center              X                  Y                   Z               Mass
    ------------   -----------------  -----------------  -----------------  -----------------
         O           -0.510512878512     1.482963069839    -0.277095355163    15.994914619570
         O            2.094736121488     0.684715069839     0.323585644837    15.994914619570
         O            1.395925121488    -1.418793930161    -0.233868355163    15.994914619570
         C           -1.317246878512    -0.742285930161     0.122275644837    12.000000000000
         C           -2.724258878512    -0.164486930161     0.112639644837    12.000000000000
         C           -0.199127778512     0.333817369839    -0.066865755163    12.000000000000
         C            1.237615121488    -0.188757930161     0.020715644837    12.000000000000
         H           -1.182252878512    -1.494140930161    -0.662923355163     1.007825032230
         H           -1.108626878512    -1.274848930161     1.058822644837     1.007825032230
         H           -2.934574878512     0.333113069839    -0.836968355163     1.007825032230
         H           -3.466687878512    -0.954005930161     0.258598644837     1.007825032230
         H           -2.848548878512     0.574138069839     0.908701644837     1.007825032230

  Basis Set: AUG-CC-PVTZ
    Blend: AUG-CC-PVTZ
  Basis Set: (AUG-CC-PVTZ AUX)
    Blend: AUG-CC-PVTZ-JKFIT
	 Reference Energy          =    -379.1532681383235968 [Eh]
	 Singles Energy            =      -0.0000000000000000 [Eh]
	 Same-Spin Energy          =      -0.3728265466193922 [Eh]
	 Opposite-Spin Energy      =      -1.1379134232796615 [Eh]
	 Correlation Energy        =      -1.5107399698990536 [Eh]
	 Total Energy              =    -380.6640081082226743 [Eh]

	 ================> DF-SCS-MP2 Energies <==================
	-----------------------------------------------------------
	 SCS Same-Spin Scale       =       0.3333333333333333 [-]
	 SCS Opposite-Spin Scale   =       1.2000000000000000 [-]
	 SCS Same-Spin Energy      =      -0.1242755155397974 [Eh]
	 SCS Opposite-Spin Energy  =      -1.3654961079355938 [Eh]
	 SCS Correlation Energy    =      -1.4897716234753913 [Eh]
	 SCS Total Energy          =    -380.6430397617990025 [Eh]
	-----------------------------------------------------------

  Dipole Moment: [D]
     X:    -6.6777      Y:    -0.7290      Z:     0.1841     Total:     6.7199

*** Psi4 exiting successfully. Buy a developer a beer!
