                               Psi4 1.3.2 release

  ==> Input File <==

--------------------------------------------------------------------------
#psi4
#
memory 32 gb

molecule  {
-1 1
  O       -0.4223990     1.5478120    -0.0024970
  O        2.2587260     0.7160740     0.0027440
  O        1.4389110    -1.4330490    -0.0022200
  C       -1.1980010    -0.7166360     0.0011530
  C       -2.6041790    -0.1343280     0.0009050
  C       -0.1363017     0.4505249    -0.0007252
  C        1.3671270    -0.1674410     0.0000880
  H       -1.0203320    -1.3658690    -0.8629620
  H       -1.0198480    -1.3637170     0.8668160
  H       -2.7610710     0.4967440    -0.8780030
  H       -3.3633830    -0.9249560     0.0021580
  H       -2.7605070     0.4989750     0.8783160
units angstrom
no_reorient  #important for SAPT in psi4, default
symmetry c1  #important for SAPT in psi4, default
}

set PROPERTIES_ORIGIN ["COM"]
properties('MP2/aug-cc-pvtz', properties = ['dipole'])
--------------------------------------------------------------------------

    Molecular point group: c1
  Charge       = -1
  Multiplicity = 1
  Basis Set: AUG-CC-PVTZ
    Blend: AUG-CC-PVTZ
  Basis Set: (AUG-CC-PVTZ AUX)
    Blend: AUG-CC-PVTZ-JKFIT

    Orbital Energies [Eh]
    ---------------------

    Doubly Occupied:

       1A    -20.405735     2A    -20.319510     3A    -20.314679
       4A    -11.162623     5A    -11.160334     6A    -11.094649
       7A    -11.086486     8A     -1.294742     9A     -1.180491
      10A     -1.088793    11A     -0.905331    12A     -0.753311
      13A     -0.641411    14A     -0.554962    15A     -0.511198
      16A     -0.489597    17A     -0.472412    18A     -0.420298
      19A     -0.416299    20A     -0.399885    21A     -0.381483
      22A     -0.358365    23A     -0.355498    24A     -0.315924
      25A     -0.234152    26A     -0.211442    27A     -0.184976

  @DF-RHF Final Energy:  -379.14512595228200

   => Energetics <=

    Nuclear Repulsion Energy =            285.2302267707635792
    One-Electron Energy =               -1095.3215401799957363
    Two-Electron Energy =                 430.9461874569501560
    Total Energy =                       -379.1451259522820010
  Basis Set: (AUG-CC-PVTZ AUX)
    Blend: AUG-CC-PVTZ-RI
    Molecular point group: c1

    Geometry (in Angstrom), charge = -1, multiplicity = 1:

       Center              X                  Y                   Z               Mass
    ------------   -----------------  -----------------  -----------------  -----------------
         O           -0.526535431226     1.510246844964    -0.002416485630    15.994914619570
         O            2.154589568774     0.678508844964     0.002824514370    15.994914619570
         O            1.334774568774    -1.470614155036    -0.002139485630    15.994914619570
         C           -1.302137431226    -0.754201155036     0.001233514370    12.000000000000
         C           -2.708315431226    -0.171893155036     0.000985514370    12.000000000000
         C           -0.240438131226     0.412959744964    -0.000644685630    12.000000000000
         C            1.262990568774    -0.205006155036     0.000168514370    12.000000000000
         H           -1.124468431226    -1.403434155036    -0.862881485630     1.007825032230
         H           -1.123984431226    -1.401282155036     0.866896514370     1.007825032230
         H           -2.865207431226     0.459178844964    -0.877922485630     1.007825032230
         H           -3.467519431226    -0.962521155036     0.002238514370     1.007825032230
         H           -2.864643431226     0.461409844964     0.878396514370     1.007825032230

  Basis Set: AUG-CC-PVTZ
    Blend: AUG-CC-PVTZ
  Basis Set: (AUG-CC-PVTZ AUX)
    Blend: AUG-CC-PVTZ-JKFIT
	 Reference Energy          =    -379.1451259522820010 [Eh]
	 Singles Energy            =      -0.0000000000000000 [Eh]
	 Same-Spin Energy          =      -0.3714070031879368 [Eh]
	 Opposite-Spin Energy      =      -1.1341702116909973 [Eh]
	 Correlation Energy        =      -1.5055772148789341 [Eh]
	 Total Energy              =    -380.6507031671609411 [Eh]

	 ================> DF-SCS-MP2 Energies <==================
	-----------------------------------------------------------
	 SCS Same-Spin Scale       =       0.3333333333333333 [-]
	 SCS Opposite-Spin Scale   =       1.2000000000000000 [-]
	 SCS Same-Spin Energy      =      -0.1238023343959789 [Eh]
	 SCS Opposite-Spin Energy  =      -1.3610042540291967 [Eh]
	 SCS Correlation Energy    =      -1.4848065884251755 [Eh]
	 SCS Total Energy          =    -380.6299325407071592 [Eh]
	-----------------------------------------------------------

  Dipole Moment: [D]
     X:    -6.5641      Y:    -0.3093      Z:     0.0012     Total:     6.5714

*** Psi4 exiting successfully. Buy a developer a beer!
