                               Psi4 1.3.2 release

  ==> Input File <==

--------------------------------------------------------------------------
#psi4
#
memory 32 gb

molecule  {
-1 1
  O       -0.4223990     1.5478120    -0.0024970
  O        2.2587260     0.7160740     0.0027440
  O        1.4609880    -1.4316035    -0.0021928
  C       -1.1980010    -0.7166360     0.0011530
  C       -2.6041790    -0.1343280     0.0009050
  C       -0.1110720     0.3537600    -0.0005690
  C        1.3671270    -0.1674410     0.0000880
  H       -1.0203320    -1.3658690    -0.8629620
  H       -1.0198480    -1.3637170     0.8668160
  H       -2.7610710     0.4967440    -0.8780030
  H       -3.3633830    -0.9249560     0.0021580
  H       -2.7605070     0.4989750     0.8783160
units angstrom
no_reorient  #important for SAPT in psi4, default
symmetry c1  #important for SAPT in psi4, default
}

set PROPERTIES_ORIGIN ["COM"]
properties('MP2/aug-cc-pvtz', properties = ['dipole'])
--------------------------------------------------------------------------

    Molecular point group: c1
  Charge       = -1
  Multiplicity = 1
  Basis Set: AUG-CC-PVTZ
    Blend: AUG-CC-PVTZ
  Basis Set: (AUG-CC-PVTZ AUX)
    Blend: AUG-CC-PVTZ-JKFIT

    Orbital Energies [Eh]
    ---------------------

    Doubly Occupied:

       1A    -20.399986     2A    -20.321438     3A    -20.316973
       4A    -11.174043     5A    -11.164063     6A    -11.098967
       7A    -11.095345     8A     -1.226695     9A     -1.181897
      10A     -1.091060    11A     -0.915080    12A     -0.772464
      13A     -0.657282    14A     -0.545589    15A     -0.492619
      16A     -0.491723    17A     -0.470453    18A     -0.422611
      19A     -0.401767    20A     -0.397572    21A     -0.382631
      22A     -0.361039    23A     -0.332384    24A     -0.311683
      25A     -0.235527    26A     -0.212395    27A     -0.209855

  @DF-RHF Final Energy:  -379.15211846880607

   => Energetics <=

    Nuclear Repulsion Energy =            284.6060525510899311
    One-Electron Energy =               -1094.1500601747336532
    Two-Electron Energy =                 430.3918891548375996
    Total Energy =                       -379.1521184688060657
  Basis Set: (AUG-CC-PVTZ AUX)
    Blend: AUG-CC-PVTZ-RI
    Molecular point group: c1

    Geometry (in Angstrom), charge = -1, multiplicity = 1:

       Center              X                  Y                   Z               Mass
    ------------   -----------------  -----------------  -----------------  -----------------
         O           -0.533027719993     1.521512085168    -0.002439346184    15.994914619570
         O            2.148097280007     0.689774085168     0.002801653816    15.994914619570
         O            1.350359280007    -1.457903414832    -0.002135146184    15.994914619570
         C           -1.308629719993    -0.742935914832     0.001210653816    12.000000000000
         C           -2.714807719993    -0.160627914832     0.000962653816    12.000000000000
         C           -0.221700719993     0.327460085168    -0.000511346184    12.000000000000
         C            1.256498280007    -0.193740914832     0.000145653816    12.000000000000
         H           -1.130960719993    -1.392168914832    -0.862904346184     1.007825032230
         H           -1.130476719993    -1.390016914832     0.866873653816     1.007825032230
         H           -2.871699719993     0.470444085168    -0.877945346184     1.007825032230
         H           -3.474011719993    -0.951255914832     0.002215653816     1.007825032230
         H           -2.871135719993     0.472675085168     0.878373653816     1.007825032230

  Basis Set: AUG-CC-PVTZ
    Blend: AUG-CC-PVTZ
  Basis Set: (AUG-CC-PVTZ AUX)
    Blend: AUG-CC-PVTZ-JKFIT
	 Reference Energy          =    -379.1521184688060657 [Eh]
	 Singles Energy            =      -0.0000000000000000 [Eh]
	 Same-Spin Energy          =      -0.3736210321243678 [Eh]
	 Opposite-Spin Energy      =      -1.1395076994890936 [Eh]
	 Correlation Energy        =      -1.5131287316134614 [Eh]
	 Total Energy              =    -380.6652472004195147 [Eh]

	 ================> DF-SCS-MP2 Energies <==================
	-----------------------------------------------------------
	 SCS Same-Spin Scale       =       0.3333333333333333 [-]
	 SCS Opposite-Spin Scale   =       1.2000000000000000 [-]
	 SCS Same-Spin Energy      =      -0.1245403440414559 [Eh]
	 SCS Opposite-Spin Energy  =      -1.3674092393869122 [Eh]
	 SCS Correlation Energy    =      -1.4919495834283680 [Eh]
	 SCS Total Energy          =    -380.6440680522344451 [Eh]
	-----------------------------------------------------------

  Dipole Moment: [D]
     X:    -6.6427      Y:    -0.8194      Z:     0.0023     Total:     6.6931

*** Psi4 exiting successfully. Buy a developer a beer!
