                               Psi4 1.3.2 release

  ==> Input File <==

--------------------------------------------------------------------------
#psi4
#
memory 32 gb

molecule  {
-1 1
  O       -0.4223990     1.5478120    -0.0024970
  O        2.2587260     0.7160740     0.0027440
  O        1.4389110    -1.4330490    -0.0022200
  C       -1.1980010    -0.7166360     0.0011530
  C       -2.6413734    -0.2338364     0.0010431
  C       -0.1110720     0.3537600    -0.0005690
  C        1.3671270    -0.1674410     0.0000880
  H       -1.0203320    -1.3658690    -0.8629620
  H       -1.0198480    -1.3637170     0.8668160
  H       -2.7610710     0.4967440    -0.8780030
  H       -3.3633830    -0.9249560     0.0021580
  H       -2.7605070     0.4989750     0.8783160
units angstrom
no_reorient  #important for SAPT in psi4, default
symmetry c1  #important for SAPT in psi4, default
}

set PROPERTIES_ORIGIN ["COM"]
properties('MP2/aug-cc-pvtz', properties = ['dipole'])
--------------------------------------------------------------------------

    Molecular point group: c1
  Charge       = -1
  Multiplicity = 1
  Basis Set: AUG-CC-PVTZ
    Blend: AUG-CC-PVTZ
  Basis Set: (AUG-CC-PVTZ AUX)
    Blend: AUG-CC-PVTZ-JKFIT

    Orbital Energies [Eh]
    ---------------------

    Doubly Occupied:

       1A    -20.399914     2A    -20.322525     3A    -20.319104
       4A    -11.174956     5A    -11.166028     6A    -11.100123
       7A    -11.095050     8A     -1.226499     9A     -1.182646
      10A     -1.093660    11A     -0.914815    12A     -0.774483
      13A     -0.658441    14A     -0.546556    15A     -0.497355
      16A     -0.483068    17A     -0.470153    18A     -0.444445
      19A     -0.408472    20A     -0.393481    21A     -0.370619
      22A     -0.348020    23A     -0.330795    24A     -0.311804
      25A     -0.237761    26A     -0.214142    27A     -0.210610

  @DF-RHF Final Energy:  -379.13848800440616

   => Energetics <=

    Nuclear Repulsion Energy =            284.2372013936725921
    One-Electron Energy =               -1093.3603280986387745
    Two-Electron Energy =                 429.9846387005599695
    Total Energy =                       -379.1384880044061561
  Basis Set: (AUG-CC-PVTZ AUX)
    Blend: AUG-CC-PVTZ-RI
    Molecular point group: c1

    Geometry (in Angstrom), charge = -1, multiplicity = 1:

       Center              X                  Y                   Z               Mass
    ------------   -----------------  -----------------  -----------------  -----------------
         O           -0.525114218582     1.533560935216    -0.002451443705    15.994914619570
         O            2.156010781418     0.701822935216     0.002789556295    15.994914619570
         O            1.336195781418    -1.447300064784    -0.002174443705    15.994914619570
         C           -1.300716218582    -0.730887064784     0.001198556295    12.000000000000
         C           -2.744088618582    -0.248087464784     0.001088656295    12.000000000000
         C           -0.213787218582     0.339508935216    -0.000523443705    12.000000000000
         C            1.264411781418    -0.181692064784     0.000133556295    12.000000000000
         H           -1.123047218582    -1.380120064784    -0.862916443705     1.007825032230
         H           -1.122563218582    -1.377968064784     0.866861556295     1.007825032230
         H           -2.863786218582     0.482492935216    -0.877957443705     1.007825032230
         H           -3.466098218582    -0.939207064784     0.002203556295     1.007825032230
         H           -2.863222218582     0.484723935216     0.878361556295     1.007825032230

  Basis Set: AUG-CC-PVTZ
    Blend: AUG-CC-PVTZ
  Basis Set: (AUG-CC-PVTZ AUX)
    Blend: AUG-CC-PVTZ-JKFIT
	 Reference Energy          =    -379.1384880044061561 [Eh]
	 Singles Energy            =      -0.0000000000000000 [Eh]
	 Same-Spin Energy          =      -0.3739370999313866 [Eh]
	 Opposite-Spin Energy      =      -1.1403018508948166 [Eh]
	 Correlation Energy        =      -1.5142389508262033 [Eh]
	 Total Energy              =    -380.6527269552323673 [Eh]

	 ================> DF-SCS-MP2 Energies <==================
	-----------------------------------------------------------
	 SCS Same-Spin Scale       =       0.3333333333333333 [-]
	 SCS Opposite-Spin Scale   =       1.2000000000000000 [-]
	 SCS Same-Spin Energy      =      -0.1246456999771288 [Eh]
	 SCS Opposite-Spin Energy  =      -1.3683622210737798 [Eh]
	 SCS Correlation Energy    =      -1.4930079210509086 [Eh]
	 SCS Total Energy          =    -380.6314959254570454 [Eh]
	-----------------------------------------------------------

  Dipole Moment: [D]
     X:    -6.5687      Y:    -0.9444      Z:     0.0025     Total:     6.6363

*** Psi4 exiting successfully. Buy a developer a beer!
