                               Psi4 1.3.2 release

  ==> Input File <==

--------------------------------------------------------------------------
#psi4
#
memory 32 gb

molecule  {
-1 1
  O       -0.4223990     1.5478120    -0.0024970
  O        2.2587260     0.7160740     0.0027440
  O        1.4389110    -1.4330490    -0.0022200
  C       -1.1980010    -0.7166360     0.0011530
  C       -2.6041790    -0.1343280     0.0009050
  C       -0.1556054     0.3938269     0.0874602
  C        1.3671270    -0.1674410     0.0000880
  H       -1.0203320    -1.3658690    -0.8629620
  H       -1.0198480    -1.3637170     0.8668160
  H       -2.7610710     0.4967440    -0.8780030
  H       -3.3633830    -0.9249560     0.0021580
  H       -2.7605070     0.4989750     0.8783160
units angstrom
no_reorient  #important for SAPT in psi4, default
symmetry c1  #important for SAPT in psi4, default
}

set PROPERTIES_ORIGIN ["COM"]
properties('MP2/aug-cc-pvtz', properties = ['dipole'])
--------------------------------------------------------------------------

    Molecular point group: c1
  Charge       = -1
  Multiplicity = 1
  Basis Set: AUG-CC-PVTZ
    Blend: AUG-CC-PVTZ
  Basis Set: (AUG-CC-PVTZ AUX)
    Blend: AUG-CC-PVTZ-JKFIT

    Orbital Energies [Eh]
    ---------------------

    Doubly Occupied:

       1A    -20.401646     2A    -20.319654     3A    -20.315742
       4A    -11.166733     5A    -11.162769     6A    -11.097442
       7A    -11.091898     8A     -1.254449     9A     -1.180232
      10A     -1.089531    11A     -0.914499    12A     -0.764583
      13A     -0.641321    14A     -0.549645    15A     -0.500224
      16A     -0.492304    17A     -0.471231    18A     -0.420203
      19A     -0.404104    20A     -0.398022    21A     -0.383746
      22A     -0.358913    23A     -0.345877    24A     -0.317355
      25A     -0.234419    26A     -0.211903    27A     -0.193700

  @DF-RHF Final Energy:  -379.14986539729296

   => Energetics <=

    Nuclear Repulsion Energy =            284.8196428149770441
    One-Electron Energy =               -1094.5747291478528496
    Two-Electron Energy =                 430.6052209355829063
    Total Energy =                       -379.1498653972929560
  Basis Set: (AUG-CC-PVTZ AUX)
    Blend: AUG-CC-PVTZ-RI
    Molecular point group: c1

    Geometry (in Angstrom), charge = -1, multiplicity = 1:

       Center              X                  Y                   Z               Mass
    ------------   -----------------  -----------------  -----------------  -----------------
         O           -0.524242464205     1.516981649388    -0.012891483373    15.994914619570
         O            2.156882535795     0.685243649388    -0.007650483373    15.994914619570
         O            1.337067535795    -1.463879350612    -0.012614483373    15.994914619570
         C           -1.299844464205    -0.747466350612    -0.009241483373    12.000000000000
         C           -2.706022464205    -0.165158350612    -0.009489483373    12.000000000000
         C           -0.257448864205     0.362996549388     0.077065716627    12.000000000000
         C            1.265283535795    -0.198271350612    -0.010306483373    12.000000000000
         H           -1.122175464205    -1.396699350612    -0.873356483373     1.007825032230
         H           -1.121691464205    -1.394547350612     0.856421516627     1.007825032230
         H           -2.862914464205     0.465913649388    -0.888397483373     1.007825032230
         H           -3.465226464205    -0.955786350612    -0.008236483373     1.007825032230
         H           -2.862350464205     0.468144649388     0.867921516627     1.007825032230

  Basis Set: AUG-CC-PVTZ
    Blend: AUG-CC-PVTZ
  Basis Set: (AUG-CC-PVTZ AUX)
    Blend: AUG-CC-PVTZ-JKFIT
	 Reference Energy          =    -379.1498653972929560 [Eh]
	 Singles Energy            =      -0.0000000000000000 [Eh]
	 Same-Spin Energy          =      -0.3727597084638117 [Eh]
	 Opposite-Spin Energy      =      -1.1372048834525719 [Eh]
	 Correlation Energy        =      -1.5099645919163835 [Eh]
	 Total Energy              =    -380.6598299892093564 [Eh]

	 ================> DF-SCS-MP2 Energies <==================
	-----------------------------------------------------------
	 SCS Same-Spin Scale       =       0.3333333333333333 [-]
	 SCS Opposite-Spin Scale   =       1.2000000000000000 [-]
	 SCS Same-Spin Energy      =      -0.1242532361546039 [Eh]
	 SCS Opposite-Spin Energy  =      -1.3646458601430862 [Eh]
	 SCS Correlation Energy    =      -1.4888990962976900 [Eh]
	 SCS Total Energy          =    -380.6387644935906565 [Eh]
	-----------------------------------------------------------

  Dipole Moment: [D]
     X:    -6.6890      Y:    -0.6511      Z:     0.1291     Total:     6.7218

*** Psi4 exiting successfully. Buy a developer a beer!
