                               Psi4 1.3.2 release

  ==> Input File <==

--------------------------------------------------------------------------
#psi4
#
memory 32 gb

molecule  {
-1 1
  O       -0.4223990     1.5478120    -0.0024970
  O        2.2587260     0.7160740     0.0027440
  O        1.4389110    -1.4330490    -0.0022200
  C       -1.2165165    -0.6975035     0.0011257
  C       -2.6041790    -0.1343280     0.0009050
  C       -0.1110720     0.3537600    -0.0005690
  C        1.3671270    -0.1674410     0.0000880
  H       -1.0203320    -1.3658690    -0.8629620
  H       -1.0198480    -1.3637170     0.8668160
  H       -2.7610710     0.4967440    -0.8780030
  H       -3.3633830    -0.9249560     0.0021580
  H       -2.7605070     0.4989750     0.8783160
units angstrom
no_reorient  #important for SAPT in psi4, default
symmetry c1  #important for SAPT in psi4, default
}

set PROPERTIES_ORIGIN ["COM"]
properties('MP2/aug-cc-pvtz', properties = ['dipole'])
--------------------------------------------------------------------------

    Molecular point group: c1
  Charge       = -1
  Multiplicity = 1
  Basis Set: AUG-CC-PVTZ
    Blend: AUG-CC-PVTZ
  Basis Set: (AUG-CC-PVTZ AUX)
    Blend: AUG-CC-PVTZ-JKFIT

    Orbital Energies [Eh]
    ---------------------

    Doubly Occupied:

       1A    -20.398081     2A    -20.322357     3A    -20.318670
       4A    -11.172472     5A    -11.165465     6A    -11.097802
       7A    -11.095482     8A     -1.225854     9A     -1.182217
      10A     -1.093260    11A     -0.917955    12A     -0.771013
      13A     -0.655539    14A     -0.544935    15A     -0.491743
      16A     -0.490892    17A     -0.471152    18A     -0.424613
      19A     -0.402490    20A     -0.401439    21A     -0.382004
      22A     -0.356794    23A     -0.329864    24A     -0.310142
      25A     -0.237657    26A     -0.213869    27A     -0.209330

  @DF-RHF Final Energy:  -379.15099032978054

   => Energetics <=

    Nuclear Repulsion Energy =            284.8643275992004646
    One-Electron Energy =               -1094.6644595564657720
    Two-Electron Energy =                 430.6491416274847666
    Total Energy =                       -379.1509903297805408
  Basis Set: (AUG-CC-PVTZ AUX)
    Blend: AUG-CC-PVTZ-RI
    Molecular point group: c1

    Geometry (in Angstrom), charge = -1, multiplicity = 1:

       Center              X                  Y                   Z               Mass
    ------------   -----------------  -----------------  -----------------  -----------------
         O           -0.527332969478     1.519468317167    -0.002431796863    15.994914619570
         O            2.153792030522     0.687730317167     0.002809203137    15.994914619570
         O            1.333977030522    -1.461392682833    -0.002154796863    15.994914619570
         C           -1.321450469478    -0.725847182833     0.001190903137    12.000000000000
         C           -2.709112969478    -0.162671682833     0.000970203137    12.000000000000
         C           -0.216005969478     0.325416317167    -0.000503796863    12.000000000000
         C            1.262193030522    -0.195784682833     0.000153203137    12.000000000000
         H           -1.125265969478    -1.394212682833    -0.862896796863     1.007825032230
         H           -1.124781969478    -1.392060682833     0.866881203137     1.007825032230
         H           -2.866004969478     0.468400317167    -0.877937796863     1.007825032230
         H           -3.468316969478    -0.953299682833     0.002223203137     1.007825032230
         H           -2.865440969478     0.470631317167     0.878381203137     1.007825032230

  Basis Set: AUG-CC-PVTZ
    Blend: AUG-CC-PVTZ
  Basis Set: (AUG-CC-PVTZ AUX)
    Blend: AUG-CC-PVTZ-JKFIT
	 Reference Energy          =    -379.1509903297805408 [Eh]
	 Singles Energy            =      -0.0000000000000000 [Eh]
	 Same-Spin Energy          =      -0.3738789208424341 [Eh]
	 Opposite-Spin Energy      =      -1.1397493122221523 [Eh]
	 Correlation Energy        =      -1.5136282330645863 [Eh]
	 Total Energy              =    -380.6646185628451349 [Eh]

	 ================> DF-SCS-MP2 Energies <==================
	-----------------------------------------------------------
	 SCS Same-Spin Scale       =       0.3333333333333333 [-]
	 SCS Opposite-Spin Scale   =       1.2000000000000000 [-]
	 SCS Same-Spin Energy      =      -0.1246263069474780 [Eh]
	 SCS Opposite-Spin Energy  =      -1.3676991746665828 [Eh]
	 SCS Correlation Energy    =      -1.4923254816140608 [Eh]
	 SCS Total Energy          =    -380.6433158113945865 [Eh]
	-----------------------------------------------------------

  Dipole Moment: [D]
     X:    -6.5966      Y:    -0.8190      Z:     0.0023     Total:     6.6472

*** Psi4 exiting successfully. Buy a developer a beer!
