                               Psi4 1.3.2 release

  ==> Input File <==

--------------------------------------------------------------------------
#psi4
#
memory 32 gb

molecule  {
-1 1
  O       -0.4223990     1.5478120    -0.0024970
  O        2.2587260     0.7160740     0.0027440
  O        1.4389110    -1.4330490    -0.0022200
  C       -1.1980010    -0.7166360     0.0011530
  C       -2.5830001    -0.0856079     0.0008364
  C       -0.1110720     0.3537600    -0.0005690
  C        1.3671270    -0.1674410     0.0000880
  H       -1.0203320    -1.3658690    -0.8629620
  H       -1.0198480    -1.3637170     0.8668160
  H       -2.7610710     0.4967440    -0.8780030
  H       -3.3633830    -0.9249560     0.0021580
  H       -2.7605070     0.4989750     0.8783160
units angstrom
no_reorient  #important for SAPT in psi4, default
symmetry c1  #important for SAPT in psi4, default
}

set PROPERTIES_ORIGIN ["COM"]
properties('MP2/aug-cc-pvtz', properties = ['dipole'])
--------------------------------------------------------------------------

    Molecular point group: c1
  Charge       = -1
  Multiplicity = 1
  Basis Set: AUG-CC-PVTZ
    Blend: AUG-CC-PVTZ
  Basis Set: (AUG-CC-PVTZ AUX)
    Blend: AUG-CC-PVTZ-JKFIT

    Orbital Energies [Eh]
    ---------------------

    Doubly Occupied:

       1A    -20.398969     2A    -20.322220     3A    -20.317992
       4A    -11.171945     5A    -11.164220     6A    -11.098884
       7A    -11.094872     8A     -1.226180     9A     -1.181952
      10A     -1.092905    11A     -0.914679    12A     -0.771434
      13A     -0.656813    14A     -0.544236    15A     -0.498138
      16A     -0.489594    17A     -0.471036    18A     -0.417932
      19A     -0.407153    20A     -0.391375    21A     -0.380496
      22A     -0.364934    23A     -0.332299    24A     -0.311074
      25A     -0.237218    26A     -0.213634    27A     -0.208267

  @DF-RHF Final Energy:  -379.14930213894166

   => Energetics <=

    Nuclear Repulsion Energy =            285.0702812703331688
    One-Electron Energy =               -1095.0782702137737488
    Two-Electron Energy =                 430.8586868044988591
    Total Energy =                       -379.1493021389416640
  Basis Set: (AUG-CC-PVTZ AUX)
    Blend: AUG-CC-PVTZ-RI
    Molecular point group: c1

    Geometry (in Angstrom), charge = -1, multiplicity = 1:

       Center              X                  Y                   Z               Mass
    ------------   -----------------  -----------------  -----------------  -----------------
         O           -0.532048021521     1.515953789328    -0.002426891091    15.994914619570
         O            2.149076978479     0.684215789328     0.002814108909    15.994914619570
         O            1.329261978479    -1.464907210672    -0.002149891091    15.994914619570
         C           -1.307650021521    -0.748494210672     0.001223108909    12.000000000000
         C           -2.692649121521    -0.117466110672     0.000906508909    12.000000000000
         C           -0.220721021521     0.321901789328    -0.000498891091    12.000000000000
         C            1.257477978479    -0.199299210672     0.000158108909    12.000000000000
         H           -1.129981021521    -1.397727210672    -0.862891891091     1.007825032230
         H           -1.129497021521    -1.395575210672     0.866886108909     1.007825032230
         H           -2.870720021521     0.464885789328    -0.877932891091     1.007825032230
         H           -3.473032021521    -0.956814210672     0.002228108909     1.007825032230
         H           -2.870156021521     0.467116789328     0.878386108909     1.007825032230

  Basis Set: AUG-CC-PVTZ
    Blend: AUG-CC-PVTZ
  Basis Set: (AUG-CC-PVTZ AUX)
    Blend: AUG-CC-PVTZ-JKFIT
	 Reference Energy          =    -379.1493021389416640 [Eh]
	 Singles Energy            =      -0.0000000000000000 [Eh]
	 Same-Spin Energy          =      -0.3736775459833092 [Eh]
	 Opposite-Spin Energy      =      -1.1396115731140157 [Eh]
	 Correlation Energy        =      -1.5132891190973250 [Eh]
	 Total Energy              =    -380.6625912580390150 [Eh]

	 ================> DF-SCS-MP2 Energies <==================
	-----------------------------------------------------------
	 SCS Same-Spin Scale       =       0.3333333333333333 [-]
	 SCS Opposite-Spin Scale   =       1.2000000000000000 [-]
	 SCS Same-Spin Energy      =      -0.1245591819944364 [Eh]
	 SCS Opposite-Spin Energy  =      -1.3675338877368188 [Eh]
	 SCS Correlation Energy    =      -1.4920930697312553 [Eh]
	 SCS Total Energy          =    -380.6413952086729182 [Eh]
	-----------------------------------------------------------

  Dipole Moment: [D]
     X:    -6.5416      Y:    -0.7623      Z:     0.0022     Total:     6.5859

*** Psi4 exiting successfully. Buy a developer a beer!
