                               Psi4 1.3.2 release

  ==> Input File <==

--------------------------------------------------------------------------
#psi4
#
memory 32 gb

molecule  {
-1 1
  O       -0.4223990     1.5478120    -0.0024970
  O        2.2587260     0.7160740     0.0027440
  O        1.3504517    -1.4349733    -0.0023218
  C       -1.1980010    -0.7166360     0.0011530
  C       -2.6041790    -0.1343280     0.0009050
  C       -0.1110720     0.3537600    -0.0005690
  C        1.3671270    -0.1674410     0.0000880
  H       -1.0203320    -1.3658690    -0.8629620
  H       -1.0198480    -1.3637170     0.8668160
  H       -2.7610710     0.4967440    -0.8780030
  H       -3.3633830    -0.9249560     0.0021580
  H       -2.7605070     0.4989750     0.8783160
units angstrom
no_reorient  #important for SAPT in psi4, default
symmetry c1  #important for SAPT in psi4, default
}

set PROPERTIES_ORIGIN ["COM"]
properties('MP2/aug-cc-pvtz', properties = ['dipole'])
--------------------------------------------------------------------------

    Molecular point group: c1
  Charge       = -1
  Multiplicity = 1
  Basis Set: AUG-CC-PVTZ
    Blend: AUG-CC-PVTZ
  Basis Set: (AUG-CC-PVTZ AUX)
    Blend: AUG-CC-PVTZ-JKFIT

    Orbital Energies [Eh]
    ---------------------

    Doubly Occupied:

       1A    -20.395025     2A    -20.324959     3A    -20.323090
       4A    -11.167307     5A    -11.166802     6A    -11.095502
       7A    -11.090773     8A     -1.223280     9A     -1.182602
      10A     -1.100630    11A     -0.910666    12A     -0.767402
      13A     -0.654216    14A     -0.541835    15A     -0.490760
      16A     -0.489031    17A     -0.471080    18A     -0.424837
      19A     -0.401544    20A     -0.397348    21A     -0.378124
      22A     -0.359118    23A     -0.329697    24A     -0.308629
      25A     -0.243677    26A     -0.218629    27A     -0.204771

  @DF-RHF Final Energy:  -379.14982842255932

   => Energetics <=

    Nuclear Repulsion Energy =            285.5064436243801538
    One-Electron Energy =               -1095.9898811102930267
    Two-Electron Energy =                 431.3336090633535491
    Total Energy =                       -379.1498284225593238
  Basis Set: (AUG-CC-PVTZ AUX)
    Blend: AUG-CC-PVTZ-RI
    Molecular point group: c1

    Geometry (in Angstrom), charge = -1, multiplicity = 1:

       Center              X                  Y                   Z               Mass
    ------------   -----------------  -----------------  -----------------  -----------------
         O           -0.515526720496     1.522045619112    -0.002418921863    15.994914619570
         O            2.165598279504     0.690307619112     0.002822078137    15.994914619570
         O            1.257323979504    -1.460739680888    -0.002243721863    15.994914619570
         C           -1.291128720496    -0.742402380888     0.001231078137    12.000000000000
         C           -2.697306720496    -0.160094380888     0.000983078137    12.000000000000
         C           -0.204199720496     0.327993619112    -0.000490921863    12.000000000000
         C            1.273999279504    -0.193207380888     0.000166078137    12.000000000000
         H           -1.113459720496    -1.391635380888    -0.862883921863     1.007825032230
         H           -1.112975720496    -1.389483380888     0.866894078137     1.007825032230
         H           -2.854198720496     0.470977619112    -0.877924921863     1.007825032230
         H           -3.456510720496    -0.950722380888     0.002236078137     1.007825032230
         H           -2.853634720496     0.473208619112     0.878394078137     1.007825032230

  Basis Set: AUG-CC-PVTZ
    Blend: AUG-CC-PVTZ
  Basis Set: (AUG-CC-PVTZ AUX)
    Blend: AUG-CC-PVTZ-JKFIT
	 Reference Energy          =    -379.1498284225593238 [Eh]
	 Singles Energy            =      -0.0000000000000000 [Eh]
	 Same-Spin Energy          =      -0.3739712397672643 [Eh]
	 Opposite-Spin Energy      =      -1.1399400318485178 [Eh]
	 Correlation Energy        =      -1.5139112716157821 [Eh]
	 Total Energy              =    -380.6637396941750922 [Eh]

	 ================> DF-SCS-MP2 Energies <==================
	-----------------------------------------------------------
	 SCS Same-Spin Scale       =       0.3333333333333333 [-]
	 SCS Opposite-Spin Scale   =       1.2000000000000000 [-]
	 SCS Same-Spin Energy      =      -0.1246570799224214 [Eh]
	 SCS Opposite-Spin Energy  =      -1.3679280382182213 [Eh]
	 SCS Correlation Energy    =      -1.4925851181406427 [Eh]
	 SCS Total Energy          =    -380.6424135406999767 [Eh]
	-----------------------------------------------------------

  Dipole Moment: [D]
     X:    -6.2901      Y:    -0.8738      Z:     0.0025     Total:     6.3505

*** Psi4 exiting successfully. Buy a developer a beer!
