                               Psi4 1.3.2 release

  ==> Input File <==

--------------------------------------------------------------------------
#psi4
#
memory 32 gb

molecule  {
-1 1
  O       -0.4223990     1.5478120    -0.0024970
  O        2.2587260     0.7160740     0.0027440
  O        1.4389110    -1.4330490    -0.0022200
  C       -1.1980010    -0.7166360     0.0011530
  C       -2.6041790    -0.1343280     0.0009050
  C       -0.0542615     0.2839498    -0.1324629
  C        1.3671270    -0.1674410     0.0000880
  H       -1.0203320    -1.3658690    -0.8629620
  H       -1.0198480    -1.3637170     0.8668160
  H       -2.7610710     0.4967440    -0.8780030
  H       -3.3633830    -0.9249560     0.0021580
  H       -2.7605070     0.4989750     0.8783160
units angstrom
no_reorient  #important for SAPT in psi4, default
symmetry c1  #important for SAPT in psi4, default
}

set PROPERTIES_ORIGIN ["COM"]
properties('MP2/aug-cc-pvtz', properties = ['dipole'])
--------------------------------------------------------------------------

    Molecular point group: c1
  Charge       = -1
  Multiplicity = 1
  Basis Set: AUG-CC-PVTZ
    Blend: AUG-CC-PVTZ
  Basis Set: (AUG-CC-PVTZ AUX)
    Blend: AUG-CC-PVTZ-JKFIT

    Orbital Energies [Eh]
    ---------------------

    Doubly Occupied:

       1A    -20.396581     2A    -20.326631     3A    -20.322122
       4A    -11.183888     5A    -11.167562     6A    -11.100221
       7A    -11.099566     8A     -1.202849     9A     -1.160867
      10A     -1.098340    11A     -0.914512    12A     -0.783220
      13A     -0.677415    14A     -0.537979    15A     -0.491867
      16A     -0.485230    17A     -0.462056    18A     -0.426139
      19A     -0.402224    20A     -0.400618    21A     -0.373563
      22A     -0.362665    23A     -0.303192    24A     -0.299004
      25A     -0.241466    26A     -0.226612    27A     -0.216445

  @DF-RHF Final Energy:  -379.12228824897272

   => Energetics <=

    Nuclear Repulsion Energy =            284.3967840635360744
    One-Electron Energy =               -1093.7124781489933412
    Two-Electron Energy =                 430.1934058364845441
    Total Energy =                       -379.1222882489727226
  Basis Set: (AUG-CC-PVTZ AUX)
    Blend: AUG-CC-PVTZ-RI
    Molecular point group: c1

    Geometry (in Angstrom), charge = -1, multiplicity = 1:

       Center              X                  Y                   Z               Mass
    ------------   -----------------  -----------------  -----------------  -----------------
         O           -0.536280478703     1.530033269889     0.013231820215    15.994914619570
         O            2.144844521297     0.698295269889     0.018472820215    15.994914619570
         O            1.325029521297    -1.450827730111     0.013508820215    15.994914619570
         C           -1.311882478703    -0.734414730111     0.016881820215    12.000000000000
         C           -2.718060478703    -0.152106730111     0.016633820215    12.000000000000
         C           -0.168142978703     0.266171069889    -0.116734079785    12.000000000000
         C            1.253245521297    -0.185219730111     0.015816820215    12.000000000000
         H           -1.134213478703    -1.383647730111    -0.847233179785     1.007825032230
         H           -1.133729478703    -1.381495730111     0.882544820215     1.007825032230
         H           -2.874952478703     0.478965269889    -0.862274179785     1.007825032230
         H           -3.477264478703    -0.942734730111     0.017886820215     1.007825032230
         H           -2.874388478703     0.481196269889     0.894044820215     1.007825032230

  Basis Set: AUG-CC-PVTZ
    Blend: AUG-CC-PVTZ
  Basis Set: (AUG-CC-PVTZ AUX)
    Blend: AUG-CC-PVTZ-JKFIT
	 Reference Energy          =    -379.1222882489727226 [Eh]
	 Singles Energy            =      -0.0000000000000000 [Eh]
	 Same-Spin Energy          =      -0.3769244440641331 [Eh]
	 Opposite-Spin Energy      =      -1.1473625935976042 [Eh]
	 Correlation Energy        =      -1.5242870376617372 [Eh]
	 Total Energy              =    -380.6465752866344587 [Eh]

	 ================> DF-SCS-MP2 Energies <==================
	-----------------------------------------------------------
	 SCS Same-Spin Scale       =       0.3333333333333333 [-]
	 SCS Opposite-Spin Scale   =       1.2000000000000000 [-]
	 SCS Same-Spin Energy      =      -0.1256414813547110 [Eh]
	 SCS Opposite-Spin Energy  =      -1.3768351123171250 [Eh]
	 SCS Correlation Energy    =      -1.5024765936718361 [Eh]
	 SCS Total Energy          =    -380.6247648426445380 [Eh]
	-----------------------------------------------------------

  Dipole Moment: [D]
     X:    -6.3984      Y:    -1.0780      Z:    -0.1687     Total:     6.4908

*** Psi4 exiting successfully. Buy a developer a beer!
