                               Psi4 1.3.2 release

  ==> Input File <==

--------------------------------------------------------------------------
#psi4
#
memory 32 gb

molecule  {
-1 1
  O       -0.4223990     1.5478120    -0.0024970
  O        2.2587260     0.7160740     0.0027440
  O        1.4389110    -1.4330490    -0.0022200
  C       -1.1980010    -0.7166360     0.0011530
  C       -2.6041790    -0.1343280     0.0009050
  C       -0.1823224     0.2835933    -0.0004561
  C        1.3671270    -0.1674410     0.0000880
  H       -1.0203320    -1.3658690    -0.8629620
  H       -1.0198480    -1.3637170     0.8668160
  H       -2.7610710     0.4967440    -0.8780030
  H       -3.3633830    -0.9249560     0.0021580
  H       -2.7605070     0.4989750     0.8783160
units angstrom
no_reorient  #important for SAPT in psi4, default
symmetry c1  #important for SAPT in psi4, default
}

set PROPERTIES_ORIGIN ["COM"]
properties('MP2/aug-cc-pvtz', properties = ['dipole'])
--------------------------------------------------------------------------

    Molecular point group: c1
  Charge       = -1
  Multiplicity = 1
  Basis Set: AUG-CC-PVTZ
    Blend: AUG-CC-PVTZ
  Basis Set: (AUG-CC-PVTZ AUX)
    Blend: AUG-CC-PVTZ-JKFIT

    Orbital Energies [Eh]
    ---------------------

    Doubly Occupied:

       1A    -20.392623     2A    -20.320062     3A    -20.318298
       4A    -11.173801     5A    -11.167124     6A    -11.102485
       7A    -11.097706     8A     -1.199629     9A     -1.170965
      10A     -1.091737    11A     -0.934505    12A     -0.786619
      13A     -0.643988    14A     -0.551178    15A     -0.501960
      16A     -0.484444    17A     -0.465611    18A     -0.420598
      19A     -0.402527    20A     -0.399444    21A     -0.381846
      22A     -0.364075    23A     -0.312084    24A     -0.311891
      25A     -0.235453    26A     -0.213210    27A     -0.207022

  @DF-RHF Final Energy:  -379.13494818793015

   => Energetics <=

    Nuclear Repulsion Energy =            284.5804450537864341
    One-Electron Energy =               -1094.1290171136945446
    Two-Electron Energy =                 430.4136238719779612
    Total Energy =                       -379.1349481879301493
  Basis Set: (AUG-CC-PVTZ AUX)
    Blend: AUG-CC-PVTZ-RI
    Molecular point group: c1

    Geometry (in Angstrom), charge = -1, multiplicity = 1:

       Center              X                  Y                   Z               Mass
    ------------   -----------------  -----------------  -----------------  -----------------
         O           -0.521068917169     1.530075616317    -0.002448450353    15.994914619570
         O            2.160056082831     0.698337616317     0.002792549647    15.994914619570
         O            1.340241082831    -1.450785383683    -0.002171450353    15.994914619570
         C           -1.296670917169    -0.734372383683     0.001201549647    12.000000000000
         C           -2.702848917169    -0.152064383683     0.000953549647    12.000000000000
         C           -0.280992317169     0.265856916317    -0.000407550353    12.000000000000
         C            1.268457082831    -0.185177383683     0.000136549647    12.000000000000
         H           -1.119001917169    -1.383605383683    -0.862913450353     1.007825032230
         H           -1.118517917169    -1.381453383683     0.866864549647     1.007825032230
         H           -2.859740917169     0.479007616317    -0.877954450353     1.007825032230
         H           -3.462052917169    -0.942692383683     0.002206549647     1.007825032230
         H           -2.859176917169     0.481238616317     0.878364549647     1.007825032230

  Basis Set: AUG-CC-PVTZ
    Blend: AUG-CC-PVTZ
  Basis Set: (AUG-CC-PVTZ AUX)
    Blend: AUG-CC-PVTZ-JKFIT
	 Reference Energy          =    -379.1349481879301493 [Eh]
	 Singles Energy            =      -0.0000000000000000 [Eh]
	 Same-Spin Energy          =      -0.3758285112610773 [Eh]
	 Opposite-Spin Energy      =      -1.1433306487882067 [Eh]
	 Correlation Energy        =      -1.5191591600492840 [Eh]
	 Total Energy              =    -380.6541073479794477 [Eh]

	 ================> DF-SCS-MP2 Energies <==================
	-----------------------------------------------------------
	 SCS Same-Spin Scale       =       0.3333333333333333 [-]
	 SCS Opposite-Spin Scale   =       1.2000000000000000 [-]
	 SCS Same-Spin Energy      =      -0.1252761704203591 [Eh]
	 SCS Opposite-Spin Energy  =      -1.3719967785458480 [Eh]
	 SCS Correlation Energy    =      -1.4972729489662071 [Eh]
	 SCS Total Energy          =    -380.6322211368963622 [Eh]
	-----------------------------------------------------------

  Dipole Moment: [D]
     X:    -6.8789      Y:    -1.1911      Z:     0.0032     Total:     6.9813

*** Psi4 exiting successfully. Buy a developer a beer!
