                               Psi4 1.4a3.dev225

  ==> Input File <==

--------------------------------------------------------------------------
#psi4
#
memory 32 gb

molecule  {
-1 1
  O       -0.3985850     1.5131790    -0.2845690
  O        2.2066640     0.7149310     0.3161120
  O        1.5078530    -1.3885780    -0.2413420
  C       -1.2053190    -0.7120700     0.1148020
  C       -2.6123310    -0.1342710     0.1051660
  C       -0.1229610     0.3296160    -0.0682900
  C        1.3685008    -0.1648268     0.0142917
  H       -1.0703250    -1.4639250    -0.6703970
  H       -0.9966990    -1.2446330     1.0513490
  H       -2.8226470     0.3633290    -0.8444420
  H       -3.3547600    -0.9237900     0.2511250
  H       -2.7366210     0.6043540     0.9012280
units angstrom
no_reorient  #important for SAPT in psi4, default
symmetry c1  #important for SAPT in psi4, default
}

set PROPERTIES_ORIGIN ["COM"]
properties('MP2/aug-cc-pvtz', properties = ['dipole'])
--------------------------------------------------------------------------

    Molecular point group: c1
  Charge       = -1
  Multiplicity = 1
  Basis Set: AUG-CC-PVTZ
    Blend: AUG-CC-PVTZ
  Basis Set: (AUG-CC-PVTZ AUX)
    Blend: AUG-CC-PVTZ-JKFIT

    Orbital Energies [Eh]
    ---------------------

    Doubly Occupied:

       1A    -20.396569     2A    -20.320367     3A    -20.314636
       4A    -11.171245     5A    -11.160935     6A    -11.100997
       7A    -11.098422     8A     -1.224847     9A     -1.183348
      10A     -1.093212    11A     -0.919631    12A     -0.774622
      13A     -0.654585    14A     -0.546350    15A     -0.496366
      16A     -0.490032    17A     -0.469919    18A     -0.423780
      19A     -0.407194    20A     -0.395637    21A     -0.384694
      22A     -0.364715    23A     -0.331353    24A     -0.312321
      25A     -0.235349    26A     -0.214233    27A     -0.203768

  @DF-RHF Final Energy:  -379.15396295185070

   => Energetics <=

    Nuclear Repulsion Energy =            284.7704867181657846
    One-Electron Energy =               -1094.4706449753709876
    Two-Electron Energy =                 430.5461953053545017
    Total Energy =                       -379.1539629518507013
  Basis Set: (AUG-CC-PVTZ AUX)
    Blend: AUG-CC-PVTZ-RI
    Molecular point group: c1

    Geometry (in Angstrom), charge = -1, multiplicity = 1:

       Center              X                  Y                   Z               Mass
    ------------   -----------------  -----------------  -----------------  -----------------
         O           -0.508516918528     1.487797820327    -0.277938613304    15.994914619570
         O            2.096732081472     0.689549820327     0.322742386696    15.994914619570
         O            1.397921081472    -1.413959179673    -0.234711613304    15.994914619570
         C           -1.315250918528    -0.737451179673     0.121432386696    12.000000000000
         C           -2.722262918528    -0.159652179673     0.111796386696    12.000000000000
         C           -0.232892918528     0.304234820327    -0.061659613304    12.000000000000
         C            1.258568881472    -0.190207979673     0.020922086696    12.000000000000
         H           -1.180256918528    -1.489306179673    -0.663766613304     1.007825032230
         H           -1.106630918528    -1.270014179673     1.057979386696     1.007825032230
         H           -2.932578918528     0.337947820327    -0.837811613304     1.007825032230
         H           -3.464691918528    -0.949171179673     0.257755386696     1.007825032230
         H           -2.846552918528     0.578972820327     0.907858386696     1.007825032230

  Basis Set: AUG-CC-PVTZ
    Blend: AUG-CC-PVTZ
  Basis Set: (AUG-CC-PVTZ AUX)
    Blend: AUG-CC-PVTZ-JKFIT
	 Reference Energy          =    -379.1539629518507013 [Eh]
	 Singles Energy            =      -0.0000000000000000 [Eh]
	 Same-Spin Energy          =      -0.3731291797081330 [Eh]
	 Opposite-Spin Energy      =      -1.1381796549920888 [Eh]
	 Correlation Energy        =      -1.5113088347002219 [Eh]
	 Total Energy              =    -380.6652717865509317 [Eh]

	 ================> DF-SCS-MP2 Energies <==================
	-----------------------------------------------------------
	 SCS Same-Spin Scale       =       0.3333333333333333 [-]
	 SCS Opposite-Spin Scale   =       1.2000000000000000 [-]
	 SCS Same-Spin Energy      =      -0.1243763932360443 [Eh]
	 SCS Opposite-Spin Energy  =      -1.3658155859905066 [Eh]
	 SCS Correlation Energy    =      -1.4901919792265510 [Eh]
	 SCS Total Energy          =    -380.6441549310772530 [Eh]
	-----------------------------------------------------------

  Dipole Moment: [D]
     X:    -6.7669      Y:    -0.9494      Z:     0.2404     Total:     6.8375

*** Psi4 exiting successfully. Buy a developer a beer!
