                               Psi4 1.3.2 release

  ==> Input File <==

--------------------------------------------------------------------------
#psi4
#
memory 32 gb

molecule  {
-1 1
  O       -0.2958809     1.5738133    -0.0025573
  O        2.2587260     0.7160740     0.0027440
  O        1.4389110    -1.4330490    -0.0022200
  C       -1.1980010    -0.7166360     0.0011530
  C       -2.6041790    -0.1343280     0.0009050
  C       -0.1110720     0.3537600    -0.0005690
  C        1.3671270    -0.1674410     0.0000880
  H       -1.0203320    -1.3658690    -0.8629620
  H       -1.0198480    -1.3637170     0.8668160
  H       -2.7610710     0.4967440    -0.8780030
  H       -3.3633830    -0.9249560     0.0021580
  H       -2.7605070     0.4989750     0.8783160
units angstrom
no_reorient  #important for SAPT in psi4, default
symmetry c1  #important for SAPT in psi4, default
}

set PROPERTIES_ORIGIN ["COM"]
properties('MP2/aug-cc-pvtz', properties = ['dipole'])
--------------------------------------------------------------------------

    Molecular point group: c1
  Charge       = -1
  Multiplicity = 1
  Basis Set: AUG-CC-PVTZ
    Blend: AUG-CC-PVTZ
  Basis Set: (AUG-CC-PVTZ AUX)
    Blend: AUG-CC-PVTZ-JKFIT

    Orbital Energies [Eh]
    ---------------------

    Doubly Occupied:

       1A    -20.398362     2A    -20.317440     3A    -20.312847
       4A    -11.171281     5A    -11.157700     6A    -11.102375
       7A    -11.100206     8A     -1.224769     9A     -1.176238
      10A     -1.088100    11A     -0.919431    12A     -0.773015
      13A     -0.655069    14A     -0.544574    15A     -0.494855
      16A     -0.489198    17A     -0.468268    18A     -0.422898
      19A     -0.402395    20A     -0.398520    21A     -0.385253
      22A     -0.361361    23A     -0.329252    24A     -0.309963
      25A     -0.231842    26A     -0.209471    27A     -0.204692

  @DF-RHF Final Energy:  -379.14971250117992

   => Energetics <=

    Nuclear Repulsion Energy =            284.8211295532147460
    One-Electron Energy =               -1094.6429308288404627
    Two-Electron Energy =                 430.6720887744457968
    Total Energy =                       -379.1497125011799199
  Basis Set: (AUG-CC-PVTZ AUX)
    Blend: AUG-CC-PVTZ-RI
    Molecular point group: c1

    Geometry (in Angstrom), charge = -1, multiplicity = 1:

       Center              X                  Y                   Z               Mass
    ------------   -----------------  -----------------  -----------------  -----------------
         O           -0.423045578212     1.543625512646    -0.002485792478    15.994914619570
         O            2.131561321788     0.685886212646     0.002815507522    15.994914619570
         O            1.311746321788    -1.463236787354    -0.002148492478    15.994914619570
         C           -1.325165678212    -0.746823787354     0.001224507522    12.000000000000
         C           -2.731343678212    -0.164515787354     0.000976507522    12.000000000000
         C           -0.238236678212     0.323572212646    -0.000497492478    12.000000000000
         C            1.239962321788    -0.197628787354     0.000159507522    12.000000000000
         H           -1.147496678212    -1.396056787354    -0.862890492478     1.007825032230
         H           -1.147012678212    -1.393904787354     0.866887507522     1.007825032230
         H           -2.888235678212     0.466556212646    -0.877931492478     1.007825032230
         H           -3.490547678212    -0.955143787354     0.002229507522     1.007825032230
         H           -2.887671678212     0.468787212646     0.878387507522     1.007825032230

  Basis Set: AUG-CC-PVTZ
    Blend: AUG-CC-PVTZ
  Basis Set: (AUG-CC-PVTZ AUX)
    Blend: AUG-CC-PVTZ-JKFIT
	 Reference Energy          =    -379.1497125011799199 [Eh]
	 Singles Energy            =      -0.0000000000000000 [Eh]
	 Same-Spin Energy          =      -0.3736100110328333 [Eh]
	 Opposite-Spin Energy      =      -1.1394708590272440 [Eh]
	 Correlation Energy        =      -1.5130808700600773 [Eh]
	 Total Energy              =    -380.6627933712400136 [Eh]

	 ================> DF-SCS-MP2 Energies <==================
	-----------------------------------------------------------
	 SCS Same-Spin Scale       =       0.3333333333333333 [-]
	 SCS Opposite-Spin Scale   =       1.2000000000000000 [-]
	 SCS Same-Spin Energy      =      -0.1245366703442778 [Eh]
	 SCS Opposite-Spin Energy  =      -1.3673650308326928 [Eh]
	 SCS Correlation Energy    =      -1.4919017011769706 [Eh]
	 SCS Total Energy          =    -380.6416142023568909 [Eh]
	-----------------------------------------------------------

  Dipole Moment: [D]
     X:    -6.8551      Y:    -0.8477      Z:     0.0026     Total:     6.9073

*** Psi4 exiting successfully. Buy a developer a beer!
