                               Psi4 1.3.2 release

  ==> Input File <==

--------------------------------------------------------------------------
#psi4
#
memory 32 gb

molecule  {
-1 1
  O       -0.4223990     1.5478120    -0.0024970
  O        2.2587260     0.7160740     0.0027440
  O        1.4389110    -1.4330490    -0.0022200
  C       -1.1980010    -0.7166360     0.0011530
  C       -2.6041790    -0.1343280     0.0009050
  C       -0.1217170     0.3642737     0.0214543
  C        1.3671270    -0.1674410     0.0000880
  H       -1.0203320    -1.3658690    -0.8629620
  H       -1.0198480    -1.3637170     0.8668160
  H       -2.7610710     0.4967440    -0.8780030
  H       -3.3633830    -0.9249560     0.0021580
  H       -2.7605070     0.4989750     0.8783160
units angstrom
no_reorient  #important for SAPT in psi4, default
symmetry c1  #important for SAPT in psi4, default
}

set PROPERTIES_ORIGIN ["COM"]
properties('MP2/aug-cc-pvtz', properties = ['dipole'])
--------------------------------------------------------------------------

    Molecular point group: c1
  Charge       = -1
  Multiplicity = 1
  Basis Set: AUG-CC-PVTZ
    Blend: AUG-CC-PVTZ
  Basis Set: (AUG-CC-PVTZ AUX)
    Blend: AUG-CC-PVTZ-JKFIT

    Orbital Energies [Eh]
    ---------------------

    Doubly Occupied:

       1A    -20.399601     2A    -20.321495     3A    -20.317558
       4A    -11.171036     5A    -11.164161     6A    -11.098067
       7A    -11.093708     8A     -1.233099     9A     -1.181946
      10A     -1.092113    11A     -0.914246    12A     -0.769657
      13A     -0.652847    14A     -0.546100    15A     -0.493520
      16A     -0.491940    17A     -0.471050    18A     -0.422291
      19A     -0.402041    20A     -0.397603    21A     -0.382437
      22A     -0.360221    23A     -0.335940    24A     -0.312841
      25A     -0.236535    26A     -0.213209    27A     -0.205324

  @DF-RHF Final Energy:  -379.15314153894519

   => Energetics <=

    Nuclear Repulsion Energy =            284.8019370952035842
    One-Electron Energy =               -1094.5489831955296722
    Two-Electron Energy =                 430.5939045613808958
    Total Energy =                       -379.1531415389451922
  Basis Set: (AUG-CC-PVTZ AUX)
    Blend: AUG-CC-PVTZ-RI
    Molecular point group: c1

    Geometry (in Angstrom), charge = -1, multiplicity = 1:

       Center              X                  Y                   Z               Mass
    ------------   -----------------  -----------------  -----------------  -----------------
         O           -0.528267857450     1.520492091063    -0.005051051130    15.994914619570
         O            2.152857142550     0.688754091063     0.000189948870    15.994914619570
         O            1.333042142550    -1.460368908937    -0.004774051130    15.994914619570
         C           -1.303869857450    -0.743955908937    -0.001401051130    12.000000000000
         C           -2.710047857450    -0.161647908937    -0.001649051130    12.000000000000
         C           -0.227585857450     0.336953791063     0.018900248870    12.000000000000
         C            1.261258142550    -0.194760908937    -0.002466051130    12.000000000000
         H           -1.126200857450    -1.393188908937    -0.865516051130     1.007825032230
         H           -1.125716857450    -1.391036908937     0.864261948870     1.007825032230
         H           -2.866939857450     0.469424091063    -0.880557051130     1.007825032230
         H           -3.469251857450    -0.952275908937    -0.000396051130     1.007825032230
         H           -2.866375857450     0.471655091063     0.875761948870     1.007825032230

  Basis Set: AUG-CC-PVTZ
    Blend: AUG-CC-PVTZ
  Basis Set: (AUG-CC-PVTZ AUX)
    Blend: AUG-CC-PVTZ-JKFIT
	 Reference Energy          =    -379.1531415389451922 [Eh]
	 Singles Energy            =      -0.0000000000000000 [Eh]
	 Same-Spin Energy          =      -0.3733475711243394 [Eh]
	 Opposite-Spin Energy      =      -1.1387540137963577 [Eh]
	 Correlation Energy        =      -1.5121015849206971 [Eh]
	 Total Energy              =    -380.6652431238658778 [Eh]

	 ================> DF-SCS-MP2 Energies <==================
	-----------------------------------------------------------
	 SCS Same-Spin Scale       =       0.3333333333333333 [-]
	 SCS Opposite-Spin Scale   =       1.2000000000000000 [-]
	 SCS Same-Spin Energy      =      -0.1244491903747798 [Eh]
	 SCS Opposite-Spin Energy  =      -1.3665048165556291 [Eh]
	 SCS Correlation Energy    =      -1.4909540069304088 [Eh]
	 SCS Total Energy          =    -380.6440955458755866 [Eh]
	-----------------------------------------------------------

  Dipole Moment: [D]
     X:    -6.6035      Y:    -0.7839      Z:     0.0340     Total:     6.6500

*** Psi4 exiting successfully. Buy a developer a beer!
