                               Psi4 1.3.2 release

  ==> Input File <==

--------------------------------------------------------------------------
#psi4
#
memory 32 gb

molecule  {
-1 1
  O       -0.4223990     1.5478120    -0.0024970
  O        2.2587260     0.7160740     0.0027440
  O        1.4389110    -1.4330490    -0.0022200
  C       -1.1980010    -0.7166360     0.0011530
  C       -2.6141275    -0.1589579     0.0009394
  C       -0.1110720     0.3537600    -0.0005690
  C        1.3671270    -0.1674410     0.0000880
  H       -1.0203320    -1.3658690    -0.8629620
  H       -1.0198480    -1.3637170     0.8668160
  H       -2.7610710     0.4967440    -0.8780030
  H       -3.3633830    -0.9249560     0.0021580
  H       -2.7605070     0.4989750     0.8783160
units angstrom
no_reorient  #important for SAPT in psi4, default
symmetry c1  #important for SAPT in psi4, default
}

set PROPERTIES_ORIGIN ["COM"]
properties('MP2/aug-cc-pvtz', properties = ['dipole'])
--------------------------------------------------------------------------

    Molecular point group: c1
  Charge       = -1
  Multiplicity = 1
  Basis Set: AUG-CC-PVTZ
    Blend: AUG-CC-PVTZ
  Basis Set: (AUG-CC-PVTZ AUX)
    Blend: AUG-CC-PVTZ-JKFIT

    Orbital Energies [Eh]
    ---------------------

    Doubly Occupied:

       1A    -20.399147     2A    -20.322215     3A    -20.318382
       4A    -11.173140     5A    -11.164931     6A    -11.098385
       7A    -11.094410     8A     -1.226022     9A     -1.182115
      10A     -1.093121    11A     -0.914170    12A     -0.771831
      13A     -0.656799    14A     -0.545252    15A     -0.492661
      16A     -0.489241    17A     -0.470446    18A     -0.427193
      19A     -0.401786    20A     -0.399196    21A     -0.379310
      22A     -0.358016    23A     -0.331707    24A     -0.311225
      25A     -0.237338    26A     -0.213742    27A     -0.209265

  @DF-RHF Final Energy:  -379.15122311004717

   => Energetics <=

    Nuclear Repulsion Energy =            284.6315760668147732
    One-Electron Energy =               -1094.2035103088467167
    Two-Electron Energy =                 430.4207111319847741
    Total Energy =                       -379.1512231100471695
  Basis Set: (AUG-CC-PVTZ AUX)
    Blend: AUG-CC-PVTZ-RI
    Molecular point group: c1

    Geometry (in Angstrom), charge = -1, multiplicity = 1:

       Center              X                  Y                   Z               Mass
    ------------   -----------------  -----------------  -----------------  -----------------
         O           -0.528350590373     1.524666581746    -0.002439125824    15.994914619570
         O            2.152774409627     0.692928581746     0.002801874176    15.994914619570
         O            1.332959409627    -1.456194418254    -0.002162125824    15.994914619570
         C           -1.303952590373    -0.739781418254     0.001210874176    12.000000000000
         C           -2.720079090373    -0.182103318254     0.000997274176    12.000000000000
         C           -0.217023590373     0.330614581746    -0.000511125824    12.000000000000
         C            1.261175409627    -0.190586418254     0.000145874176    12.000000000000
         H           -1.126283590373    -1.389014418254    -0.862904125824     1.007825032230
         H           -1.125799590373    -1.386862418254     0.866873874176     1.007825032230
         H           -2.867022590373     0.473598581746    -0.877945125824     1.007825032230
         H           -3.469334590373    -0.948101418254     0.002215874176     1.007825032230
         H           -2.866458590373     0.475829581746     0.878373874176     1.007825032230

  Basis Set: AUG-CC-PVTZ
    Blend: AUG-CC-PVTZ
  Basis Set: (AUG-CC-PVTZ AUX)
    Blend: AUG-CC-PVTZ-JKFIT
	 Reference Energy          =    -379.1512231100471695 [Eh]
	 Singles Energy            =      -0.0000000000000000 [Eh]
	 Same-Spin Energy          =      -0.3737020668834994 [Eh]
	 Opposite-Spin Energy      =      -1.1396358976210124 [Eh]
	 Correlation Energy        =      -1.5133379645045117 [Eh]
	 Total Energy              =    -380.6645610745516706 [Eh]

	 ================> DF-SCS-MP2 Energies <==================
	-----------------------------------------------------------
	 SCS Same-Spin Scale       =       0.3333333333333333 [-]
	 SCS Opposite-Spin Scale   =       1.2000000000000000 [-]
	 SCS Same-Spin Energy      =      -0.1245673556278331 [Eh]
	 SCS Opposite-Spin Energy  =      -1.3675630771452147 [Eh]
	 SCS Correlation Energy    =      -1.4921304327730478 [Eh]
	 SCS Total Energy          =    -380.6433535428201935 [Eh]
	-----------------------------------------------------------

  Dipole Moment: [D]
     X:    -6.5805      Y:    -0.8599      Z:     0.0024     Total:     6.6364

*** Psi4 exiting successfully. Buy a developer a beer!
