                               Psi4 1.3.2 release

  ==> Input File <==

--------------------------------------------------------------------------
#psi4
#
memory 32 gb

molecule  {
-1 1
  O       -0.4223990     1.5478120    -0.0024970
  O        2.2587260     0.7160740     0.0027440
  O        1.4389110    -1.4330490    -0.0022200
  C       -1.1980010    -0.7166360     0.0011530
  C       -2.6236446    -0.1837576     0.0009739
  C       -0.1110720     0.3537600    -0.0005690
  C        1.3671270    -0.1674410     0.0000880
  H       -1.0203320    -1.3658690    -0.8629620
  H       -1.0198480    -1.3637170     0.8668160
  H       -2.7610710     0.4967440    -0.8780030
  H       -3.3633830    -0.9249560     0.0021580
  H       -2.7605070     0.4989750     0.8783160
units angstrom
no_reorient  #important for SAPT in psi4, default
symmetry c1  #important for SAPT in psi4, default
}

set PROPERTIES_ORIGIN ["COM"]
properties('MP2/aug-cc-pvtz', properties = ['dipole'])
--------------------------------------------------------------------------

    Molecular point group: c1
  Charge       = -1
  Multiplicity = 1
  Basis Set: AUG-CC-PVTZ
    Blend: AUG-CC-PVTZ
  Basis Set: (AUG-CC-PVTZ AUX)
    Blend: AUG-CC-PVTZ-JKFIT

    Orbital Energies [Eh]
    ---------------------

    Doubly Occupied:

       1A    -20.399341     2A    -20.322284     3A    -20.318587
       4A    -11.173679     5A    -11.165255     6A    -11.098723
       7A    -11.094498     8A     -1.226115     9A     -1.182253
      10A     -1.093265    11A     -0.914253    12A     -0.772436
      13A     -0.657128    14A     -0.545682    15A     -0.494027
      16A     -0.486887    17A     -0.470304    18A     -0.432472
      19A     -0.404819    20A     -0.396983    21A     -0.376546
      22A     -0.354970    23A     -0.331510    24A     -0.311374
      25A     -0.237446    26A     -0.213844    27A     -0.209676

  @DF-RHF Final Energy:  -379.14875216029964

   => Energetics <=

    Nuclear Repulsion Energy =            284.4948457322978470
    One-Electron Energy =               -1093.9184816438053076
    Two-Electron Energy =                 430.2748837512078808
    Total Energy =                       -379.1487521602996367
  Basis Set: (AUG-CC-PVTZ AUX)
    Blend: AUG-CC-PVTZ-RI
    Molecular point group: c1

    Geometry (in Angstrom), charge = -1, multiplicity = 1:

       Center              X                  Y                   Z               Mass
    ------------   -----------------  -----------------  -----------------  -----------------
         O           -0.527220112981     1.527612384583    -0.002443223865    15.994914619570
         O            2.153904887019     0.695874384583     0.002797776135    15.994914619570
         O            1.334089887019    -1.453248615417    -0.002166223865    15.994914619570
         C           -1.302822112981    -0.736835615417     0.001206776135    12.000000000000
         C           -2.728465712981    -0.203957215417     0.001027676135    12.000000000000
         C           -0.215893112981     0.333560384583    -0.000515223865    12.000000000000
         C            1.262305887019    -0.187640615417     0.000141776135    12.000000000000
         H           -1.125153112981    -1.386068615417    -0.862908223865     1.007825032230
         H           -1.124669112981    -1.383916615417     0.866869776135     1.007825032230
         H           -2.865892112981     0.476544384583    -0.877949223865     1.007825032230
         H           -3.468204112981    -0.945155615417     0.002211776135     1.007825032230
         H           -2.865328112981     0.478775384583     0.878369776135     1.007825032230

  Basis Set: AUG-CC-PVTZ
    Blend: AUG-CC-PVTZ
  Basis Set: (AUG-CC-PVTZ AUX)
    Blend: AUG-CC-PVTZ-JKFIT
	 Reference Energy          =    -379.1487521602996367 [Eh]
	 Singles Energy            =      -0.0000000000000000 [Eh]
	 Same-Spin Energy          =      -0.3737562417276062 [Eh]
	 Opposite-Spin Energy      =      -1.1397821959960928 [Eh]
	 Correlation Energy        =      -1.5135384377236991 [Eh]
	 Total Energy              =    -380.6622905980233327 [Eh]

	 ================> DF-SCS-MP2 Energies <==================
	-----------------------------------------------------------
	 SCS Same-Spin Scale       =       0.3333333333333333 [-]
	 SCS Opposite-Spin Scale   =       1.2000000000000000 [-]
	 SCS Same-Spin Energy      =      -0.1245854139092021 [Eh]
	 SCS Opposite-Spin Energy  =      -1.3677386351953114 [Eh]
	 SCS Correlation Energy    =      -1.4923240491045133 [Eh]
	 SCS Total Energy          =    -380.6410762094041615 [Eh]
	-----------------------------------------------------------

  Dipole Moment: [D]
     X:    -6.5821      Y:    -0.8894      Z:     0.0024     Total:     6.6419

*** Psi4 exiting successfully. Buy a developer a beer!
