                               Psi4 1.3.2 release

  ==> Input File <==

--------------------------------------------------------------------------
#psi4
#
memory 32 gb

molecule  {
-1 1
  O       -0.4223990     1.5478120    -0.0024970
  O        2.2431707     0.7315000     0.0027558
  O        1.4389110    -1.4330490    -0.0022200
  C       -1.1980010    -0.7166360     0.0011530
  C       -2.6041790    -0.1343280     0.0009050
  C       -0.1110720     0.3537600    -0.0005690
  C        1.3671270    -0.1674410     0.0000880
  H       -1.0203320    -1.3658690    -0.8629620
  H       -1.0198480    -1.3637170     0.8668160
  H       -2.7610710     0.4967440    -0.8780030
  H       -3.3633830    -0.9249560     0.0021580
  H       -2.7605070     0.4989750     0.8783160
units angstrom
no_reorient  #important for SAPT in psi4, default
symmetry c1  #important for SAPT in psi4, default
}

set PROPERTIES_ORIGIN ["COM"]
properties('MP2/aug-cc-pvtz', properties = ['dipole'])
--------------------------------------------------------------------------

    Molecular point group: c1
  Charge       = -1
  Multiplicity = 1
  Basis Set: AUG-CC-PVTZ
    Blend: AUG-CC-PVTZ
  Basis Set: (AUG-CC-PVTZ AUX)
    Blend: AUG-CC-PVTZ-JKFIT

    Orbital Energies [Eh]
    ---------------------

    Doubly Occupied:

       1A    -20.398017     2A    -20.323293     3A    -20.318811
       4A    -11.171332     5A    -11.165095     6A    -11.097858
       7A    -11.093820     8A     -1.225301     9A     -1.181842
      10A     -1.094620    11A     -0.913686    12A     -0.770871
      13A     -0.655952    14A     -0.544212    15A     -0.491428
      16A     -0.491291    17A     -0.470412    18A     -0.423446
      19A     -0.401569    20A     -0.397648    21A     -0.381295
      22A     -0.360624    23A     -0.331253    24A     -0.310455
      25A     -0.238675    26A     -0.214696    27A     -0.207823

  @DF-RHF Final Energy:  -379.15178531060855

   => Energetics <=

    Nuclear Repulsion Energy =            284.8949052342586015
    One-Electron Energy =               -1094.7427318575537356
    Two-Electron Energy =                 430.6960413126865319
    Total Energy =                       -379.1517853106085454
  Basis Set: (AUG-CC-PVTZ AUX)
    Blend: AUG-CC-PVTZ-RI
    Molecular point group: c1

    Geometry (in Angstrom), charge = -1, multiplicity = 1:

       Center              X                  Y                   Z               Mass
    ------------   -----------------  -----------------  -----------------  -----------------
         O           -0.527069470410     1.519298579528    -0.002436907932    15.994914619570
         O            2.138500229590     0.702986579528     0.002815892068    15.994914619570
         O            1.334240529590    -1.461562420472    -0.002159907932    15.994914619570
         C           -1.302671470410    -0.745149420472     0.001213092068    12.000000000000
         C           -2.708849470410    -0.162841420472     0.000965092068    12.000000000000
         C           -0.215742470410     0.325246579528    -0.000508907932    12.000000000000
         C            1.262456529590    -0.195954420472     0.000148092068    12.000000000000
         H           -1.125002470410    -1.394382420472    -0.862901907932     1.007825032230
         H           -1.124518470410    -1.392230420472     0.866876092068     1.007825032230
         H           -2.865741470410     0.468230579528    -0.877942907932     1.007825032230
         H           -3.468053470410    -0.953469420472     0.002218092068     1.007825032230
         H           -2.865177470410     0.470461579528     0.878376092068     1.007825032230

  Basis Set: AUG-CC-PVTZ
    Blend: AUG-CC-PVTZ
  Basis Set: (AUG-CC-PVTZ AUX)
    Blend: AUG-CC-PVTZ-JKFIT
	 Reference Energy          =    -379.1517853106085454 [Eh]
	 Singles Energy            =      -0.0000000000000000 [Eh]
	 Same-Spin Energy          =      -0.3737221495448252 [Eh]
	 Opposite-Spin Energy      =      -1.1396059770330424 [Eh]
	 Correlation Energy        =      -1.5133281265778677 [Eh]
	 Total Energy              =    -380.6651134371863918 [Eh]

	 ================> DF-SCS-MP2 Energies <==================
	-----------------------------------------------------------
	 SCS Same-Spin Scale       =       0.3333333333333333 [-]
	 SCS Opposite-Spin Scale   =       1.2000000000000000 [-]
	 SCS Same-Spin Energy      =      -0.1245740498482751 [Eh]
	 SCS Opposite-Spin Energy  =      -1.3675271724396509 [Eh]
	 SCS Correlation Energy    =      -1.4921012222879260 [Eh]
	 SCS Total Energy          =    -380.6438865328964880 [Eh]
	-----------------------------------------------------------

  Dipole Moment: [D]
     X:    -6.5207      Y:    -0.8518      Z:     0.0023     Total:     6.5761

*** Psi4 exiting successfully. Buy a developer a beer!
