                               Psi4 1.3.2 release

  ==> Input File <==

--------------------------------------------------------------------------
#psi4
#
memory 32 gb

molecule  {
-1 1
  O       -0.4223990     1.5478120    -0.0024970
  O        2.2587260     0.7160740     0.0027440
  O        1.4389110    -1.4330490    -0.0022200
  C       -1.1599825    -0.7539172     0.0012061
  C       -2.6041790    -0.1343280     0.0009050
  C       -0.1110720     0.3537600    -0.0005690
  C        1.3671270    -0.1674410     0.0000880
  H       -1.0203320    -1.3658690    -0.8629620
  H       -1.0198480    -1.3637170     0.8668160
  H       -2.7610710     0.4967440    -0.8780030
  H       -3.3633830    -0.9249560     0.0021580
  H       -2.7605070     0.4989750     0.8783160
units angstrom
no_reorient  #important for SAPT in psi4, default
symmetry c1  #important for SAPT in psi4, default
}

set PROPERTIES_ORIGIN ["COM"]
properties('MP2/aug-cc-pvtz', properties = ['dipole'])
--------------------------------------------------------------------------

    Molecular point group: c1
  Charge       = -1
  Multiplicity = 1
  Basis Set: AUG-CC-PVTZ
    Blend: AUG-CC-PVTZ
  Basis Set: (AUG-CC-PVTZ AUX)
    Blend: AUG-CC-PVTZ-JKFIT

    Orbital Energies [Eh]
    ---------------------

    Doubly Occupied:

       1A    -20.400933     2A    -20.321958     3A    -20.317414
       4A    -11.173321     5A    -11.163149     6A    -11.099068
       7A    -11.092947     8A     -1.226421     9A     -1.181754
      10A     -1.092649    11A     -0.907831    12A     -0.772205
      13A     -0.659072    14A     -0.544669    15A     -0.495332
      16A     -0.491188    17A     -0.470033    18A     -0.421081
      19A     -0.402350    20A     -0.393440    21A     -0.373590
      22A     -0.368572    23A     -0.334541    24A     -0.312818
      25A     -0.236524    26A     -0.213384    27A     -0.207986

  @DF-RHF Final Energy:  -379.14975278676650

   => Energetics <=

    Nuclear Repulsion Energy =            284.6159399482642129
    One-Electron Energy =               -1094.1829272901111381
    Two-Electron Energy =                 430.4172345550804266
    Total Energy =                       -379.1497527867664985
  Basis Set: (AUG-CC-PVTZ AUX)
    Blend: AUG-CC-PVTZ-RI
    Molecular point group: c1

    Geometry (in Angstrom), charge = -1, multiplicity = 1:

       Center              X                  Y                   Z               Mass
    ------------   -----------------  -----------------  -----------------  -----------------
         O           -0.534048293358     1.526169351353    -0.002441347081    15.994914619570
         O            2.147076706642     0.694431351353     0.002799652919    15.994914619570
         O            1.327261706642    -1.454691648647    -0.002164347081    15.994914619570
         C           -1.271631793358    -0.775559848647     0.001261752919    12.000000000000
         C           -2.715828293358    -0.155970648647     0.000960652919    12.000000000000
         C           -0.222721293358     0.332117351353    -0.000513347081    12.000000000000
         C            1.255477706642    -0.189083648647     0.000143652919    12.000000000000
         H           -1.131981293358    -1.387511648647    -0.862906347081     1.007825032230
         H           -1.131497293358    -1.385359648647     0.866871652919     1.007825032230
         H           -2.872720293358     0.475101351353    -0.877947347081     1.007825032230
         H           -3.475032293358    -0.946598648647     0.002213652919     1.007825032230
         H           -2.872156293358     0.477332351353     0.878371652919     1.007825032230

  Basis Set: AUG-CC-PVTZ
    Blend: AUG-CC-PVTZ
  Basis Set: (AUG-CC-PVTZ AUX)
    Blend: AUG-CC-PVTZ-JKFIT
	 Reference Energy          =    -379.1497527867664985 [Eh]
	 Singles Energy            =      -0.0000000000000000 [Eh]
	 Same-Spin Energy          =      -0.3734131637805812 [Eh]
	 Opposite-Spin Energy      =      -1.1395012432358906 [Eh]
	 Correlation Energy        =      -1.5129144070164720 [Eh]
	 Total Energy              =    -380.6626671937829656 [Eh]

	 ================> DF-SCS-MP2 Energies <==================
	-----------------------------------------------------------
	 SCS Same-Spin Scale       =       0.3333333333333333 [-]
	 SCS Opposite-Spin Scale   =       1.2000000000000000 [-]
	 SCS Same-Spin Energy      =      -0.1244710545935271 [Eh]
	 SCS Opposite-Spin Energy  =      -1.3674014918830688 [Eh]
	 SCS Correlation Energy    =      -1.4918725464765958 [Eh]
	 SCS Total Energy          =    -380.6416253332430983 [Eh]
	-----------------------------------------------------------

  Dipole Moment: [D]
     X:    -6.5170      Y:    -0.8479      Z:     0.0023     Total:     6.5719

*** Psi4 exiting successfully. Buy a developer a beer!
