                               Psi4 1.3.2 release

  ==> Input File <==

--------------------------------------------------------------------------
#psi4
#
memory 32 gb

molecule  {
-1 1
  O       -0.4223990     1.5478120    -0.0024970
  O        2.3181852     0.6517269     0.0026886
  O        1.4389110    -1.4330490    -0.0022200
  C       -1.1980010    -0.7166360     0.0011530
  C       -2.6041790    -0.1343280     0.0009050
  C       -0.1110720     0.3537600    -0.0005690
  C        1.3671270    -0.1674410     0.0000880
  H       -1.0203320    -1.3658690    -0.8629620
  H       -1.0198480    -1.3637170     0.8668160
  H       -2.7610710     0.4967440    -0.8780030
  H       -3.3633830    -0.9249560     0.0021580
  H       -2.7605070     0.4989750     0.8783160
units angstrom
no_reorient  #important for SAPT in psi4, default
symmetry c1  #important for SAPT in psi4, default
}

set PROPERTIES_ORIGIN ["COM"]
properties('MP2/aug-cc-pvtz', properties = ['dipole'])
--------------------------------------------------------------------------

    Molecular point group: c1
  Charge       = -1
  Multiplicity = 1
  Basis Set: AUG-CC-PVTZ
    Blend: AUG-CC-PVTZ
  Basis Set: (AUG-CC-PVTZ AUX)
    Blend: AUG-CC-PVTZ-JKFIT

    Orbital Energies [Eh]
    ---------------------

    Doubly Occupied:

       1A    -20.402845     2A    -20.317614     3A    -20.315631
       4A    -11.177913     5A    -11.162873     6A    -11.099962
       7A    -11.096815     8A     -1.228884     9A     -1.182732
      10A     -1.086289    11A     -0.916222    12A     -0.773799
      13A     -0.659381    14A     -0.547334    15A     -0.493726
      16A     -0.492440    17A     -0.471109    18A     -0.421286
      19A     -0.402222    20A     -0.397245    21A     -0.383443
      22A     -0.360833    23A     -0.334236    24A     -0.313733
      25A     -0.230983    26A     -0.212904    27A     -0.209370

  @DF-RHF Final Energy:  -379.15140352456001

   => Energetics <=

    Nuclear Repulsion Energy =            284.3446233601219433
    One-Electron Energy =               -1093.6084065860381997
    Two-Electron Energy =                 430.1123797013563035
    Total Energy =                       -379.1514035245600098
  Basis Set: (AUG-CC-PVTZ AUX)
    Blend: AUG-CC-PVTZ-RI
    Molecular point group: c1

    Geometry (in Angstrom), charge = -1, multiplicity = 1:

       Center              X                  Y                   Z               Mass
    ------------   -----------------  -----------------  -----------------  -----------------
         O           -0.538946371724     1.531928900816    -0.002426268285    15.994914619570
         O            2.201637828276     0.635843800816     0.002759331715    15.994914619570
         O            1.322363628276    -1.448932099184    -0.002149268285    15.994914619570
         C           -1.314548371724    -0.732519099184     0.001223731715    12.000000000000
         C           -2.720726371724    -0.150211099184     0.000975731715    12.000000000000
         C           -0.227619371724     0.337876900816    -0.000498268285    12.000000000000
         C            1.250579628276    -0.183324099184     0.000158731715    12.000000000000
         H           -1.136879371724    -1.381752099184    -0.862891268285     1.007825032230
         H           -1.136395371724    -1.379600099184     0.866886731715     1.007825032230
         H           -2.877618371724     0.480860900816    -0.877932268285     1.007825032230
         H           -3.479930371724    -0.940839099184     0.002228731715     1.007825032230
         H           -2.877054371724     0.483091900816     0.878386731715     1.007825032230

  Basis Set: AUG-CC-PVTZ
    Blend: AUG-CC-PVTZ
  Basis Set: (AUG-CC-PVTZ AUX)
    Blend: AUG-CC-PVTZ-JKFIT
	 Reference Energy          =    -379.1514035245600098 [Eh]
	 Singles Energy            =      -0.0000000000000000 [Eh]
	 Same-Spin Energy          =      -0.3735448722014996 [Eh]
	 Opposite-Spin Energy      =      -1.1395058402047615 [Eh]
	 Correlation Energy        =      -1.5130507124062611 [Eh]
	 Total Energy              =    -380.6644542369662645 [Eh]

	 ================> DF-SCS-MP2 Energies <==================
	-----------------------------------------------------------
	 SCS Same-Spin Scale       =       0.3333333333333333 [-]
	 SCS Opposite-Spin Scale   =       1.2000000000000000 [-]
	 SCS Same-Spin Energy      =      -0.1245149574004999 [Eh]
	 SCS Opposite-Spin Energy  =      -1.3674070082457137 [Eh]
	 SCS Correlation Energy    =      -1.4919219656462135 [Eh]
	 SCS Total Energy          =    -380.6433254902062231 [Eh]
	-----------------------------------------------------------

  Dipole Moment: [D]
     X:    -6.7748      Y:    -0.7318      Z:     0.0024     Total:     6.8142

*** Psi4 exiting successfully. Buy a developer a beer!
