                               Psi4 1.3.2 release

  ==> Input File <==

--------------------------------------------------------------------------
#psi4
#
memory 32 gb

molecule  {
-1 1
  O       -0.4223990     1.5478120    -0.0024970
  O        2.2587260     0.7160740     0.0027440
  O        1.5708100    -1.4186127    -0.0020464
  C       -1.1980010    -0.7166360     0.0011530
  C       -2.6041790    -0.1343280     0.0009050
  C       -0.1110720     0.3537600    -0.0005690
  C        1.3671270    -0.1674410     0.0000880
  H       -1.0203320    -1.3658690    -0.8629620
  H       -1.0198480    -1.3637170     0.8668160
  H       -2.7610710     0.4967440    -0.8780030
  H       -3.3633830    -0.9249560     0.0021580
  H       -2.7605070     0.4989750     0.8783160
units angstrom
no_reorient  #important for SAPT in psi4, default
symmetry c1  #important for SAPT in psi4, default
}

set PROPERTIES_ORIGIN ["COM"]
properties('MP2/aug-cc-pvtz', properties = ['dipole'])
--------------------------------------------------------------------------

    Molecular point group: c1
  Charge       = -1
  Multiplicity = 1
  Basis Set: AUG-CC-PVTZ
    Blend: AUG-CC-PVTZ
  Basis Set: (AUG-CC-PVTZ AUX)
    Blend: AUG-CC-PVTZ-JKFIT

    Orbital Energies [Eh]
    ---------------------

    Doubly Occupied:

       1A    -20.404631     2A    -20.317417     3A    -20.310636
       4A    -11.180751     5A    -11.161168     6A    -11.102171
       7A    -11.099724     8A     -1.230193     9A     -1.181499
      10A     -1.080967    11A     -0.919266    12A     -0.777196
      13A     -0.660475    14A     -0.549124    15A     -0.496142
      16A     -0.493299    17A     -0.469356    18A     -0.421505
      19A     -0.402523    20A     -0.396080    21A     -0.386807
      22A     -0.362644    23A     -0.334537    24A     -0.314179
      25A     -0.226069    26A     -0.214300    27A     -0.205755

  @DF-RHF Final Energy:  -379.14949570845488

   => Energetics <=

    Nuclear Repulsion Energy =            283.8642199111417312
    One-Electron Energy =               -1092.6305994932565682
    Two-Electron Energy =                 429.6168838736599582
    Total Energy =                       -379.1494957084548787
  Basis Set: (AUG-CC-PVTZ AUX)
    Blend: AUG-CC-PVTZ-RI
    Molecular point group: c1

    Geometry (in Angstrom), charge = -1, multiplicity = 1:

       Center              X                  Y                   Z               Mass
    ------------   -----------------  -----------------  -----------------  -----------------
         O           -0.550415625746     1.519455276823    -0.002462525414    15.994914619570
         O            2.130709374254     0.687717276823     0.002778474586    15.994914619570
         O            1.442793374254    -1.446969423177    -0.002011925414    15.994914619570
         C           -1.326017625746    -0.744992723177     0.001187474586    12.000000000000
         C           -2.732195625746    -0.162684723177     0.000939474586    12.000000000000
         C           -0.239088625746     0.325403276823    -0.000534525414    12.000000000000
         C            1.239110374254    -0.195797723177     0.000122474586    12.000000000000
         H           -1.148348625746    -1.394225723177    -0.862927525414     1.007825032230
         H           -1.147864625746    -1.392073723177     0.866850474586     1.007825032230
         H           -2.889087625746     0.468387276823    -0.877968525414     1.007825032230
         H           -3.491399625746    -0.953312723177     0.002192474586     1.007825032230
         H           -2.888523625746     0.470618276823     0.878350474586     1.007825032230

  Basis Set: AUG-CC-PVTZ
    Blend: AUG-CC-PVTZ
  Basis Set: (AUG-CC-PVTZ AUX)
    Blend: AUG-CC-PVTZ-JKFIT
	 Reference Energy          =    -379.1494957084548787 [Eh]
	 Singles Energy            =      -0.0000000000000000 [Eh]
	 Same-Spin Energy          =      -0.3735093571440354 [Eh]
	 Opposite-Spin Energy      =      -1.1394886196936342 [Eh]
	 Correlation Energy        =      -1.5129979768376698 [Eh]
	 Total Energy              =    -380.6624936852925316 [Eh]

	 ================> DF-SCS-MP2 Energies <==================
	-----------------------------------------------------------
	 SCS Same-Spin Scale       =       0.3333333333333333 [-]
	 SCS Opposite-Spin Scale   =       1.2000000000000000 [-]
	 SCS Same-Spin Energy      =      -0.1245031190480118 [Eh]
	 SCS Opposite-Spin Energy  =      -1.3673863436323610 [Eh]
	 SCS Correlation Energy    =      -1.4918894626803727 [Eh]
	 SCS Total Energy          =    -380.6413851711352550 [Eh]
	-----------------------------------------------------------

  Dipole Moment: [D]
     X:    -6.9828      Y:    -0.7811      Z:     0.0020     Total:     7.0263

*** Psi4 exiting successfully. Buy a developer a beer!
