                               Psi4 1.3.2 release

  ==> Input File <==

--------------------------------------------------------------------------
#psi4
#
memory 32 gb

molecule  {
-1 1
  O       -0.4223990     1.5478120    -0.0024970
  O        2.2587260     0.7160740     0.0027440
  O        1.4389110    -1.4330490    -0.0022200
  C       -1.1980010    -0.7166360     0.0011530
  C       -2.6041790    -0.1343280     0.0009050
  C       -0.1110720     0.3537600    -0.0005690
  C        1.1785083    -0.1009356     0.0000042
  H       -1.0203320    -1.3658690    -0.8629620
  H       -1.0198480    -1.3637170     0.8668160
  H       -2.7610710     0.4967440    -0.8780030
  H       -3.3633830    -0.9249560     0.0021580
  H       -2.7605070     0.4989750     0.8783160
units angstrom
no_reorient  #important for SAPT in psi4, default
symmetry c1  #important for SAPT in psi4, default
}

set PROPERTIES_ORIGIN ["COM"]
properties('MP2/aug-cc-pvtz', properties = ['dipole'])
--------------------------------------------------------------------------

    Molecular point group: c1
  Charge       = -1
  Multiplicity = 1
  Basis Set: AUG-CC-PVTZ
    Blend: AUG-CC-PVTZ
  Basis Set: (AUG-CC-PVTZ AUX)
    Blend: AUG-CC-PVTZ-JKFIT

    Orbital Energies [Eh]
    ---------------------

    Doubly Occupied:

       1A    -20.417688     2A    -20.325403     3A    -20.319244
       4A    -11.183985     5A    -11.169331     6A    -11.104594
       7A    -11.102955     8A     -1.245312     9A     -1.137748
      10A     -1.035818    11A     -0.925192    12A     -0.818324
      13A     -0.710442    14A     -0.560038    15A     -0.504233
      16A     -0.501755    17A     -0.458620    18A     -0.423805
      19A     -0.410289    20A     -0.390346    21A     -0.364508
      22A     -0.358619    23A     -0.310943    24A     -0.307421
      25A     -0.245050    26A     -0.213398    27A     -0.188594

  @DF-RHF Final Energy:  -379.08801377282839

   => Energetics <=

    Nuclear Repulsion Energy =            285.4908784549131724
    One-Electron Energy =               -1095.6904734170072970
    Two-Electron Energy =                 431.1115811892657348
    Total Energy =                       -379.0880137728283898
  Basis Set: (AUG-CC-PVTZ AUX)
    Blend: AUG-CC-PVTZ-RI
    Molecular point group: c1

    Geometry (in Angstrom), charge = -1, multiplicity = 1:

       Center              X                  Y                   Z               Mass
    ------------   -----------------  -----------------  -----------------  -----------------
         O           -0.507127463396     1.513841183643    -0.002425085577    15.994914619570
         O            2.173997536604     0.682103183643     0.002815914423    15.994914619570
         O            1.354182536604    -1.467019816357    -0.002148085577    15.994914619570
         C           -1.282729463396    -0.750606816357     0.001224914423    12.000000000000
         C           -2.688907463396    -0.168298816357     0.000976914423    12.000000000000
         C           -0.195800463396     0.319789183643    -0.000497085577    12.000000000000
         C            1.093779836604    -0.134906416357     0.000076114423    12.000000000000
         H           -1.105060463396    -1.399839816357    -0.862890085577     1.007825032230
         H           -1.104576463396    -1.397687816357     0.866887914423     1.007825032230
         H           -2.845799463396     0.462773183643    -0.877931085577     1.007825032230
         H           -3.448111463396    -0.958926816357     0.002229914423     1.007825032230
         H           -2.845235463396     0.465004183643     0.878387914423     1.007825032230

  Basis Set: AUG-CC-PVTZ
    Blend: AUG-CC-PVTZ
  Basis Set: (AUG-CC-PVTZ AUX)
    Blend: AUG-CC-PVTZ-JKFIT
	 Reference Energy          =    -379.0880137728283898 [Eh]
	 Singles Energy            =      -0.0000000000000000 [Eh]
	 Same-Spin Energy          =      -0.3804645077551250 [Eh]
	 Opposite-Spin Energy      =      -1.1554612906189621 [Eh]
	 Correlation Energy        =      -1.5359257983740870 [Eh]
	 Total Energy              =    -380.6239395712024702 [Eh]

	 ================> DF-SCS-MP2 Energies <==================
	-----------------------------------------------------------
	 SCS Same-Spin Scale       =       0.3333333333333333 [-]
	 SCS Opposite-Spin Scale   =       1.2000000000000000 [-]
	 SCS Same-Spin Energy      =      -0.1268215025850417 [Eh]
	 SCS Opposite-Spin Energy  =      -1.3865535487427545 [Eh]
	 SCS Correlation Energy    =      -1.5133750513277962 [Eh]
	 SCS Total Energy          =    -380.6013888241561745 [Eh]
	-----------------------------------------------------------

  Dipole Moment: [D]
     X:    -7.1366      Y:    -0.7112      Z:     0.0021     Total:     7.1720

*** Psi4 exiting successfully. Buy a developer a beer!
