                               Psi4 1.4a3.dev225

  ==> Input File <==

--------------------------------------------------------------------------
#psi4
#
memory 32 gb

molecule  {
-1 1
  O       -0.3985850     1.5131790    -0.2845690
  O        2.2066640     0.7149310     0.3161120
  O        1.5078530    -1.3885780    -0.2413420
  C       -1.2053190    -0.7120700     0.1148020
  C       -2.6123310    -0.1342710     0.1051660
  C       -0.1184950     0.3104386    -0.0647856
  C        1.3495430    -0.1585420     0.0132420
  H       -1.0703250    -1.4639250    -0.6703970
  H       -0.9966990    -1.2446330     1.0513490
  H       -2.8226470     0.3633290    -0.8444420
  H       -3.3547600    -0.9237900     0.2511250
  H       -2.7366210     0.6043540     0.9012280
units angstrom
no_reorient  #important for SAPT in psi4, default
symmetry c1  #important for SAPT in psi4, default
}

set PROPERTIES_ORIGIN ["COM"]
properties('MP2/aug-cc-pvtz', properties = ['dipole'])
--------------------------------------------------------------------------

    Molecular point group: c1
  Charge       = -1
  Multiplicity = 1
  Basis Set: AUG-CC-PVTZ
    Blend: AUG-CC-PVTZ
  Basis Set: (AUG-CC-PVTZ AUX)
    Blend: AUG-CC-PVTZ-JKFIT

    Orbital Energies [Eh]
    ---------------------

    Doubly Occupied:

       1A    -20.397492     2A    -20.320591     3A    -20.314722
       4A    -11.175752     5A    -11.161894     6A    -11.102634
       7A    -11.100931     8A     -1.216266     9A     -1.177755
      10A     -1.087566    11A     -0.922847    12A     -0.781229
      13A     -0.663959    14A     -0.547512    15A     -0.498415
      16A     -0.487697    17A     -0.468403    18A     -0.423314
      19A     -0.406964    20A     -0.394868    21A     -0.384392
      22A     -0.363815    23A     -0.324809    24A     -0.310157
      25A     -0.232975    26A     -0.215784    27A     -0.208286

  @DF-RHF Final Energy:  -379.14921336920270

   => Energetics <=

    Nuclear Repulsion Energy =            284.7620854373686825
    One-Electron Energy =               -1094.4405398385051740
    Two-Electron Energy =                 430.5292410319337932
    Total Energy =                       -379.1492133692026982
  Basis Set: (AUG-CC-PVTZ AUX)
    Blend: AUG-CC-PVTZ-RI
    Molecular point group: c1

    Geometry (in Angstrom), charge = -1, multiplicity = 1:

       Center              X                  Y                   Z               Mass
    ------------   -----------------  -----------------  -----------------  -----------------
         O           -0.506795527319     1.489329252467    -0.278230191921    15.994914619570
         O            2.098453472681     0.691081252467     0.322450808079    15.994914619570
         O            1.399642472681    -1.412427747533    -0.235003191921    15.994914619570
         C           -1.313529527319    -0.735919747533     0.121140808079    12.000000000000
         C           -2.720541527319    -0.158120747533     0.111504808079    12.000000000000
         C           -0.226705527319     0.286588852467    -0.058446791921    12.000000000000
         C            1.241332472681    -0.182391747533     0.019580808079    12.000000000000
         H           -1.178535527319    -1.487774747533    -0.664058191921     1.007825032230
         H           -1.104909527319    -1.268482747533     1.057687808079     1.007825032230
         H           -2.930857527319     0.339479252467    -0.838103191921     1.007825032230
         H           -3.462970527319    -0.947639747533     0.257463808079     1.007825032230
         H           -2.844831527319     0.580504252467     0.907566808079     1.007825032230

  Basis Set: AUG-CC-PVTZ
    Blend: AUG-CC-PVTZ
  Basis Set: (AUG-CC-PVTZ AUX)
    Blend: AUG-CC-PVTZ-JKFIT
	 Reference Energy          =    -379.1492133692026982 [Eh]
	 Singles Energy            =      -0.0000000000000000 [Eh]
	 Same-Spin Energy          =      -0.3741315493170383 [Eh]
	 Opposite-Spin Energy      =      -1.1405056167458567 [Eh]
	 Correlation Energy        =      -1.5146371660628950 [Eh]
	 Total Energy              =    -380.6638505352655670 [Eh]

	 ================> DF-SCS-MP2 Energies <==================
	-----------------------------------------------------------
	 SCS Same-Spin Scale       =       0.3333333333333333 [-]
	 SCS Opposite-Spin Scale   =       1.2000000000000000 [-]
	 SCS Same-Spin Energy      =      -0.1247105164390128 [Eh]
	 SCS Opposite-Spin Energy  =      -1.3686067400950279 [Eh]
	 SCS Correlation Energy    =      -1.4933172565340407 [Eh]
	 SCS Total Energy          =    -380.6425306257367538 [Eh]
	-----------------------------------------------------------

  Dipole Moment: [D]
     X:    -6.8697      Y:    -1.0114      Z:     0.2577     Total:     6.9485

*** Psi4 exiting successfully. Buy a developer a beer!
