                               Psi4 1.4a3.dev225

  ==> Input File <==

--------------------------------------------------------------------------
#psi4
#
memory 32 gb

molecule  {
-1 1
  O       -0.3985850     1.5131790    -0.2845690
  O        2.2066640     0.7149310     0.3161120
  O        1.5078530    -1.3885780    -0.2413420
  C       -1.2053190    -0.7120700     0.1148020
  C       -2.6123310    -0.1342710     0.1051660
  C       -0.1274270     0.3487934    -0.0717944
  C        1.3495430    -0.1585420     0.0132420
  H       -1.0703250    -1.4639250    -0.6703970
  H       -0.9966990    -1.2446330     1.0513490
  H       -2.8226470     0.3633290    -0.8444420
  H       -3.3547600    -0.9237900     0.2511250
  H       -2.7366210     0.6043540     0.9012280
units angstrom
no_reorient  #important for SAPT in psi4, default
symmetry c1  #important for SAPT in psi4, default
}

set PROPERTIES_ORIGIN ["COM"]
properties('MP2/aug-cc-pvtz', properties = ['dipole'])
--------------------------------------------------------------------------

    Molecular point group: c1
  Charge       = -1
  Multiplicity = 1
  Basis Set: AUG-CC-PVTZ
    Blend: AUG-CC-PVTZ
  Basis Set: (AUG-CC-PVTZ AUX)
    Blend: AUG-CC-PVTZ-JKFIT

    Orbital Energies [Eh]
    ---------------------

    Doubly Occupied:

       1A    -20.400017     2A    -20.319331     3A    -20.313316
       4A    -11.171747     5A    -11.160227     6A    -11.101168
       7A    -11.098357     8A     -1.238577     9A     -1.179470
      10A     -1.085895    11A     -0.919071    12A     -0.774130
      13A     -0.657736    14A     -0.549277    15A     -0.496957
      16A     -0.494060    17A     -0.469953    18A     -0.422373
      19A     -0.407390    20A     -0.394686    21A     -0.386324
      22A     -0.362280    23A     -0.337456    24A     -0.313288
      25A     -0.231853    26A     -0.211522    27A     -0.203814

  @DF-RHF Final Energy:  -379.15430507010518

   => Energetics <=

    Nuclear Repulsion Energy =            284.8958854720465297
    One-Electron Energy =               -1094.6998269424057071
    Two-Electron Energy =                 430.6496364002539963
    Total Energy =                       -379.1543050701051811
  Basis Set: (AUG-CC-PVTZ AUX)
    Blend: AUG-CC-PVTZ-RI
    Molecular point group: c1

    Geometry (in Angstrom), charge = -1, multiplicity = 1:

       Center              X                  Y                   Z               Mass
    ------------   -----------------  -----------------  -----------------  -----------------
         O           -0.505734550334     1.484773323216    -0.277397659958    15.994914619570
         O            2.099514449666     0.686525323216     0.323283340042    15.994914619570
         O            1.400703449666    -1.416983676784    -0.234170659958    15.994914619570
         C           -1.312468550334    -0.740475676784     0.121973340042    12.000000000000
         C           -2.719480550334    -0.162676676784     0.112337340042    12.000000000000
         C           -0.234576550334     0.320387723216    -0.064623059958    12.000000000000
         C            1.242393449666    -0.186947676784     0.020413340042    12.000000000000
         H           -1.177474550334    -1.492330676784    -0.663225659958     1.007825032230
         H           -1.103848550334    -1.273038676784     1.058520340042     1.007825032230
         H           -2.929796550334     0.334923323216    -0.837270659958     1.007825032230
         H           -3.461909550334    -0.952195676784     0.258296340042     1.007825032230
         H           -2.843770550334     0.575948323216     0.908399340042     1.007825032230

  Basis Set: AUG-CC-PVTZ
    Blend: AUG-CC-PVTZ
  Basis Set: (AUG-CC-PVTZ AUX)
    Blend: AUG-CC-PVTZ-JKFIT
	 Reference Energy          =    -379.1543050701051811 [Eh]
	 Singles Energy            =      -0.0000000000000000 [Eh]
	 Same-Spin Energy          =      -0.3729445453900110 [Eh]
	 Opposite-Spin Energy      =      -1.1378817722636452 [Eh]
	 Correlation Energy        =      -1.5108263176536560 [Eh]
	 Total Energy              =    -380.6651313877588336 [Eh]

	 ================> DF-SCS-MP2 Energies <==================
	-----------------------------------------------------------
	 SCS Same-Spin Scale       =       0.3333333333333333 [-]
	 SCS Opposite-Spin Scale   =       1.2000000000000000 [-]
	 SCS Same-Spin Energy      =      -0.1243148484633370 [Eh]
	 SCS Opposite-Spin Energy  =      -1.3654581267163741 [Eh]
	 SCS Correlation Energy    =      -1.4897729751797111 [Eh]
	 SCS Total Energy          =    -380.6440780452849140 [Eh]
	-----------------------------------------------------------

  Dipole Moment: [D]
     X:    -6.8724      Y:    -0.8316      Z:     0.2118     Total:     6.9258

*** Psi4 exiting successfully. Buy a developer a beer!
