                               Psi4 1.4a3.dev225

  ==> Input File <==

--------------------------------------------------------------------------
#psi4
#
memory 32 gb

molecule  {
-1 1
  O       -0.3985850     1.5131790    -0.2845690
  O        2.2066640     0.7149310     0.3161120
  O        1.5078530    -1.3885780    -0.2413420
  C       -1.2053190    -0.7120700     0.1148020
  C       -2.6123310    -0.1342710     0.1051660
  C       -0.1229610     0.3296160    -0.0682900
  C        1.3969376    -0.1742540     0.0158662
  H       -1.0703250    -1.4639250    -0.6703970
  H       -0.9966990    -1.2446330     1.0513490
  H       -2.8226470     0.3633290    -0.8444420
  H       -3.3547600    -0.9237900     0.2511250
  H       -2.7366210     0.6043540     0.9012280
units angstrom
no_reorient  #important for SAPT in psi4, default
symmetry c1  #important for SAPT in psi4, default
}

set PROPERTIES_ORIGIN ["COM"]
properties('MP2/aug-cc-pvtz', properties = ['dipole'])
--------------------------------------------------------------------------

    Molecular point group: c1
  Charge       = -1
  Multiplicity = 1
  Basis Set: AUG-CC-PVTZ
    Blend: AUG-CC-PVTZ
  Basis Set: (AUG-CC-PVTZ AUX)
    Blend: AUG-CC-PVTZ-JKFIT

    Orbital Energies [Eh]
    ---------------------

    Doubly Occupied:

       1A    -20.393119     2A    -20.321341     3A    -20.315947
       4A    -11.166942     5A    -11.161058     6A    -11.099530
       7A    -11.096372     8A     -1.222505     9A     -1.189251
      10A     -1.103168    11A     -0.917532    12A     -0.770272
      13A     -0.645402    14A     -0.543411    15A     -0.494549
      16A     -0.489622    17A     -0.470113    18A     -0.426359
      19A     -0.407613    20A     -0.396671    21A     -0.383271
      22A     -0.367311    23A     -0.330677    24A     -0.313017
      25A     -0.239932    26A     -0.218157    27A     -0.196873

  @DF-RHF Final Energy:  -379.15474213815889

   => Energetics <=

    Nuclear Repulsion Energy =            284.6911528990922875
    One-Electron Energy =               -1094.3317634583047493
    Two-Electron Energy =                 430.4858684210536239
    Total Energy =                       -379.1547421381588947
  Basis Set: (AUG-CC-PVTZ AUX)
    Blend: AUG-CC-PVTZ-RI
    Molecular point group: c1

    Geometry (in Angstrom), charge = -1, multiplicity = 1:

       Center              X                  Y                   Z               Mass
    ------------   -----------------  -----------------  -----------------  -----------------
         O           -0.511894749959     1.488917619054    -0.278125638412    15.994914619570
         O            2.093354250041     0.690669619054     0.322555361588    15.994914619570
         O            1.394543250041    -1.412839380946    -0.234898638412    15.994914619570
         C           -1.318628749959    -0.736331380946     0.121245361588    12.000000000000
         C           -2.725640749959    -0.158532380946     0.111609361588    12.000000000000
         C           -0.236270749959     0.305354619054    -0.061846638412    12.000000000000
         C            1.283627850041    -0.198515380946     0.022309561588    12.000000000000
         H           -1.183634749959    -1.488186380946    -0.663953638412     1.007825032230
         H           -1.110008749959    -1.268894380946     1.057792361588     1.007825032230
         H           -2.935956749959     0.339067619054    -0.837998638412     1.007825032230
         H           -3.468069749959    -0.948051380946     0.257568361588     1.007825032230
         H           -2.849930749959     0.580092619054     0.907671361588     1.007825032230

  Basis Set: AUG-CC-PVTZ
    Blend: AUG-CC-PVTZ
  Basis Set: (AUG-CC-PVTZ AUX)
    Blend: AUG-CC-PVTZ-JKFIT
	 Reference Energy          =    -379.1547421381588947 [Eh]
	 Singles Energy            =      -0.0000000000000000 [Eh]
	 Same-Spin Energy          =      -0.3726519402784668 [Eh]
	 Opposite-Spin Energy      =      -1.1369223994486641 [Eh]
	 Correlation Energy        =      -1.5095743397271308 [Eh]
	 Total Energy              =    -380.6643164778860182 [Eh]

	 ================> DF-SCS-MP2 Energies <==================
	-----------------------------------------------------------
	 SCS Same-Spin Scale       =       0.3333333333333333 [-]
	 SCS Opposite-Spin Scale   =       1.2000000000000000 [-]
	 SCS Same-Spin Energy      =      -0.1242173134261556 [Eh]
	 SCS Opposite-Spin Energy  =      -1.3643068793383970 [Eh]
	 SCS Correlation Energy    =      -1.4885241927645525 [Eh]
	 SCS Total Energy          =    -380.6432663309234385 [Eh]
	-----------------------------------------------------------

  Dipole Moment: [D]
     X:    -6.5919      Y:    -0.9918      Z:     0.2487     Total:     6.6708

*** Psi4 exiting successfully. Buy a developer a beer!
