                               Psi4 1.3.2 release

  ==> Input File <==

--------------------------------------------------------------------------
#psi4
#
memory 32 gb

molecule  {
-1 1
  O       -0.4223990     1.5478120    -0.0024970
  O        2.2587260     0.7160740     0.0027440
  O        1.3062256    -1.4336191    -0.0023683
  C       -1.1980010    -0.7166360     0.0011530
  C       -2.6041790    -0.1343280     0.0009050
  C       -0.1110720     0.3537600    -0.0005690
  C        1.3671270    -0.1674410     0.0000880
  H       -1.0203320    -1.3658690    -0.8629620
  H       -1.0198480    -1.3637170     0.8668160
  H       -2.7610710     0.4967440    -0.8780030
  H       -3.3633830    -0.9249560     0.0021580
  H       -2.7605070     0.4989750     0.8783160
units angstrom
no_reorient  #important for SAPT in psi4, default
symmetry c1  #important for SAPT in psi4, default
}

set PROPERTIES_ORIGIN ["COM"]
properties('MP2/aug-cc-pvtz', properties = ['dipole'])
--------------------------------------------------------------------------

    Molecular point group: c1
  Charge       = -1
  Multiplicity = 1
  Basis Set: AUG-CC-PVTZ
    Blend: AUG-CC-PVTZ
  Basis Set: (AUG-CC-PVTZ AUX)
    Blend: AUG-CC-PVTZ-JKFIT

    Orbital Energies [Eh]
    ---------------------

    Doubly Occupied:

       1A    -20.392957     2A    -20.326236     3A    -20.325478
       4A    -11.168269     5A    -11.164207     6A    -11.094038
       7A    -11.088905     8A     -1.221992     9A     -1.182931
      10A     -1.104339    11A     -0.908843    12A     -0.765289
      13A     -0.653063    14A     -0.540274    15A     -0.490607
      16A     -0.487598    17A     -0.471182    18A     -0.425956
      19A     -0.401625    20A     -0.396899    21A     -0.376234
      22A     -0.358235    23A     -0.328493    24A     -0.307206
      25A     -0.246561    26A     -0.221019    27A     -0.202538

  @DF-RHF Final Energy:  -379.14745468011711

   => Energetics <=

    Nuclear Repulsion Energy =            285.9124800962826498
    One-Electron Energy =               -1096.8179201592897698
    Two-Electron Energy =                 431.7579853828899559
    Total Energy =                       -379.1474546801171073
  Basis Set: (AUG-CC-PVTZ AUX)
    Blend: AUG-CC-PVTZ-RI
    Molecular point group: c1

    Geometry (in Angstrom), charge = -1, multiplicity = 1:

       Center              X                  Y                   Z               Mass
    ------------   -----------------  -----------------  -----------------  -----------------
         O           -0.508524487258     1.521831211234    -0.002411559607    15.994914619570
         O            2.172600512742     0.690093211234     0.002829440393    15.994914619570
         O            1.220100112742    -1.459599888766    -0.002282859607    15.994914619570
         C           -1.284126487258    -0.742616788766     0.001238440393    12.000000000000
         C           -2.690304487258    -0.160308788766     0.000990440393    12.000000000000
         C           -0.197197487258     0.327779211234    -0.000483559607    12.000000000000
         C            1.281001512742    -0.193421788766     0.000173440393    12.000000000000
         H           -1.106457487258    -1.391849788766    -0.862876559607     1.007825032230
         H           -1.105973487258    -1.389697788766     0.866901440393     1.007825032230
         H           -2.847196487258     0.470763211234    -0.877917559607     1.007825032230
         H           -3.449508487258    -0.950936788766     0.002243440393     1.007825032230
         H           -2.846632487258     0.472994211234     0.878401440393     1.007825032230

  Basis Set: AUG-CC-PVTZ
    Blend: AUG-CC-PVTZ
  Basis Set: (AUG-CC-PVTZ AUX)
    Blend: AUG-CC-PVTZ-JKFIT
	 Reference Energy          =    -379.1474546801171073 [Eh]
	 Singles Energy            =      -0.0000000000000000 [Eh]
	 Same-Spin Energy          =      -0.3741840190273968 [Eh]
	 Opposite-Spin Energy      =      -1.1402340011883219 [Eh]
	 Correlation Energy        =      -1.5144180202157187 [Eh]
	 Total Energy              =    -380.6618727003328218 [Eh]

	 ================> DF-SCS-MP2 Energies <==================
	-----------------------------------------------------------
	 SCS Same-Spin Scale       =       0.3333333333333333 [-]
	 SCS Opposite-Spin Scale   =       1.2000000000000000 [-]
	 SCS Same-Spin Energy      =      -0.1247280063424656 [Eh]
	 SCS Opposite-Spin Energy  =      -1.3682808014259862 [Eh]
	 SCS Correlation Energy    =      -1.4930088077684518 [Eh]
	 SCS Total Energy          =    -380.6404634878855404 [Eh]
	-----------------------------------------------------------

  Dipole Moment: [D]
     X:    -6.1458      Y:    -0.9000      Z:     0.0026     Total:     6.2114

*** Psi4 exiting successfully. Buy a developer a beer!
