                               Psi4 1.3.2 release

  ==> Input File <==

--------------------------------------------------------------------------
#psi4
#
memory 32 gb

molecule  {
-1 1
  O       -0.4223990     1.5478120    -0.0024970
  O        2.2587260     0.7160740     0.0027440
  O        1.4389110    -1.4330490    -0.0022200
  C       -1.1980010    -0.7166360     0.0011530
  C       -2.6041790    -0.1343280     0.0009050
  C       -0.2535729     0.2134267    -0.0003432
  C        1.3671270    -0.1674410     0.0000880
  H       -1.0203320    -1.3658690    -0.8629620
  H       -1.0198480    -1.3637170     0.8668160
  H       -2.7610710     0.4967440    -0.8780030
  H       -3.3633830    -0.9249560     0.0021580
  H       -2.7605070     0.4989750     0.8783160
units angstrom
no_reorient  #important for SAPT in psi4, default
symmetry c1  #important for SAPT in psi4, default
}

set PROPERTIES_ORIGIN ["COM"]
properties('MP2/aug-cc-pvtz', properties = ['dipole'])
--------------------------------------------------------------------------

    Molecular point group: c1
  Charge       = -1
  Multiplicity = 1
  Basis Set: AUG-CC-PVTZ
    Blend: AUG-CC-PVTZ
  Basis Set: (AUG-CC-PVTZ AUX)
    Blend: AUG-CC-PVTZ-JKFIT

    Orbital Energies [Eh]
    ---------------------

    Doubly Occupied:

       1A    -20.384434     2A    -20.319845     3A    -20.318796
       4A    -11.173863     5A    -11.171203     6A    -11.106451
       7A    -11.098068     8A     -1.189123     9A     -1.146028
      10A     -1.091669    11A     -0.959885    12A     -0.802268
      13A     -0.630127    14A     -0.561305    15A     -0.514035
      16A     -0.481736    17A     -0.458757    18A     -0.419532
      19A     -0.408536    20A     -0.401990    21A     -0.377554
      22A     -0.366083    23A     -0.305280    24A     -0.289650
      25A     -0.234588    26A     -0.213692    27A     -0.200526

  @DF-RHF Final Energy:  -379.09023136899498

   => Energetics <=

    Nuclear Repulsion Energy =            284.5196653187839502
    One-Electron Energy =               -1093.9697424118537583
    Two-Electron Energy =                 430.3598457240748303
    Total Energy =                       -379.0902313689949779
  Basis Set: (AUG-CC-PVTZ AUX)
    Blend: AUG-CC-PVTZ-RI
    Molecular point group: c1

    Geometry (in Angstrom), charge = -1, multiplicity = 1:

       Center              X                  Y                   Z               Mass
    ------------   -----------------  -----------------  -----------------  -----------------
         O           -0.512605511360     1.538410272356    -0.002461861045    15.994914619570
         O            2.168519488640     0.706672272356     0.002779138955    15.994914619570
         O            1.348704488640    -1.442450727644    -0.002184861045    15.994914619570
         C           -1.288207511360    -0.726037727644     0.001188138955    12.000000000000
         C           -2.694385511360    -0.143729727644     0.000940138955    12.000000000000
         C           -0.343779411360     0.204024972356    -0.000308061045    12.000000000000
         C            1.276920488640    -0.176842727644     0.000123138955    12.000000000000
         H           -1.110538511360    -1.375270727644    -0.862926861045     1.007825032230
         H           -1.110054511360    -1.373118727644     0.866851138955     1.007825032230
         H           -2.851277511360     0.487342272356    -0.877967861045     1.007825032230
         H           -3.453589511360    -0.934357727644     0.002193138955     1.007825032230
         H           -2.850713511360     0.489573272356     0.878351138955     1.007825032230

  Basis Set: AUG-CC-PVTZ
    Blend: AUG-CC-PVTZ
  Basis Set: (AUG-CC-PVTZ AUX)
    Blend: AUG-CC-PVTZ-JKFIT
	 Reference Energy          =    -379.0902313689949779 [Eh]
	 Singles Energy            =      -0.0000000000000000 [Eh]
	 Same-Spin Energy          =      -0.3792143257873374 [Eh]
	 Opposite-Spin Energy      =      -1.1491159716478316 [Eh]
	 Correlation Energy        =      -1.5283302974351691 [Eh]
	 Total Energy              =    -380.6185616664301392 [Eh]

	 ================> DF-SCS-MP2 Energies <==================
	-----------------------------------------------------------
	 SCS Same-Spin Scale       =       0.3333333333333333 [-]
	 SCS Opposite-Spin Scale   =       1.2000000000000000 [-]
	 SCS Same-Spin Energy      =      -0.1264047752624458 [Eh]
	 SCS Opposite-Spin Energy  =      -1.3789391659773980 [Eh]
	 SCS Correlation Energy    =      -1.5053439412398437 [Eh]
	 SCS Total Energy          =    -380.5955753102348353 [Eh]
	-----------------------------------------------------------

  Dipole Moment: [D]
     X:    -7.0920      Y:    -1.5278      Z:     0.0041     Total:     7.2546

*** Psi4 exiting successfully. Buy a developer a beer!
