                               Psi4 1.3.2 release

  ==> Input File <==

--------------------------------------------------------------------------
#psi4
#
memory 32 gb

molecule  {
-1 1
  O       -0.4223990     1.5478120    -0.0024970
  O        2.2587260     0.7160740     0.0027440
  O        1.4389110    -1.4330490    -0.0022200
  C       -1.2700204    -0.6382083     0.0010405
  C       -2.6041790    -0.1343280     0.0009050
  C       -0.1110720     0.3537600    -0.0005690
  C        1.3671270    -0.1674410     0.0000880
  H       -1.0203320    -1.3658690    -0.8629620
  H       -1.0198480    -1.3637170     0.8668160
  H       -2.7610710     0.4967440    -0.8780030
  H       -3.3633830    -0.9249560     0.0021580
  H       -2.7605070     0.4989750     0.8783160
units angstrom
no_reorient  #important for SAPT in psi4, default
symmetry c1  #important for SAPT in psi4, default
}

set PROPERTIES_ORIGIN ["COM"]
properties('MP2/aug-cc-pvtz', properties = ['dipole'])
--------------------------------------------------------------------------

    Molecular point group: c1
  Charge       = -1
  Multiplicity = 1
  Basis Set: AUG-CC-PVTZ
    Blend: AUG-CC-PVTZ
  Basis Set: (AUG-CC-PVTZ AUX)
    Blend: AUG-CC-PVTZ-JKFIT

    Orbital Energies [Eh]
    ---------------------

    Doubly Occupied:

       1A    -20.395352     2A    -20.323074     3A    -20.320226
       4A    -11.172407     5A    -11.168120     6A    -11.099887
       7A    -11.095805     8A     -1.225693     9A     -1.183029
      10A     -1.094211    11A     -0.931482    12A     -0.769287
      13A     -0.652635    14A     -0.545242    15A     -0.493085
      16A     -0.490516    17A     -0.474012    18A     -0.435335
      19A     -0.413870    20A     -0.401174    21A     -0.377553
      22A     -0.348016    23A     -0.318951    24A     -0.306637
      25A     -0.238935    26A     -0.214595    27A     -0.210522

  @DF-RHF Final Energy:  -379.13799584540038

   => Energetics <=

    Nuclear Repulsion Energy =            285.1890812591347526
    One-Electron Energy =               -1095.2548456623892434
    Two-Electron Energy =                 430.9277685578540513
    Total Energy =                       -379.1379958454003827
  Basis Set: (AUG-CC-PVTZ AUX)
    Blend: AUG-CC-PVTZ-RI
    Molecular point group: c1

    Geometry (in Angstrom), charge = -1, multiplicity = 1:

       Center              X                  Y                   Z               Mass
    ------------   -----------------  -----------------  -----------------  -----------------
         O           -0.520977572420     1.512425007433    -0.002421676482    15.994914619570
         O            2.160147427580     0.680687007433     0.002819323518    15.994914619570
         O            1.340332427580    -1.468435992567    -0.002144676482    15.994914619570
         C           -1.368598972420    -0.673595292567     0.001115823518    12.000000000000
         C           -2.702757572420    -0.169714992567     0.000980323518    12.000000000000
         C           -0.209650572420     0.318373007433    -0.000493676482    12.000000000000
         C            1.268548427580    -0.202827992567     0.000163323518    12.000000000000
         H           -1.118910572420    -1.401255992567    -0.862886676482     1.007825032230
         H           -1.118426572420    -1.399103992567     0.866891323518     1.007825032230
         H           -2.859649572420     0.461357007433    -0.877927676482     1.007825032230
         H           -3.461961572420    -0.960342992567     0.002233323518     1.007825032230
         H           -2.859085572420     0.463588007433     0.878391323518     1.007825032230

  Basis Set: AUG-CC-PVTZ
    Blend: AUG-CC-PVTZ
  Basis Set: (AUG-CC-PVTZ AUX)
    Blend: AUG-CC-PVTZ-JKFIT
	 Reference Energy          =    -379.1379958454003827 [Eh]
	 Singles Energy            =      -0.0000000000000000 [Eh]
	 Same-Spin Energy          =      -0.3748200569108005 [Eh]
	 Opposite-Spin Energy      =      -1.1409439194879665 [Eh]
	 Correlation Energy        =      -1.5157639763987669 [Eh]
	 Total Energy              =    -380.6537598217991558 [Eh]

	 ================> DF-SCS-MP2 Energies <==================
	-----------------------------------------------------------
	 SCS Same-Spin Scale       =       0.3333333333333333 [-]
	 SCS Opposite-Spin Scale   =       1.2000000000000000 [-]
	 SCS Same-Spin Energy      =      -0.1249400189702668 [Eh]
	 SCS Opposite-Spin Energy  =      -1.3691327033855598 [Eh]
	 SCS Correlation Energy    =      -1.4940727223558266 [Eh]
	 SCS Total Energy          =    -380.6320685677562210 [Eh]
	-----------------------------------------------------------

  Dipole Moment: [D]
     X:    -6.6530      Y:    -0.7849      Z:     0.0023     Total:     6.6992

*** Psi4 exiting successfully. Buy a developer a beer!
