                               Psi4 1.3.2 release

  ==> Input File <==

--------------------------------------------------------------------------
#psi4
#
memory 32 gb

molecule  {
-1 1
  O       -0.4223990     1.5478120    -0.0024970
  O        2.1949230     0.7761167     0.0027865
  O        1.4389110    -1.4330490    -0.0022200
  C       -1.1980010    -0.7166360     0.0011530
  C       -2.6041790    -0.1343280     0.0009050
  C       -0.1110720     0.3537600    -0.0005690
  C        1.3671270    -0.1674410     0.0000880
  H       -1.0203320    -1.3658690    -0.8629620
  H       -1.0198480    -1.3637170     0.8668160
  H       -2.7610710     0.4967440    -0.8780030
  H       -3.3633830    -0.9249560     0.0021580
  H       -2.7605070     0.4989750     0.8783160
units angstrom
no_reorient  #important for SAPT in psi4, default
symmetry c1  #important for SAPT in psi4, default
}

set PROPERTIES_ORIGIN ["COM"]
properties('MP2/aug-cc-pvtz', properties = ['dipole'])
--------------------------------------------------------------------------

    Molecular point group: c1
  Charge       = -1
  Multiplicity = 1
  Basis Set: AUG-CC-PVTZ
    Blend: AUG-CC-PVTZ
  Basis Set: (AUG-CC-PVTZ AUX)
    Blend: AUG-CC-PVTZ-JKFIT

    Orbital Energies [Eh]
    ---------------------

    Doubly Occupied:

       1A    -20.394900     2A    -20.326558     3A    -20.320489
       4A    -11.167320     5A    -11.166383     6A    -11.096493
       7A    -11.091873     8A     -1.223299     9A     -1.181286
      10A     -1.099279    11A     -0.912038    12A     -0.768989
      13A     -0.653797    14A     -0.542224    15A     -0.490922
      16A     -0.489944    17A     -0.469577    18A     -0.424909
      19A     -0.401328    20A     -0.397448    21A     -0.379831
      22A     -0.360368    23A     -0.329252    24A     -0.308431
      25A     -0.242505    26A     -0.217641    27A     -0.204442

  @DF-RHF Final Energy:  -379.14987291261912

   => Energetics <=

    Nuclear Repulsion Energy =            285.2954504673722340
    One-Electron Energy =               -1095.5675970888539723
    Two-Electron Energy =                 431.1222737088626218
    Total Energy =                       -379.1498729126191165
  Basis Set: (AUG-CC-PVTZ AUX)
    Blend: AUG-CC-PVTZ-RI
    Molecular point group: c1

    Geometry (in Angstrom), charge = -1, multiplicity = 1:

       Center              X                  Y                   Z               Mass
    ------------   -----------------  -----------------  -----------------  -----------------
         O           -0.519430504989     1.512234503345    -0.002441768604    15.994914619570
         O            2.097891495011     0.740539203345     0.002841731396    15.994914619570
         O            1.341879495011    -1.468626496655    -0.002164768604    15.994914619570
         C           -1.295032504989    -0.752213496655     0.001208231396    12.000000000000
         C           -2.701210504989    -0.169905496655     0.000960231396    12.000000000000
         C           -0.208103504989     0.318182503345    -0.000513768604    12.000000000000
         C            1.270095495011    -0.203018496655     0.000143231396    12.000000000000
         H           -1.117363504989    -1.401446496655    -0.862906768604     1.007825032230
         H           -1.116879504989    -1.399294496655     0.866871231396     1.007825032230
         H           -2.858102504989     0.461166503345    -0.877947768604     1.007825032230
         H           -3.460414504989    -0.960533496655     0.002213231396     1.007825032230
         H           -2.857538504989     0.463397503345     0.878371231396     1.007825032230

  Basis Set: AUG-CC-PVTZ
    Blend: AUG-CC-PVTZ
  Basis Set: (AUG-CC-PVTZ AUX)
    Blend: AUG-CC-PVTZ-JKFIT
	 Reference Energy          =    -379.1498729126191165 [Eh]
	 Singles Energy            =      -0.0000000000000000 [Eh]
	 Same-Spin Energy          =      -0.3739222189796045 [Eh]
	 Opposite-Spin Energy      =      -1.1398210797933541 [Eh]
	 Correlation Energy        =      -1.5137432987729587 [Eh]
	 Total Energy              =    -380.6636162113920818 [Eh]

	 ================> DF-SCS-MP2 Energies <==================
	-----------------------------------------------------------
	 SCS Same-Spin Scale       =       0.3333333333333333 [-]
	 SCS Opposite-Spin Scale   =       1.2000000000000000 [-]
	 SCS Same-Spin Energy      =      -0.1246407396598682 [Eh]
	 SCS Opposite-Spin Energy  =      -1.3677852957520249 [Eh]
	 SCS Correlation Energy    =      -1.4924260354118930 [Eh]
	 SCS Total Energy          =    -380.6422989480309980 [Eh]
	-----------------------------------------------------------

  Dipole Moment: [D]
     X:    -6.3584      Y:    -0.9166      Z:     0.0023     Total:     6.4242

*** Psi4 exiting successfully. Buy a developer a beer!
