                               Psi4 1.4a3.dev225

  ==> Input File <==

--------------------------------------------------------------------------
#psi4
#
memory 32 gb

molecule  {
-1 1
  O       -0.3985850     1.5131790    -0.2845690
  O        2.2066640     0.7149310     0.3161120
  O        1.5078530    -1.3885780    -0.2413420
  C       -1.2053190    -0.7120700     0.1148020
  C       -2.6123310    -0.1342710     0.1051660
  C       -0.1341259     0.3775596    -0.0770510
  C        1.3495430    -0.1585420     0.0132420
  H       -1.0703250    -1.4639250    -0.6703970
  H       -0.9966990    -1.2446330     1.0513490
  H       -2.8226470     0.3633290    -0.8444420
  H       -3.3547600    -0.9237900     0.2511250
  H       -2.7366210     0.6043540     0.9012280
units angstrom
no_reorient  #important for SAPT in psi4, default
symmetry c1  #important for SAPT in psi4, default
}

set PROPERTIES_ORIGIN ["COM"]
properties('MP2/aug-cc-pvtz', properties = ['dipole'])
--------------------------------------------------------------------------

    Molecular point group: c1
  Charge       = -1
  Multiplicity = 1
  Basis Set: AUG-CC-PVTZ
    Blend: AUG-CC-PVTZ
  Basis Set: (AUG-CC-PVTZ AUX)
    Blend: AUG-CC-PVTZ-JKFIT

    Orbital Energies [Eh]
    ---------------------

    Doubly Occupied:

       1A    -20.401938     2A    -20.318412     3A    -20.312239
       4A    -11.168754     5A    -11.158838     6A    -11.100060
       7A    -11.096231     8A     -1.258379     9A     -1.179125
      10A     -1.084641    11A     -0.916246    12A     -0.768680
      13A     -0.653226    14A     -0.551449    15A     -0.500805
      16A     -0.495238    17A     -0.470372    18A     -0.421818
      19A     -0.409431    20A     -0.395694    21A     -0.386688
      22A     -0.361285    23A     -0.345616    24A     -0.315003
      25A     -0.230971    26A     -0.209871    27A     -0.198217

  @DF-RHF Final Energy:  -379.15447644159752

   => Energetics <=

    Nuclear Repulsion Energy =            285.0230953086335717
    One-Electron Energy =               -1094.9366890892504216
    Two-Electron Energy =                 430.7591173390192694
    Total Energy =                       -379.1544764415975237
  Basis Set: (AUG-CC-PVTZ AUX)
    Blend: AUG-CC-PVTZ-RI
    Molecular point group: c1

    Geometry (in Angstrom), charge = -1, multiplicity = 1:

       Center              X                  Y                   Z               Mass
    ------------   -----------------  -----------------  -----------------  -----------------
         O           -0.504938829473     1.481356364398    -0.276773260986    15.994914619570
         O            2.100310170527     0.683108364398     0.323907739014    15.994914619570
         O            1.401499170527    -1.420400635602    -0.233546260986    15.994914619570
         C           -1.311672829473    -0.743892635602     0.122597739014    12.000000000000
         C           -2.718684829473    -0.166093635602     0.112961739014    12.000000000000
         C           -0.240479729473     0.345736964398    -0.069255260986    12.000000000000
         C            1.243189170527    -0.190364635602     0.021037739014    12.000000000000
         H           -1.176678829473    -1.495747635602    -0.662601260986     1.007825032230
         H           -1.103052829473    -1.276455635602     1.059144739014     1.007825032230
         H           -2.929000829473     0.331506364398    -0.836646260986     1.007825032230
         H           -3.461113829473    -0.955612635602     0.258920739014     1.007825032230
         H           -2.842974829473     0.572531364398     0.909023739014     1.007825032230

  Basis Set: AUG-CC-PVTZ
    Blend: AUG-CC-PVTZ
  Basis Set: (AUG-CC-PVTZ AUX)
    Blend: AUG-CC-PVTZ-JKFIT
	 Reference Energy          =    -379.1544764415975237 [Eh]
	 Singles Energy            =      -0.0000000000000000 [Eh]
	 Same-Spin Energy          =      -0.3721728122596366 [Eh]
	 Opposite-Spin Energy      =      -1.1361272128898210 [Eh]
	 Correlation Energy        =      -1.5083000251494576 [Eh]
	 Total Energy              =    -380.6627764667470046 [Eh]

	 ================> DF-SCS-MP2 Energies <==================
	-----------------------------------------------------------
	 SCS Same-Spin Scale       =       0.3333333333333333 [-]
	 SCS Opposite-Spin Scale   =       1.2000000000000000 [-]
	 SCS Same-Spin Energy      =      -0.1240576040865455 [Eh]
	 SCS Opposite-Spin Energy  =      -1.3633526554677851 [Eh]
	 SCS Correlation Energy    =      -1.4874102595543306 [Eh]
	 SCS Total Energy          =    -380.6418867011518614 [Eh]
	-----------------------------------------------------------

  Dipole Moment: [D]
     X:    -6.8733      Y:    -0.6833      Z:     0.1745     Total:     6.9094

*** Psi4 exiting successfully. Buy a developer a beer!
