                               Psi4 1.3.2 release

  ==> Input File <==

--------------------------------------------------------------------------
#psi4
#
memory 32 gb

molecule  {
-1 1
  O       -0.3805375     1.5579497    -0.0025195
  O        2.2587260     0.7160740     0.0027440
  O        1.4389110    -1.4330490    -0.0022200
  C       -1.1980010    -0.7166360     0.0011530
  C       -2.6041790    -0.1343280     0.0009050
  C       -0.1110720     0.3537600    -0.0005690
  C        1.3671270    -0.1674410     0.0000880
  H       -1.0203320    -1.3658690    -0.8629620
  H       -1.0198480    -1.3637170     0.8668160
  H       -2.7610710     0.4967440    -0.8780030
  H       -3.3633830    -0.9249560     0.0021580
  H       -2.7605070     0.4989750     0.8783160
units angstrom
no_reorient  #important for SAPT in psi4, default
symmetry c1  #important for SAPT in psi4, default
}

set PROPERTIES_ORIGIN ["COM"]
properties('MP2/aug-cc-pvtz', properties = ['dipole'])
--------------------------------------------------------------------------

    Molecular point group: c1
  Charge       = -1
  Multiplicity = 1
  Basis Set: AUG-CC-PVTZ
    Blend: AUG-CC-PVTZ
  Basis Set: (AUG-CC-PVTZ AUX)
    Blend: AUG-CC-PVTZ-JKFIT

    Orbital Energies [Eh]
    ---------------------

    Doubly Occupied:

       1A    -20.398883     2A    -20.320628     3A    -20.316482
       4A    -11.172238     5A    -11.162356     6A    -11.099696
       7A    -11.096388     8A     -1.225512     9A     -1.180143
      10A     -1.091411    11A     -0.916022    12A     -0.771985
      13A     -0.656179    14A     -0.544768    15A     -0.492880
      16A     -0.490707    17A     -0.469830    18A     -0.422741
      19A     -0.401891    20A     -0.398231    21A     -0.382956
      22A     -0.360936    23A     -0.331123    24A     -0.310987
      25A     -0.235525    26A     -0.212304    27A     -0.207610

  @DF-RHF Final Energy:  -379.15196382157046

   => Energetics <=

    Nuclear Repulsion Energy =            284.7612507250972271
    One-Electron Energy =               -1094.4856035010361666
    Two-Electron Energy =                 430.5723889543685345
    Total Energy =                       -379.1519638215704617
  Basis Set: (AUG-CC-PVTZ AUX)
    Blend: AUG-CC-PVTZ-RI
    Molecular point group: c1

    Geometry (in Angstrom), charge = -1, multiplicity = 1:

       Center              X                  Y                   Z               Mass
    ------------   -----------------  -----------------  -----------------  -----------------
         O           -0.494298661775     1.530273565883    -0.002453977279    15.994914619570
         O            2.144964838225     0.688397865883     0.002809522721    15.994914619570
         O            1.325149838225    -1.460725134117    -0.002154477279    15.994914619570
         C           -1.311762161775    -0.744312134117     0.001218522721    12.000000000000
         C           -2.717940161775    -0.162004134117     0.000970522721    12.000000000000
         C           -0.224833161775     0.326083865883    -0.000503477279    12.000000000000
         C            1.253365838225    -0.195117134117     0.000153522721    12.000000000000
         H           -1.134093161775    -1.393545134117    -0.862896477279     1.007825032230
         H           -1.133609161775    -1.391393134117     0.866881522721     1.007825032230
         H           -2.874832161775     0.469067865883    -0.877937477279     1.007825032230
         H           -3.477144161775    -0.952632134117     0.002223522721     1.007825032230
         H           -2.874268161775     0.471298865883     0.878381522721     1.007825032230

  Basis Set: AUG-CC-PVTZ
    Blend: AUG-CC-PVTZ
  Basis Set: (AUG-CC-PVTZ AUX)
    Blend: AUG-CC-PVTZ-JKFIT
	 Reference Energy          =    -379.1519638215704617 [Eh]
	 Singles Energy            =      -0.0000000000000000 [Eh]
	 Same-Spin Energy          =      -0.3736198242374745 [Eh]
	 Opposite-Spin Energy      =      -1.1394720269928422 [Eh]
	 Correlation Energy        =      -1.5130918512303166 [Eh]
	 Total Energy              =    -380.6650556728008041 [Eh]

	 ================> DF-SCS-MP2 Energies <==================
	-----------------------------------------------------------
	 SCS Same-Spin Scale       =       0.3333333333333333 [-]
	 SCS Opposite-Spin Scale   =       1.2000000000000000 [-]
	 SCS Same-Spin Energy      =      -0.1245399414124915 [Eh]
	 SCS Opposite-Spin Energy  =      -1.3673664323914105 [Eh]
	 SCS Correlation Energy    =      -1.4919063738039020 [Eh]
	 SCS Total Energy          =    -380.6438701953743475 [Eh]
	-----------------------------------------------------------

  Dipole Moment: [D]
     X:    -6.6679      Y:    -0.8386      Z:     0.0024     Total:     6.7205

*** Psi4 exiting successfully. Buy a developer a beer!
