                               Psi4 1.3.2 release

  ==> Input File <==

--------------------------------------------------------------------------
#psi4
#
memory 32 gb

molecule  {
-1 1
  O       -0.4223990     1.5478120    -0.0024970
  O        2.2587260     0.7160740     0.0027440
  O        1.4389110    -1.4330490    -0.0022200
  C       -1.1980010    -0.7166360     0.0011530
  C       -2.6041790    -0.1343280     0.0009050
  C       -0.1007581     0.3429203    -0.0225917
  C        1.3671270    -0.1674410     0.0000880
  H       -1.0203320    -1.3658690    -0.8629620
  H       -1.0198480    -1.3637170     0.8668160
  H       -2.7610710     0.4967440    -0.8780030
  H       -3.3633830    -0.9249560     0.0021580
  H       -2.7605070     0.4989750     0.8783160
units angstrom
no_reorient  #important for SAPT in psi4, default
symmetry c1  #important for SAPT in psi4, default
}

set PROPERTIES_ORIGIN ["COM"]
properties('MP2/aug-cc-pvtz', properties = ['dipole'])
--------------------------------------------------------------------------

    Molecular point group: c1
  Charge       = -1
  Multiplicity = 1
  Basis Set: AUG-CC-PVTZ
    Blend: AUG-CC-PVTZ
  Basis Set: (AUG-CC-PVTZ AUX)
    Blend: AUG-CC-PVTZ-JKFIT

    Orbital Energies [Eh]
    ---------------------

    Doubly Occupied:

       1A    -20.398486     2A    -20.322891     3A    -20.318880
       4A    -11.174387     5A    -11.165140     6A    -11.098535
       7A    -11.095240     8A     -1.219279     9A     -1.181537
      10A     -1.093917    11A     -0.914208    12A     -0.773354
      13A     -0.660397    14A     -0.543612    15A     -0.491860
      16A     -0.489689    17A     -0.469911    18A     -0.423640
      19A     -0.401464    20A     -0.397825    21A     -0.380894
      22A     -0.361143    23A     -0.327530    24A     -0.309316
      25A     -0.237991    26A     -0.214142    27A     -0.212293

  @DF-RHF Final Energy:  -379.14986280789719

   => Energetics <=

    Nuclear Repulsion Energy =            284.7340837519641354
    One-Electron Energy =               -1094.4127754069329512
    Two-Electron Energy =                 430.5288288470716225
    Total Energy =                       -379.1498628078971933
  Basis Set: (AUG-CC-PVTZ AUX)
    Blend: AUG-CC-PVTZ-RI
    Molecular point group: c1

    Geometry (in Angstrom), charge = -1, multiplicity = 1:

       Center              X                  Y                   Z               Mass
    ------------   -----------------  -----------------  -----------------  -----------------
         O           -0.530757435432     1.523028529258     0.000180900538    15.994914619570
         O            2.150367564568     0.691290529258     0.005421900538    15.994914619570
         O            1.330552564568    -1.457832470742     0.000457900538    15.994914619570
         C           -1.306359435432    -0.741419470742     0.003830900538    12.000000000000
         C           -2.712537435432    -0.159111470742     0.003582900538    12.000000000000
         C           -0.209116535432     0.318136829258    -0.019913799462    12.000000000000
         C            1.258768564568    -0.192224470742     0.002765900538    12.000000000000
         H           -1.128690435432    -1.390652470742    -0.860284099462     1.007825032230
         H           -1.128206435432    -1.388500470742     0.869493900538     1.007825032230
         H           -2.869429435432     0.471960529258    -0.875325099462     1.007825032230
         H           -3.471741435432    -0.949739470742     0.004835900538     1.007825032230
         H           -2.868865435432     0.474191529258     0.880993900538     1.007825032230

  Basis Set: AUG-CC-PVTZ
    Blend: AUG-CC-PVTZ
  Basis Set: (AUG-CC-PVTZ AUX)
    Blend: AUG-CC-PVTZ-JKFIT
	 Reference Energy          =    -379.1498628078971933 [Eh]
	 Singles Energy            =      -0.0000000000000000 [Eh]
	 Same-Spin Energy          =      -0.3740581196261917 [Eh]
	 Opposite-Spin Energy      =      -1.1405105744366844 [Eh]
	 Correlation Energy        =      -1.5145686940628762 [Eh]
	 Total Energy              =    -380.6644315019600526 [Eh]

	 ================> DF-SCS-MP2 Energies <==================
	-----------------------------------------------------------
	 SCS Same-Spin Scale       =       0.3333333333333333 [-]
	 SCS Opposite-Spin Scale   =       1.2000000000000000 [-]
	 SCS Same-Spin Energy      =      -0.1246860398753972 [Eh]
	 SCS Opposite-Spin Energy  =      -1.3686126893240211 [Eh]
	 SCS Correlation Energy    =      -1.4932987291994184 [Eh]
	 SCS Total Energy          =    -380.6431615370966028 [Eh]
	-----------------------------------------------------------

  Dipole Moment: [D]
     X:    -6.5427      Y:    -0.8738      Z:    -0.0289     Total:     6.6008

*** Psi4 exiting successfully. Buy a developer a beer!
