                               Psi4 1.3.2 release

  ==> Input File <==

--------------------------------------------------------------------------
#psi4
#
memory 32 gb

molecule  {
-1 1
  O       -0.4223990     1.5478120    -0.0024970
  O        2.2273485     0.7466522     0.0027669
  O        1.4389110    -1.4330490    -0.0022200
  C       -1.1980010    -0.7166360     0.0011530
  C       -2.6041790    -0.1343280     0.0009050
  C       -0.1110720     0.3537600    -0.0005690
  C        1.3671270    -0.1674410     0.0000880
  H       -1.0203320    -1.3658690    -0.8629620
  H       -1.0198480    -1.3637170     0.8668160
  H       -2.7610710     0.4967440    -0.8780030
  H       -3.3633830    -0.9249560     0.0021580
  H       -2.7605070     0.4989750     0.8783160
units angstrom
no_reorient  #important for SAPT in psi4, default
symmetry c1  #important for SAPT in psi4, default
}

set PROPERTIES_ORIGIN ["COM"]
properties('MP2/aug-cc-pvtz', properties = ['dipole'])
--------------------------------------------------------------------------

    Molecular point group: c1
  Charge       = -1
  Multiplicity = 1
  Basis Set: AUG-CC-PVTZ
    Blend: AUG-CC-PVTZ
  Basis Set: (AUG-CC-PVTZ AUX)
    Blend: AUG-CC-PVTZ-JKFIT

    Orbital Energies [Eh]
    ---------------------

    Doubly Occupied:

       1A    -20.396997     2A    -20.324393     3A    -20.319390
       4A    -11.169987     5A    -11.165541     6A    -11.097411
       7A    -11.093184     8A     -1.224616     9A     -1.181663
      10A     -1.096201    11A     -0.913147    12A     -0.770254
      13A     -0.655241    14A     -0.543559    15A     -0.491140
      16A     -0.490940    17A     -0.470169    18A     -0.423926
      19A     -0.401475    20A     -0.397611    21A     -0.380821
      22A     -0.360551    23A     -0.330603    24A     -0.309782
      25A     -0.240021    26A     -0.215698    27A     -0.206726

  @DF-RHF Final Energy:  -379.15132891920553

   => Energetics <=

    Nuclear Repulsion Energy =            285.0224551526231949
    One-Electron Energy =               -1095.0054744968076648
    Two-Electron Energy =                 430.8316904249788877
    Total Energy =                       -379.1513289192055254
  Basis Set: (AUG-CC-PVTZ AUX)
    Blend: AUG-CC-PVTZ-RI
    Molecular point group: c1

    Geometry (in Angstrom), charge = -1, multiplicity = 1:

       Center              X                  Y                   Z               Mass
    ------------   -----------------  -----------------  -----------------  -----------------
         O           -0.524564371956     1.516899560884    -0.002438665373    15.994914619570
         O            2.125183128044     0.715739760884     0.002825234627    15.994914619570
         O            1.336745628044    -1.463961439116    -0.002161665373    15.994914619570
         C           -1.300166371956    -0.747548439116     0.001211334627    12.000000000000
         C           -2.706344371956    -0.165240439116     0.000963334627    12.000000000000
         C           -0.213237371956     0.322847560884    -0.000510665373    12.000000000000
         C            1.264961628044    -0.198353439116     0.000146334627    12.000000000000
         H           -1.122497371956    -1.396781439116    -0.862903665373     1.007825032230
         H           -1.122013371956    -1.394629439116     0.866874334627     1.007825032230
         H           -2.863236371956     0.465831560884    -0.877944665373     1.007825032230
         H           -3.465548371956    -0.955868439116     0.002216334627     1.007825032230
         H           -2.862672371956     0.468062560884     0.878374334627     1.007825032230

  Basis Set: AUG-CC-PVTZ
    Blend: AUG-CC-PVTZ
  Basis Set: (AUG-CC-PVTZ AUX)
    Blend: AUG-CC-PVTZ-JKFIT
	 Reference Energy          =    -379.1513289192055254 [Eh]
	 Singles Energy            =      -0.0000000000000000 [Eh]
	 Same-Spin Energy          =      -0.3737808822659128 [Eh]
	 Opposite-Spin Energy      =      -1.1396643655357441 [Eh]
	 Correlation Energy        =      -1.5134452478016569 [Eh]
	 Total Energy              =    -380.6647741670071809 [Eh]

	 ================> DF-SCS-MP2 Energies <==================
	-----------------------------------------------------------
	 SCS Same-Spin Scale       =       0.3333333333333333 [-]
	 SCS Opposite-Spin Scale   =       1.2000000000000000 [-]
	 SCS Same-Spin Energy      =      -0.1245936274219709 [Eh]
	 SCS Opposite-Spin Energy  =      -1.3675972386428930 [Eh]
	 SCS Correlation Energy    =      -1.4921908660648640 [Eh]
	 SCS Total Energy          =    -380.6435197852703709 [Eh]
	-----------------------------------------------------------

  Dipole Moment: [D]
     X:    -6.4674      Y:    -0.8741      Z:     0.0023     Total:     6.5262

*** Psi4 exiting successfully. Buy a developer a beer!
