                               Psi4 1.3.2 release

  ==> Input File <==

--------------------------------------------------------------------------
#psi4
#
memory 32 gb

molecule  {
-1 1
  O       -0.4223990     1.5478120    -0.0024970
  O        2.2587260     0.7160740     0.0027440
  O        1.4389110    -1.4330490    -0.0022200
  C       -1.1980010    -0.7166360     0.0011530
  C       -2.5601339    -0.0376565     0.0007681
  C       -0.1110720     0.3537600    -0.0005690
  C        1.3671270    -0.1674410     0.0000880
  H       -1.0203320    -1.3658690    -0.8629620
  H       -1.0198480    -1.3637170     0.8668160
  H       -2.7610710     0.4967440    -0.8780030
  H       -3.3633830    -0.9249560     0.0021580
  H       -2.7605070     0.4989750     0.8783160
units angstrom
no_reorient  #important for SAPT in psi4, default
symmetry c1  #important for SAPT in psi4, default
}

set PROPERTIES_ORIGIN ["COM"]
properties('MP2/aug-cc-pvtz', properties = ['dipole'])
--------------------------------------------------------------------------

    Molecular point group: c1
  Charge       = -1
  Multiplicity = 1
  Basis Set: AUG-CC-PVTZ
    Blend: AUG-CC-PVTZ
  Basis Set: (AUG-CC-PVTZ AUX)
    Blend: AUG-CC-PVTZ-JKFIT

    Orbital Energies [Eh]
    ---------------------

    Doubly Occupied:

       1A    -20.399222     2A    -20.322405     3A    -20.317928
       4A    -11.171526     5A    -11.163973     6A    -11.100531
       7A    -11.095759     8A     -1.226689     9A     -1.182061
      10A     -1.092951    11A     -0.915622    12A     -0.772130
      13A     -0.657419    14A     -0.543954    15A     -0.505452
      16A     -0.488353    17A     -0.471511    18A     -0.415669
      19A     -0.412809    20A     -0.395065    21A     -0.368032
      22A     -0.365889    23A     -0.332882    24A     -0.311236
      25A     -0.237314    26A     -0.213732    27A     -0.207809

  @DF-RHF Final Energy:  -379.14141103533370

   => Energetics <=

    Nuclear Repulsion Energy =            285.3834685241317288
    One-Electron Energy =               -1095.6739126145084811
    Two-Electron Energy =                 431.1490330550429917
    Total Energy =                       -379.1414110353337037
  Basis Set: (AUG-CC-PVTZ AUX)
    Blend: AUG-CC-PVTZ-RI
    Molecular point group: c1

    Geometry (in Angstrom), charge = -1, multiplicity = 1:

       Center              X                  Y                   Z               Mass
    ------------   -----------------  -----------------  -----------------  -----------------
         O           -0.534764155863     1.510257939371    -0.002418778157    15.994914619570
         O            2.146360844137     0.678519939371     0.002822221843    15.994914619570
         O            1.326545844137    -1.470603060629    -0.002141778157    15.994914619570
         C           -1.310366155863    -0.754190060629     0.001231221843    12.000000000000
         C           -2.672499055863    -0.075210560629     0.000846321843    12.000000000000
         C           -0.223437155863     0.316205939371    -0.000490778157    12.000000000000
         C            1.254761844137    -0.204995060629     0.000166221843    12.000000000000
         H           -1.132697155863    -1.403423060629    -0.862883778157     1.007825032230
         H           -1.132213155863    -1.401271060629     0.866894221843     1.007825032230
         H           -2.873436155863     0.459189939371    -0.877924778157     1.007825032230
         H           -3.475748155863    -0.962510060629     0.002236221843     1.007825032230
         H           -2.872872155863     0.461420939371     0.878394221843     1.007825032230

  Basis Set: AUG-CC-PVTZ
    Blend: AUG-CC-PVTZ
  Basis Set: (AUG-CC-PVTZ AUX)
    Blend: AUG-CC-PVTZ-JKFIT
	 Reference Energy          =    -379.1414110353337037 [Eh]
	 Singles Energy            =      -0.0000000000000000 [Eh]
	 Same-Spin Energy          =      -0.3737714402882087 [Eh]
	 Opposite-Spin Energy      =      -1.1399170690389877 [Eh]
	 Correlation Energy        =      -1.5136885093271966 [Eh]
	 Total Energy              =    -380.6550995446609136 [Eh]

	 ================> DF-SCS-MP2 Energies <==================
	-----------------------------------------------------------
	 SCS Same-Spin Scale       =       0.3333333333333333 [-]
	 SCS Opposite-Spin Scale   =       1.2000000000000000 [-]
	 SCS Same-Spin Energy      =      -0.1245904800960696 [Eh]
	 SCS Opposite-Spin Energy  =      -1.3679004828467851 [Eh]
	 SCS Correlation Energy    =      -1.4924909629428547 [Eh]
	 SCS Total Energy          =    -380.6339019982765421 [Eh]
	-----------------------------------------------------------

  Dipole Moment: [D]
     X:    -6.4875      Y:    -0.6890      Z:     0.0021     Total:     6.5240

*** Psi4 exiting successfully. Buy a developer a beer!
