                               Psi4 1.4a3.dev225

  ==> Input File <==

--------------------------------------------------------------------------
#psi4
#
memory 32 gb

molecule  {
-1 1
  O       -0.3985850     1.5131790    -0.2845690
  O        2.2066640     0.7149310     0.3161120
  O        1.5078530    -1.3885780    -0.2413420
  C       -1.2053190    -0.7120700     0.1148020
  C       -2.6123310    -0.1342710     0.1051660
  C       -0.1372654     0.3158491    -0.0658703
  C        1.3495430    -0.1585420     0.0132420
  H       -1.0703250    -1.4639250    -0.6703970
  H       -0.9966990    -1.2446330     1.0513490
  H       -2.8226470     0.3633290    -0.8444420
  H       -3.3547600    -0.9237900     0.2511250
  H       -2.7366210     0.6043540     0.9012280
units angstrom
no_reorient  #important for SAPT in psi4, default
symmetry c1  #important for SAPT in psi4, default
}

set PROPERTIES_ORIGIN ["COM"]
properties('MP2/aug-cc-pvtz', properties = ['dipole'])
--------------------------------------------------------------------------

    Molecular point group: c1
  Charge       = -1
  Multiplicity = 1
  Basis Set: AUG-CC-PVTZ
    Blend: AUG-CC-PVTZ
  Basis Set: (AUG-CC-PVTZ AUX)
    Blend: AUG-CC-PVTZ-JKFIT

    Orbital Energies [Eh]
    ---------------------

    Doubly Occupied:

       1A    -20.397642     2A    -20.319505     3A    -20.313846
       4A    -11.174111     5A    -11.161521     6A    -11.102758
       7A    -11.100507     8A     -1.220337     9A     -1.177646
      10A     -1.086332    11A     -0.924734    12A     -0.780582
      13A     -0.658320    14A     -0.549310    15A     -0.499405
      16A     -0.488908    17A     -0.468669    18A     -0.422366
      19A     -0.406514    20A     -0.395062    21A     -0.385670
      22A     -0.363494    23A     -0.327685    24A     -0.312412
      25A     -0.231932    26A     -0.213195    27A     -0.206341

  @DF-RHF Final Energy:  -379.15041903937509

   => Energetics <=

    Nuclear Repulsion Energy =            284.7656929265829717
    One-Electron Energy =               -1094.4546179133103578
    Two-Electron Energy =                 430.5385059473523484
    Total Energy =                       -379.1504190393750946
  Basis Set: (AUG-CC-PVTZ AUX)
    Blend: AUG-CC-PVTZ-RI
    Molecular point group: c1

    Geometry (in Angstrom), charge = -1, multiplicity = 1:

       Center              X                  Y                   Z               Mass
    ------------   -----------------  -----------------  -----------------  -----------------
         O           -0.504565907704     1.488686572667    -0.278101347123    15.994914619570
         O            2.100683092296     0.690438572667     0.322579652877    15.994914619570
         O            1.401872092296    -1.413070427333    -0.234874347123    15.994914619570
         C           -1.311299907704    -0.736562427333     0.121269652877    12.000000000000
         C           -2.718311907704    -0.158763427333     0.111633652877    12.000000000000
         C           -0.243246307704     0.291356672667    -0.059402647123    12.000000000000
         C            1.243562092296    -0.183034427333     0.019709652877    12.000000000000
         H           -1.176305907704    -1.488417427333    -0.663929347123     1.007825032230
         H           -1.102679907704    -1.269125427333     1.057816652877     1.007825032230
         H           -2.928627907704     0.338836572667    -0.837974347123     1.007825032230
         H           -3.460740907704    -0.948282427333     0.257592652877     1.007825032230
         H           -2.842601907704     0.579861572667     0.907695652877     1.007825032230

  Basis Set: AUG-CC-PVTZ
    Blend: AUG-CC-PVTZ
  Basis Set: (AUG-CC-PVTZ AUX)
    Blend: AUG-CC-PVTZ-JKFIT
	 Reference Energy          =    -379.1504190393750946 [Eh]
	 Singles Energy            =      -0.0000000000000000 [Eh]
	 Same-Spin Energy          =      -0.3738772706445158 [Eh]
	 Opposite-Spin Energy      =      -1.1397990978841994 [Eh]
	 Correlation Energy        =      -1.5136763685287151 [Eh]
	 Total Energy              =    -380.6640954079038011 [Eh]

	 ================> DF-SCS-MP2 Energies <==================
	-----------------------------------------------------------
	 SCS Same-Spin Scale       =       0.3333333333333333 [-]
	 SCS Opposite-Spin Scale   =       1.2000000000000000 [-]
	 SCS Same-Spin Energy      =      -0.1246257568815052 [Eh]
	 SCS Opposite-Spin Energy  =      -1.3677589174610392 [Eh]
	 SCS Correlation Energy    =      -1.4923846743425444 [Eh]
	 SCS Total Energy          =    -380.6428037137176261 [Eh]
	-----------------------------------------------------------

  Dipole Moment: [D]
     X:    -6.9402      Y:    -0.9983      Z:     0.2550     Total:     7.0162

*** Psi4 exiting successfully. Buy a developer a beer!
