                               Psi4 1.3.2 release

  ==> Input File <==

--------------------------------------------------------------------------
#psi4
#
memory 32 gb

molecule  {
-1 1
  O       -0.4223990     1.5478120    -0.0024970
  O        2.2587260     0.7160740     0.0027440
  O        1.4389110    -1.4330490    -0.0022200
  C       -1.1980010    -0.7166360     0.0011530
  C       -2.6573436    -0.2845034     0.0011123
  C       -0.1110720     0.3537600    -0.0005690
  C        1.3671270    -0.1674410     0.0000880
  H       -1.0203320    -1.3658690    -0.8629620
  H       -1.0198480    -1.3637170     0.8668160
  H       -2.7610710     0.4967440    -0.8780030
  H       -3.3633830    -0.9249560     0.0021580
  H       -2.7605070     0.4989750     0.8783160
units angstrom
no_reorient  #important for SAPT in psi4, default
symmetry c1  #important for SAPT in psi4, default
}

set PROPERTIES_ORIGIN ["COM"]
properties('MP2/aug-cc-pvtz', properties = ['dipole'])
--------------------------------------------------------------------------

    Molecular point group: c1
  Charge       = -1
  Multiplicity = 1
  Basis Set: AUG-CC-PVTZ
    Blend: AUG-CC-PVTZ
  Basis Set: (AUG-CC-PVTZ AUX)
    Blend: AUG-CC-PVTZ-JKFIT

    Orbital Energies [Eh]
    ---------------------

    Doubly Occupied:

       1A    -20.400714     2A    -20.322897     3A    -20.319759
       4A    -11.176480     5A    -11.166961     6A    -11.102465
       7A    -11.096112     8A     -1.227125     9A     -1.183189
      10A     -1.094188    11A     -0.915913    12A     -0.777775
      13A     -0.660774    14A     -0.547302    15A     -0.501586
      16A     -0.480339    17A     -0.470367    18A     -0.455720
      19A     -0.410613    20A     -0.391189    21A     -0.364373
      22A     -0.341435    23A     -0.328422    24A     -0.312386
      25A     -0.238204    26A     -0.214561    27A     -0.211682

  @DF-RHF Final Energy:  -379.12046982108512

   => Energetics <=

    Nuclear Repulsion Energy =            284.0019511055668318
    One-Electron Energy =               -1092.8197811343165995
    Two-Electron Energy =                 429.6973602076646443
    Total Energy =                       -379.1204698210851234
  Basis Set: (AUG-CC-PVTZ AUX)
    Blend: AUG-CC-PVTZ-RI
    Molecular point group: c1

    Geometry (in Angstrom), charge = -1, multiplicity = 1:

       Center              X                  Y                   Z               Mass
    ------------   -----------------  -----------------  -----------------  -----------------
         O           -0.523217217389     1.539579354486    -0.002459663544    15.994914619570
         O            2.157907782611     0.707841354486     0.002781336456    15.994914619570
         O            1.338092782611    -1.441281645514    -0.002182663544    15.994914619570
         C           -1.298819217389    -0.724868645514     0.001190336456    12.000000000000
         C           -2.758161817389    -0.292736045514     0.001149636456    12.000000000000
         C           -0.211890217389     0.345527354486    -0.000531663544    12.000000000000
         C            1.266308782611    -0.175673645514     0.000125336456    12.000000000000
         H           -1.121150217389    -1.374101645514    -0.862924663544     1.007825032230
         H           -1.120666217389    -1.371949645514     0.866853336456     1.007825032230
         H           -2.861889217389     0.488511354486    -0.877965663544     1.007825032230
         H           -3.464201217389    -0.933188645514     0.002195336456     1.007825032230
         H           -2.861325217389     0.490742354486     0.878353336456     1.007825032230

  Basis Set: AUG-CC-PVTZ
    Blend: AUG-CC-PVTZ
  Basis Set: (AUG-CC-PVTZ AUX)
    Blend: AUG-CC-PVTZ-JKFIT
	 Reference Energy          =    -379.1204698210851234 [Eh]
	 Singles Energy            =      -0.0000000000000000 [Eh]
	 Same-Spin Energy          =      -0.3742186516829964 [Eh]
	 Opposite-Spin Energy      =      -1.1411489039037330 [Eh]
	 Correlation Energy        =      -1.5153675555867294 [Eh]
	 Total Energy              =    -380.6358373766718728 [Eh]

	 ================> DF-SCS-MP2 Energies <==================
	-----------------------------------------------------------
	 SCS Same-Spin Scale       =       0.3333333333333333 [-]
	 SCS Opposite-Spin Scale   =       1.2000000000000000 [-]
	 SCS Same-Spin Energy      =      -0.1247395505609988 [Eh]
	 SCS Opposite-Spin Energy  =      -1.3693786846844795 [Eh]
	 SCS Correlation Energy    =      -1.4941182352454783 [Eh]
	 SCS Total Energy          =    -380.6145880563306036 [Eh]
	-----------------------------------------------------------

  Dipole Moment: [D]
     X:    -6.5336      Y:    -0.9947      Z:     0.0025     Total:     6.6089

*** Psi4 exiting successfully. Buy a developer a beer!
