                               Psi4 1.3.2 release

  ==> Input File <==

--------------------------------------------------------------------------
#psi4
#
memory 32 gb

molecule  {
-1 1
  O       -0.4223990     1.5478120    -0.0024970
  O        2.2587260     0.7160740     0.0027440
  O        1.4389110    -1.4330490    -0.0022200
  C       -1.1980010    -0.7166360     0.0011530
  C       -2.6041790    -0.1343280     0.0009050
  C       -0.0718340     0.3084783    -0.0885898
  C        1.3671270    -0.1674410     0.0000880
  H       -1.0203320    -1.3658690    -0.8629620
  H       -1.0198480    -1.3637170     0.8668160
  H       -2.7610710     0.4967440    -0.8780030
  H       -3.3633830    -0.9249560     0.0021580
  H       -2.7605070     0.4989750     0.8783160
units angstrom
no_reorient  #important for SAPT in psi4, default
symmetry c1  #important for SAPT in psi4, default
}

set PROPERTIES_ORIGIN ["COM"]
properties('MP2/aug-cc-pvtz', properties = ['dipole'])
--------------------------------------------------------------------------

    Molecular point group: c1
  Charge       = -1
  Multiplicity = 1
  Basis Set: AUG-CC-PVTZ
    Blend: AUG-CC-PVTZ
  Basis Set: (AUG-CC-PVTZ AUX)
    Blend: AUG-CC-PVTZ-JKFIT

    Orbital Energies [Eh]
    ---------------------

    Doubly Occupied:

       1A    -20.397194     2A    -20.325113     3A    -20.320867
       4A    -11.179948     5A    -11.166601     6A    -11.099330
       7A    -11.097913     8A     -1.205404     9A     -1.173204
      10A     -1.096612    11A     -0.914328    12A     -0.779222
      13A     -0.671016    14A     -0.540056    15A     -0.491861
      16A     -0.486164    17A     -0.465888    18A     -0.425360
      19A     -0.401613    20A     -0.399157    21A     -0.377059
      22A     -0.362326    23A     -0.313157    24A     -0.303432
      25A     -0.240126    26A     -0.221437    27A     -0.215543

  @DF-RHF Final Energy:  -379.13655142279009

   => Energetics <=

    Nuclear Repulsion Energy =            284.5584296166535410
    One-Electron Energy =               -1094.0500998727623028
    Two-Electron Energy =                 430.3551188333187270
    Total Energy =                       -379.1365514227900917
  Basis Set: (AUG-CC-PVTZ AUX)
    Blend: AUG-CC-PVTZ-RI
    Molecular point group: c1

    Geometry (in Angstrom), charge = -1, multiplicity = 1:

       Center              X                  Y                   Z               Mass
    ------------   -----------------  -----------------  -----------------  -----------------
         O           -0.534193150213     1.527119681220     0.008020406268    15.994914619570
         O            2.146931849787     0.695381681220     0.013261406268    15.994914619570
         O            1.327116849787    -1.453741318780     0.008297406268    15.994914619570
         C           -1.309795150213    -0.737328318780     0.011670406268    12.000000000000
         C           -2.715973150213    -0.155020318780     0.011422406268    12.000000000000
         C           -0.183628150213     0.287785981220    -0.078072393732    12.000000000000
         C            1.255332849787    -0.188133318780     0.010605406268    12.000000000000
         H           -1.132126150213    -1.386561318780    -0.852444593732     1.007825032230
         H           -1.131642150213    -1.384409318780     0.877333406268     1.007825032230
         H           -2.872865150213     0.476051681220    -0.867485593732     1.007825032230
         H           -3.475177150213    -0.945648318780     0.012675406268     1.007825032230
         H           -2.872301150213     0.478282681220     0.888833406268     1.007825032230

  Basis Set: AUG-CC-PVTZ
    Blend: AUG-CC-PVTZ
  Basis Set: (AUG-CC-PVTZ AUX)
    Blend: AUG-CC-PVTZ-JKFIT
	 Reference Energy          =    -379.1365514227900917 [Eh]
	 Singles Energy            =      -0.0000000000000000 [Eh]
	 Same-Spin Energy          =      -0.3755936617487149 [Eh]
	 Opposite-Spin Energy      =      -1.1442074389894619 [Eh]
	 Correlation Energy        =      -1.5198011007381766 [Eh]
	 Total Energy              =    -380.6563525235282555 [Eh]

	 ================> DF-SCS-MP2 Energies <==================
	-----------------------------------------------------------
	 SCS Same-Spin Scale       =       0.3333333333333333 [-]
	 SCS Opposite-Spin Scale   =       1.2000000000000000 [-]
	 SCS Same-Spin Energy      =      -0.1251978872495716 [Eh]
	 SCS Opposite-Spin Energy  =      -1.3730489267873542 [Eh]
	 SCS Correlation Energy    =      -1.4982468140369258 [Eh]
	 SCS Total Energy          =    -380.6347982368270095 [Eh]
	-----------------------------------------------------------

  Dipole Moment: [D]
     X:    -6.4533      Y:    -1.0019      Z:    -0.1170     Total:     6.5317

*** Psi4 exiting successfully. Buy a developer a beer!
