                               Psi4 1.4a3.dev225

  ==> Input File <==

--------------------------------------------------------------------------
#psi4
#
memory 32 gb

molecule  {
-1 1
  O       -0.3985850     1.5131790    -0.2845690
  O        2.2066640     0.7149310     0.3161120
  O        1.5078530    -1.3885780    -0.2413420
  C       -1.2053190    -0.7120700     0.1148020
  C       -2.6123310    -0.1342710     0.1051660
  C       -0.1117961     0.2816724    -0.0595290
  C        1.3495430    -0.1585420     0.0132420
  H       -1.0703250    -1.4639250    -0.6703970
  H       -0.9966990    -1.2446330     1.0513490
  H       -2.8226470     0.3633290    -0.8444420
  H       -3.3547600    -0.9237900     0.2511250
  H       -2.7366210     0.6043540     0.9012280
units angstrom
no_reorient  #important for SAPT in psi4, default
symmetry c1  #important for SAPT in psi4, default
}

set PROPERTIES_ORIGIN ["COM"]
properties('MP2/aug-cc-pvtz', properties = ['dipole'])
--------------------------------------------------------------------------

    Molecular point group: c1
  Charge       = -1
  Multiplicity = 1
  Basis Set: AUG-CC-PVTZ
    Blend: AUG-CC-PVTZ
  Basis Set: (AUG-CC-PVTZ AUX)
    Blend: AUG-CC-PVTZ-JKFIT

    Orbital Energies [Eh]
    ---------------------

    Doubly Occupied:

       1A    -20.395541     2A    -20.321581     3A    -20.315752
       4A    -11.178733     5A    -11.163027     6A    -11.103743
       7A    -11.102688     8A     -1.204960     9A     -1.172462
      10A     -1.088826    11A     -0.925681    12A     -0.786395
      13A     -0.668763    14A     -0.546853    15A     -0.499887
      16A     -0.484422    17A     -0.466081    18A     -0.424066
      19A     -0.407755    20A     -0.395816    21A     -0.382007
      22A     -0.364943    23A     -0.314876    24A     -0.307249
      25A     -0.233776    26A     -0.220070    27A     -0.209858

  @DF-RHF Final Energy:  -379.14227376360668

   => Energetics <=

    Nuclear Repulsion Energy =            284.6856805717034717
    One-Electron Energy =               -1094.2842792872252176
    Two-Electron Energy =                 430.4563249519151213
    Total Energy =                       -379.1422737636066813
  Basis Set: (AUG-CC-PVTZ AUX)
    Blend: AUG-CC-PVTZ-RI
    Molecular point group: c1

    Geometry (in Angstrom), charge = -1, multiplicity = 1:

       Center              X                  Y                   Z               Mass
    ------------   -----------------  -----------------  -----------------  -----------------
         O           -0.507591248180     1.492746211285    -0.278854590894    15.994914619570
         O            2.097657751820     0.694498211285     0.321826409106    15.994914619570
         O            1.398846751820    -1.409010788715    -0.235627590894    15.994914619570
         C           -1.314325248180    -0.732502788715     0.120516409106    12.000000000000
         C           -2.721337248180    -0.154703788715     0.110880409106    12.000000000000
         C           -0.220802348180     0.261239611285    -0.053814590894    12.000000000000
         C            1.240536751820    -0.178974788715     0.018956409106    12.000000000000
         H           -1.179331248180    -1.484357788715    -0.664682590894     1.007825032230
         H           -1.105705248180    -1.265065788715     1.057063409106     1.007825032230
         H           -2.931653248180     0.342896211285    -0.838727590894     1.007825032230
         H           -3.463766248180    -0.944222788715     0.256839409106     1.007825032230
         H           -2.845627248180     0.583921211285     0.906942409106     1.007825032230

  Basis Set: AUG-CC-PVTZ
    Blend: AUG-CC-PVTZ
  Basis Set: (AUG-CC-PVTZ AUX)
    Blend: AUG-CC-PVTZ-JKFIT
	 Reference Energy          =    -379.1422737636066813 [Eh]
	 Singles Energy            =      -0.0000000000000000 [Eh]
	 Same-Spin Energy          =      -0.3751403163016215 [Eh]
	 Opposite-Spin Energy      =      -1.1426808885691584 [Eh]
	 Correlation Energy        =      -1.5178212048707800 [Eh]
	 Total Energy              =    -380.6600949684774378 [Eh]

	 ================> DF-SCS-MP2 Energies <==================
	-----------------------------------------------------------
	 SCS Same-Spin Scale       =       0.3333333333333333 [-]
	 SCS Opposite-Spin Scale   =       1.2000000000000000 [-]
	 SCS Same-Spin Energy      =      -0.1250467721005405 [Eh]
	 SCS Opposite-Spin Energy  =      -1.3712170662829901 [Eh]
	 SCS Correlation Energy    =      -1.4962638383835305 [Eh]
	 SCS Total Energy          =    -380.6385376019902083 [Eh]
	-----------------------------------------------------------

  Dipole Moment: [D]
     X:    -6.8666      Y:    -1.1336      Z:     0.2893     Total:     6.9655

*** Psi4 exiting successfully. Buy a developer a beer!
