                               Psi4 1.3.2 release

  ==> Input File <==

--------------------------------------------------------------------------
#psi4
#
memory 32 gb

molecule  {
-1 1
  O       -0.4223990     1.5478120    -0.0024970
  O        2.2587260     0.7160740     0.0027440
  O        1.4389110    -1.4330490    -0.0022200
  C       -1.3039337    -0.5971574     0.0009813
  C       -2.6041790    -0.1343280     0.0009050
  C       -0.1110720     0.3537600    -0.0005690
  C        1.3671270    -0.1674410     0.0000880
  H       -1.0203320    -1.3658690    -0.8629620
  H       -1.0198480    -1.3637170     0.8668160
  H       -2.7610710     0.4967440    -0.8780030
  H       -3.3633830    -0.9249560     0.0021580
  H       -2.7605070     0.4989750     0.8783160
units angstrom
no_reorient  #important for SAPT in psi4, default
symmetry c1  #important for SAPT in psi4, default
}

set PROPERTIES_ORIGIN ["COM"]
properties('MP2/aug-cc-pvtz', properties = ['dipole'])
--------------------------------------------------------------------------

    Molecular point group: c1
  Charge       = -1
  Multiplicity = 1
  Basis Set: AUG-CC-PVTZ
    Blend: AUG-CC-PVTZ
  Basis Set: (AUG-CC-PVTZ AUX)
    Blend: AUG-CC-PVTZ-JKFIT

    Orbital Energies [Eh]
    ---------------------

    Doubly Occupied:

       1A    -20.393610     2A    -20.323656     3A    -20.321387
       4A    -11.172818     5A    -11.170026     6A    -11.103559
       7A    -11.094457     8A     -1.225828     9A     -1.183717
      10A     -1.094975    11A     -0.942444    12A     -0.767930
      13A     -0.651116    14A     -0.545670    15A     -0.494540
      16A     -0.492300    17A     -0.477405    18A     -0.445558
      19A     -0.416877    20A     -0.401319    21A     -0.373129
      22A     -0.345150    23A     -0.307634    24A     -0.303748
      25A     -0.239857    26A     -0.215138    27A     -0.211148

  @DF-RHF Final Energy:  -379.12060176611988

   => Energetics <=

    Nuclear Repulsion Energy =            285.4489601120198472
    One-Electron Energy =               -1095.7091324814414293
    Two-Electron Energy =                 431.1395706033016495
    Total Energy =                       -379.1206017661198757
  Basis Set: (AUG-CC-PVTZ AUX)
    Blend: AUG-CC-PVTZ-RI
    Molecular point group: c1

    Geometry (in Angstrom), charge = -1, multiplicity = 1:

       Center              X                  Y                   Z               Mass
    ------------   -----------------  -----------------  -----------------  -----------------
         O           -0.516949221458     1.507548825153    -0.002414644480    15.994914619570
         O            2.164175778542     0.675810825153     0.002826355520    15.994914619570
         O            1.344360778542    -1.473312174847    -0.002137644480    15.994914619570
         C           -1.398483921458    -0.637420574847     0.001063655520    12.000000000000
         C           -2.698729221458    -0.174591174847     0.000987355520    12.000000000000
         C           -0.205622221458     0.313496825153    -0.000486644480    12.000000000000
         C            1.272576778542    -0.207704174847     0.000170355520    12.000000000000
         H           -1.114882221458    -1.406132174847    -0.862879644480     1.007825032230
         H           -1.114398221458    -1.403980174847     0.866898355520     1.007825032230
         H           -2.855621221458     0.456480825153    -0.877920644480     1.007825032230
         H           -3.457933221458    -0.965219174847     0.002240355520     1.007825032230
         H           -2.855057221458     0.458711825153     0.878398355520     1.007825032230

  Basis Set: AUG-CC-PVTZ
    Blend: AUG-CC-PVTZ
  Basis Set: (AUG-CC-PVTZ AUX)
    Blend: AUG-CC-PVTZ-JKFIT
	 Reference Energy          =    -379.1206017661198757 [Eh]
	 Singles Energy            =      -0.0000000000000000 [Eh]
	 Same-Spin Energy          =      -0.3757151644966505 [Eh]
	 Opposite-Spin Energy      =      -1.1422504811997669 [Eh]
	 Correlation Energy        =      -1.5179656456964175 [Eh]
	 Total Energy              =    -380.6385674118162683 [Eh]

	 ================> DF-SCS-MP2 Energies <==================
	-----------------------------------------------------------
	 SCS Same-Spin Scale       =       0.3333333333333333 [-]
	 SCS Opposite-Spin Scale   =       1.2000000000000000 [-]
	 SCS Same-Spin Energy      =      -0.1252383881655502 [Eh]
	 SCS Opposite-Spin Energy  =      -1.3707005774397203 [Eh]
	 SCS Correlation Energy    =      -1.4959389656052704 [Eh]
	 SCS Total Energy          =    -380.6165407317251379 [Eh]
	-----------------------------------------------------------

  Dipole Moment: [D]
     X:    -6.6838      Y:    -0.7560      Z:     0.0022     Total:     6.7264

*** Psi4 exiting successfully. Buy a developer a beer!
