                               Psi4 1.3.2 release

  ==> Input File <==

--------------------------------------------------------------------------
#psi4
#
memory 32 gb

molecule  {
-1 1
  O       -0.4223990     1.5478120    -0.0024970
  O        2.2587260     0.7160740     0.0027440
  O        1.4389110    -1.4330490    -0.0022200
  C       -1.1980010    -0.7166360     0.0011530
  C       -2.6041790    -0.1343280     0.0009050
  C       -0.0398216     0.4239267    -0.0006819
  C        1.3671270    -0.1674410     0.0000880
  H       -1.0203320    -1.3658690    -0.8629620
  H       -1.0198480    -1.3637170     0.8668160
  H       -2.7610710     0.4967440    -0.8780030
  H       -3.3633830    -0.9249560     0.0021580
  H       -2.7605070     0.4989750     0.8783160
units angstrom
no_reorient  #important for SAPT in psi4, default
symmetry c1  #important for SAPT in psi4, default
}

set PROPERTIES_ORIGIN ["COM"]
properties('MP2/aug-cc-pvtz', properties = ['dipole'])
--------------------------------------------------------------------------

    Molecular point group: c1
  Charge       = -1
  Multiplicity = 1
  Basis Set: AUG-CC-PVTZ
    Blend: AUG-CC-PVTZ
  Basis Set: (AUG-CC-PVTZ AUX)
    Blend: AUG-CC-PVTZ-JKFIT

    Orbital Energies [Eh]
    ---------------------

    Doubly Occupied:

       1A    -20.405407     2A    -20.325229     3A    -20.320065
       4A    -11.172834     5A    -11.164610     6A    -11.093461
       7A    -11.087205     8A     -1.258563     9A     -1.188246
      10A     -1.095850    11A     -0.897877    12A     -0.759593
      13A     -0.666427    14A     -0.545649    15A     -0.498744
      16A     -0.483138    17A     -0.474552    18A     -0.425697
      19A     -0.410018    20A     -0.396477    21A     -0.379095
      22A     -0.355774    23A     -0.347252    24A     -0.303101
      25A     -0.240460    26A     -0.215378    27A     -0.204841

  @DF-RHF Final Energy:  -379.14612177964483

   => Energetics <=

    Nuclear Repulsion Energy =            285.0399946790467993
    One-Electron Energy =               -1094.9411450836926178
    Two-Electron Energy =                 430.7550286250009890
    Total Energy =                       -379.1461217796448295
  Basis Set: (AUG-CC-PVTZ AUX)
    Blend: AUG-CC-PVTZ-RI
    Molecular point group: c1

    Geometry (in Angstrom), charge = -1, multiplicity = 1:

       Center              X                  Y                   Z               Mass
    ------------   -----------------  -----------------  -----------------  -----------------
         O           -0.537995705032     1.513406280482    -0.002421628968    15.994914619570
         O            2.143129294968     0.681668280482     0.002819371032    15.994914619570
         O            1.323314294968    -1.467454719518    -0.002144628968    15.994914619570
         C           -1.313597705032    -0.751041719518     0.001228371032    12.000000000000
         C           -2.719775705032    -0.168733719518     0.000980371032    12.000000000000
         C           -0.155418305032     0.389520980482    -0.000606528968    12.000000000000
         C            1.251530294968    -0.201846719518     0.000163371032    12.000000000000
         H           -1.135928705032    -1.400274719518    -0.862886628968     1.007825032230
         H           -1.135444705032    -1.398122719518     0.866891371032     1.007825032230
         H           -2.876667705032     0.462338280482    -0.877927628968     1.007825032230
         H           -3.478979705032    -0.959361719518     0.002233371032     1.007825032230
         H           -2.876103705032     0.464569280482     0.878391371032     1.007825032230

  Basis Set: AUG-CC-PVTZ
    Blend: AUG-CC-PVTZ
  Basis Set: (AUG-CC-PVTZ AUX)
    Blend: AUG-CC-PVTZ-JKFIT
	 Reference Energy          =    -379.1461217796448295 [Eh]
	 Singles Energy            =      -0.0000000000000000 [Eh]
	 Same-Spin Energy          =      -0.3727432752296499 [Eh]
	 Opposite-Spin Energy      =      -1.1379067657750934 [Eh]
	 Correlation Energy        =      -1.5106500410047432 [Eh]
	 Total Energy              =    -380.6567718206495670 [Eh]

	 ================> DF-SCS-MP2 Energies <==================
	-----------------------------------------------------------
	 SCS Same-Spin Scale       =       0.3333333333333333 [-]
	 SCS Opposite-Spin Scale   =       1.2000000000000000 [-]
	 SCS Same-Spin Energy      =      -0.1242477584098833 [Eh]
	 SCS Opposite-Spin Energy  =      -1.3654881189301120 [Eh]
	 SCS Correlation Energy    =      -1.4897358773399954 [Eh]
	 SCS Total Energy          =    -380.6358576569847969 [Eh]
	-----------------------------------------------------------

  Dipole Moment: [D]
     X:    -6.1463      Y:    -0.4172      Z:     0.0013     Total:     6.1604

*** Psi4 exiting successfully. Buy a developer a beer!
