                               Psi4 1.4a3.dev225

  ==> Input File <==

--------------------------------------------------------------------------
#psi4
#
memory 32 gb

molecule  {
-1 1
  O       -0.3985850     1.5131790    -0.2845690
  O        2.2066640     0.7149310     0.3161120
  O        1.5078530    -1.3885780    -0.2413420
  C       -1.2053190    -0.7120700     0.1148020
  C       -2.6123310    -0.1342710     0.1051660
  C       -0.1229610     0.3296160    -0.0682900
  C        1.3021484    -0.1428300     0.0106178
  H       -1.0703250    -1.4639250    -0.6703970
  H       -0.9966990    -1.2446330     1.0513490
  H       -2.8226470     0.3633290    -0.8444420
  H       -3.3547600    -0.9237900     0.2511250
  H       -2.7366210     0.6043540     0.9012280
units angstrom
no_reorient  #important for SAPT in psi4, default
symmetry c1  #important for SAPT in psi4, default
}

set PROPERTIES_ORIGIN ["COM"]
properties('MP2/aug-cc-pvtz', properties = ['dipole'])
--------------------------------------------------------------------------

    Molecular point group: c1
  Charge       = -1
  Multiplicity = 1
  Basis Set: AUG-CC-PVTZ
    Blend: AUG-CC-PVTZ
  Basis Set: (AUG-CC-PVTZ AUX)
    Blend: AUG-CC-PVTZ-JKFIT

    Orbital Energies [Eh]
    ---------------------

    Doubly Occupied:

       1A    -20.403871     2A    -20.319665     3A    -20.313319
       4A    -11.178774     5A    -11.162116     6A    -11.103933
       7A    -11.102454     8A     -1.231578     9A     -1.167926
      10A     -1.071102    11A     -0.924053    12A     -0.786325
      13A     -0.676463    14A     -0.552716    15A     -0.500319
      16A     -0.493403    17A     -0.466967    18A     -0.422496
      19A     -0.407133    20A     -0.390648    21A     -0.386623
      22A     -0.359855    23A     -0.328977    24A     -0.310662
      25A     -0.225704    26A     -0.221154    27A     -0.202551

  @DF-RHF Final Energy:  -379.14451804948885

   => Energetics <=

    Nuclear Repulsion Energy =            284.9654814484179610
    One-Electron Energy =               -1094.7984236785252961
    Two-Electron Energy =                 430.6884241806185400
    Total Energy =                       -379.1445180494888518
  Basis Set: (AUG-CC-PVTZ AUX)
    Blend: AUG-CC-PVTZ-RI
    Molecular point group: c1

    Geometry (in Angstrom), charge = -1, multiplicity = 1:

       Center              X                  Y                   Z               Mass
    ------------   -----------------  -----------------  -----------------  -----------------
         O           -0.500635327695     1.485184956629    -0.277502213467    15.994914619570
         O            2.104613672305     0.686936956629     0.323178786533    15.994914619570
         O            1.405802672305    -1.416572043371    -0.234275213467    15.994914619570
         C           -1.307369327695    -0.740064043371     0.121868786533    12.000000000000
         C           -2.714381327695    -0.162265043371     0.112232786533    12.000000000000
         C           -0.225011327695     0.301621956629    -0.061223213467    12.000000000000
         C            1.200098072305    -0.170824043371     0.017684586533    12.000000000000
         H           -1.172375327695    -1.491919043371    -0.663330213467     1.007825032230
         H           -1.098749327695    -1.272627043371     1.058415786533     1.007825032230
         H           -2.924697327695     0.335334956629    -0.837375213467     1.007825032230
         H           -3.456810327695    -0.951784043371     0.258191786533     1.007825032230
         H           -2.838671327695     0.576359956629     0.908294786533     1.007825032230

  Basis Set: AUG-CC-PVTZ
    Blend: AUG-CC-PVTZ
  Basis Set: (AUG-CC-PVTZ AUX)
    Blend: AUG-CC-PVTZ-JKFIT
	 Reference Energy          =    -379.1445180494888518 [Eh]
	 Singles Energy            =      -0.0000000000000000 [Eh]
	 Same-Spin Energy          =      -0.3747340681972563 [Eh]
	 Opposite-Spin Energy      =      -1.1420938948677757 [Eh]
	 Correlation Energy        =      -1.5168279630650319 [Eh]
	 Total Energy              =    -380.6613460125539063 [Eh]

	 ================> DF-SCS-MP2 Energies <==================
	-----------------------------------------------------------
	 SCS Same-Spin Scale       =       0.3333333333333333 [-]
	 SCS Opposite-Spin Scale   =       1.2000000000000000 [-]
	 SCS Same-Spin Energy      =      -0.1249113560657521 [Eh]
	 SCS Opposite-Spin Energy  =      -1.3705126738413307 [Eh]
	 SCS Correlation Energy    =      -1.4954240299070827 [Eh]
	 SCS Total Energy          =    -380.6399420793959507 [Eh]
	-----------------------------------------------------------

  Dipole Moment: [D]
     X:    -7.0894      Y:    -0.8700      Z:     0.2245     Total:     7.1461

*** Psi4 exiting successfully. Buy a developer a beer!
