                               Psi4 1.3.2 release

  ==> Input File <==

--------------------------------------------------------------------------
#psi4
#
memory 32 gb

molecule  {
-1 1
  O       -0.4223990     1.5478120    -0.0024970
  O        2.1614890     0.8044316     0.0028028
  O        1.4389110    -1.4330490    -0.0022200
  C       -1.1980010    -0.7166360     0.0011530
  C       -2.6041790    -0.1343280     0.0009050
  C       -0.1110720     0.3537600    -0.0005690
  C        1.3671270    -0.1674410     0.0000880
  H       -1.0203320    -1.3658690    -0.8629620
  H       -1.0198480    -1.3637170     0.8668160
  H       -2.7610710     0.4967440    -0.8780030
  H       -3.3633830    -0.9249560     0.0021580
  H       -2.7605070     0.4989750     0.8783160
units angstrom
no_reorient  #important for SAPT in psi4, default
symmetry c1  #important for SAPT in psi4, default
}

set PROPERTIES_ORIGIN ["COM"]
properties('MP2/aug-cc-pvtz', properties = ['dipole'])
--------------------------------------------------------------------------

    Molecular point group: c1
  Charge       = -1
  Multiplicity = 1
  Basis Set: AUG-CC-PVTZ
    Blend: AUG-CC-PVTZ
  Basis Set: (AUG-CC-PVTZ AUX)
    Blend: AUG-CC-PVTZ-JKFIT

    Orbital Energies [Eh]
    ---------------------

    Doubly Occupied:

       1A    -20.392724     2A    -20.328676     3A    -20.321513
       4A    -11.167385     5A    -11.164462     6A    -11.095539
       7A    -11.090512     8A     -1.222070     9A     -1.180869
      10A     -1.102248    11A     -0.910888    12A     -0.767684
      13A     -0.652322    14A     -0.540847    15A     -0.490828
      16A     -0.488915    17A     -0.468845    18A     -0.425902
      19A     -0.401242    20A     -0.397190    21A     -0.378786
      22A     -0.360128    23A     -0.327839    24A     -0.307089
      25A     -0.244692    26A     -0.219503    27A     -0.202030

  @DF-RHF Final Energy:  -379.14767846684339

   => Energetics <=

    Nuclear Repulsion Energy =            285.5927007207496899
    One-Electron Energy =               -1096.1792990664748686
    Two-Electron Energy =                 431.4389198788817907
    Total Energy =                       -379.1476784668433879
  Basis Set: (AUG-CC-PVTZ AUX)
    Blend: AUG-CC-PVTZ-RI
    Molecular point group: c1

    Geometry (in Angstrom), charge = -1, multiplicity = 1:

       Center              X                  Y                   Z               Mass
    ------------   -----------------  -----------------  -----------------  -----------------
         O           -0.514136964160     1.507751459760    -0.002444349351    15.994914619570
         O            2.069751035840     0.764371059760     0.002855450649    15.994914619570
         O            1.347173035840    -1.473109540240    -0.002167349351    15.994914619570
         C           -1.289738964160    -0.756696540240     0.001205650649    12.000000000000
         C           -2.695916964160    -0.174388540240     0.000957650649    12.000000000000
         C           -0.202809964160     0.313699459760    -0.000516349351    12.000000000000
         C            1.275389035840    -0.207501540240     0.000140650649    12.000000000000
         H           -1.112069964160    -1.405929540240    -0.862909349351     1.007825032230
         H           -1.111585964160    -1.403777540240     0.866868650649     1.007825032230
         H           -2.852808964160     0.456683459760    -0.877950349351     1.007825032230
         H           -3.455120964160    -0.965016540240     0.002210650649     1.007825032230
         H           -2.852244964160     0.458914459760     0.878368650649     1.007825032230

  Basis Set: AUG-CC-PVTZ
    Blend: AUG-CC-PVTZ
  Basis Set: (AUG-CC-PVTZ AUX)
    Blend: AUG-CC-PVTZ-JKFIT
	 Reference Energy          =    -379.1476784668433879 [Eh]
	 Singles Energy            =      -0.0000000000000000 [Eh]
	 Same-Spin Energy          =      -0.3740960708503709 [Eh]
	 Opposite-Spin Energy      =      -1.1400327288647281 [Eh]
	 Correlation Energy        =      -1.5141287997150989 [Eh]
	 Total Energy              =    -380.6618072665584691 [Eh]

	 ================> DF-SCS-MP2 Energies <==================
	-----------------------------------------------------------
	 SCS Same-Spin Scale       =       0.3333333333333333 [-]
	 SCS Opposite-Spin Scale   =       1.2000000000000000 [-]
	 SCS Same-Spin Energy      =      -0.1246986902834570 [Eh]
	 SCS Opposite-Spin Energy  =      -1.3680392746376737 [Eh]
	 SCS Correlation Energy    =      -1.4927379649211308 [Eh]
	 SCS Total Energy          =    -380.6404164317644927 [Eh]
	-----------------------------------------------------------

  Dipole Moment: [D]
     X:    -6.2464      Y:    -0.9565      Z:     0.0022     Total:     6.3192

*** Psi4 exiting successfully. Buy a developer a beer!
