                               Psi4 1.3.2 release

  ==> Input File <==

--------------------------------------------------------------------------
#psi4
#
memory 32 gb

molecule  {
-1 1
  O       -0.4223990     1.5478120    -0.0024970
  O        2.2587260     0.7160740     0.0027440
  O        1.4389110    -1.4330490    -0.0022200
  C       -1.0801597    -0.8243872     0.0013058
  C       -2.6041790    -0.1343280     0.0009050
  C       -0.1110720     0.3537600    -0.0005690
  C        1.3671270    -0.1674410     0.0000880
  H       -1.0203320    -1.3658690    -0.8629620
  H       -1.0198480    -1.3637170     0.8668160
  H       -2.7610710     0.4967440    -0.8780030
  H       -3.3633830    -0.9249560     0.0021580
  H       -2.7605070     0.4989750     0.8783160
units angstrom
no_reorient  #important for SAPT in psi4, default
symmetry c1  #important for SAPT in psi4, default
}

set PROPERTIES_ORIGIN ["COM"]
properties('MP2/aug-cc-pvtz', properties = ['dipole'])
--------------------------------------------------------------------------

    Molecular point group: c1
  Charge       = -1
  Multiplicity = 1
  Basis Set: AUG-CC-PVTZ
    Blend: AUG-CC-PVTZ
  Basis Set: (AUG-CC-PVTZ AUX)
    Blend: AUG-CC-PVTZ-JKFIT

    Orbital Energies [Eh]
    ---------------------

    Doubly Occupied:

       1A    -20.404910     2A    -20.322205     3A    -20.316369
       4A    -11.175619     5A    -11.160785     6A    -11.099288
       7A    -11.092710     8A     -1.227763     9A     -1.181883
      10A     -1.092593    11A     -0.899009    12A     -0.772727
      13A     -0.664508    14A     -0.544049    15A     -0.507439
      16A     -0.491656    17A     -0.470419    18A     -0.419307
      19A     -0.404133    20A     -0.395477    21A     -0.380979
      22A     -0.343891    23A     -0.337583    24A     -0.314473
      25A     -0.235142    26A     -0.213370    27A     -0.206126

  @DF-RHF Final Energy:  -379.12982261065054

   => Energetics <=

    Nuclear Repulsion Energy =            284.3935138981400996
    One-Electron Energy =               -1093.6978441716869384
    Two-Electron Energy =                 430.1745076628963034
    Total Energy =                       -379.1298226106505354
  Basis Set: (AUG-CC-PVTZ AUX)
    Blend: AUG-CC-PVTZ-RI
    Molecular point group: c1

    Geometry (in Angstrom), charge = -1, multiplicity = 1:

       Center              X                  Y                   Z               Mass
    ------------   -----------------  -----------------  -----------------  -----------------
         O           -0.543529949617     1.534540046400    -0.002453189827    15.994914619570
         O            2.137595050383     0.702802046400     0.002787810173    15.994914619570
         O            1.317780050383    -1.446320953600    -0.002176189827    15.994914619570
         C           -1.201290649617    -0.837659153600     0.001349610173    12.000000000000
         C           -2.725309949617    -0.147599953600     0.000948810173    12.000000000000
         C           -0.232202949617     0.340488046400    -0.000525189827    12.000000000000
         C            1.245996050383    -0.180712953600     0.000131810173    12.000000000000
         H           -1.141462949617    -1.379140953600    -0.862918189827     1.007825032230
         H           -1.140978949617    -1.376988953600     0.866859810173     1.007825032230
         H           -2.882201949617     0.483472046400    -0.877959189827     1.007825032230
         H           -3.484513949617    -0.938227953600     0.002201810173     1.007825032230
         H           -2.881637949617     0.485703046400     0.878359810173     1.007825032230

  Basis Set: AUG-CC-PVTZ
    Blend: AUG-CC-PVTZ
  Basis Set: (AUG-CC-PVTZ AUX)
    Blend: AUG-CC-PVTZ-JKFIT
	 Reference Energy          =    -379.1298226106505354 [Eh]
	 Singles Energy            =      -0.0000000000000000 [Eh]
	 Same-Spin Energy          =      -0.3735171394046795 [Eh]
	 Opposite-Spin Energy      =      -1.1406335895098965 [Eh]
	 Correlation Energy        =      -1.5141507289145759 [Eh]
	 Total Energy              =    -380.6439733395650933 [Eh]

	 ================> DF-SCS-MP2 Energies <==================
	-----------------------------------------------------------
	 SCS Same-Spin Scale       =       0.3333333333333333 [-]
	 SCS Opposite-Spin Scale   =       1.2000000000000000 [-]
	 SCS Same-Spin Energy      =      -0.1245057131348932 [Eh]
	 SCS Opposite-Spin Energy  =      -1.3687603074118757 [Eh]
	 SCS Correlation Energy    =      -1.4932660205467689 [Eh]
	 SCS Total Energy          =    -380.6230886311972768 [Eh]
	-----------------------------------------------------------

  Dipole Moment: [D]
     X:    -6.3549      Y:    -0.8868      Z:     0.0023     Total:     6.4165

*** Psi4 exiting successfully. Buy a developer a beer!
