                               Psi4 1.3.2 release

  ==> Input File <==

--------------------------------------------------------------------------
#psi4
#
memory 32 gb

molecule  {
-1 1
  O       -0.4223990     1.5478120    -0.0024970
  O        2.3461945     0.6180365     0.0026561
  O        1.4389110    -1.4330490    -0.0022200
  C       -1.1980010    -0.7166360     0.0011530
  C       -2.6041790    -0.1343280     0.0009050
  C       -0.1110720     0.3537600    -0.0005690
  C        1.3671270    -0.1674410     0.0000880
  H       -1.0203320    -1.3658690    -0.8629620
  H       -1.0198480    -1.3637170     0.8668160
  H       -2.7610710     0.4967440    -0.8780030
  H       -3.3633830    -0.9249560     0.0021580
  H       -2.7605070     0.4989750     0.8783160
units angstrom
no_reorient  #important for SAPT in psi4, default
symmetry c1  #important for SAPT in psi4, default
}

set PROPERTIES_ORIGIN ["COM"]
properties('MP2/aug-cc-pvtz', properties = ['dipole'])
--------------------------------------------------------------------------

    Molecular point group: c1
  Charge       = -1
  Multiplicity = 1
  Basis Set: AUG-CC-PVTZ
    Blend: AUG-CC-PVTZ
  Basis Set: (AUG-CC-PVTZ AUX)
    Blend: AUG-CC-PVTZ-JKFIT

    Orbital Energies [Eh]
    ---------------------

    Doubly Occupied:

       1A    -20.404656     2A    -20.315259     3A    -20.314223
       4A    -11.180467     5A    -11.161993     6A    -11.100745
       7A    -11.097927     8A     -1.230355     9A     -1.183123
      10A     -1.082747    11A     -0.917162    12A     -0.774897
      13A     -0.660693    14A     -0.548519    15A     -0.494584
      16A     -0.493046    17A     -0.471161    18A     -0.420596
      19A     -0.402555    20A     -0.396751    21A     -0.384187
      22A     -0.360866    23A     -0.335296    24A     -0.314988
      25A     -0.227485    26A     -0.214758    27A     -0.207091

  @DF-RHF Final Energy:  -379.15001782040292

   => Energetics <=

    Nuclear Repulsion Energy =            284.1645349565160359
    One-Electron Energy =               -1093.2368493796761868
    Two-Electron Energy =                 429.9222966027572284
    Total Energy =                       -379.1500178204029226
  Basis Set: (AUG-CC-PVTZ AUX)
    Blend: AUG-CC-PVTZ-RI
    Molecular point group: c1

    Geometry (in Angstrom), charge = -1, multiplicity = 1:

       Center              X                  Y                   Z               Mass
    ------------   -----------------  -----------------  -----------------  -----------------
         O           -0.543381030250     1.537263036964    -0.002421122623    15.994914619570
         O            2.225212469750     0.607487536963     0.002731977377    15.994914619570
         O            1.317928969750    -1.443597963037    -0.002144122623    15.994914619570
         C           -1.318983030250    -0.727184963037     0.001228877377    12.000000000000
         C           -2.725161030250    -0.144876963036     0.000980877377    12.000000000000
         C           -0.232054030250     0.343211036964    -0.000493122623    12.000000000000
         C            1.246144969750    -0.177989963036     0.000163877377    12.000000000000
         H           -1.141314030250    -1.376417963036    -0.862886122623     1.007825032230
         H           -1.140830030250    -1.374265963037     0.866891877377     1.007825032230
         H           -2.882053030250     0.486195036964    -0.877927122623     1.007825032230
         H           -3.484365030250    -0.935504963036     0.002233877377     1.007825032230
         H           -2.881489030250     0.488426036963     0.878391877377     1.007825032230

  Basis Set: AUG-CC-PVTZ
    Blend: AUG-CC-PVTZ
  Basis Set: (AUG-CC-PVTZ AUX)
    Blend: AUG-CC-PVTZ-JKFIT
	 Reference Energy          =    -379.1500178204029226 [Eh]
	 Singles Energy            =      -0.0000000000000000 [Eh]
	 Same-Spin Energy          =      -0.3735273741869994 [Eh]
	 Opposite-Spin Energy      =      -1.1395529110533320 [Eh]
	 Correlation Energy        =      -1.5130802852403313 [Eh]
	 Total Energy              =    -380.6630981056432574 [Eh]

	 ================> DF-SCS-MP2 Energies <==================
	-----------------------------------------------------------
	 SCS Same-Spin Scale       =       0.3333333333333333 [-]
	 SCS Opposite-Spin Scale   =       1.2000000000000000 [-]
	 SCS Same-Spin Energy      =      -0.1245091247289998 [Eh]
	 SCS Opposite-Spin Energy  =      -1.3674634932639984 [Eh]
	 SCS Correlation Energy    =      -1.4919726179929982 [Eh]
	 SCS Total Energy          =    -380.6419904383959079 [Eh]
	-----------------------------------------------------------

  Dipole Moment: [D]
     X:    -6.8704      Y:    -0.6801      Z:     0.0025     Total:     6.9039

*** Psi4 exiting successfully. Buy a developer a beer!
