                               Psi4 1.3.2 release

  ==> Input File <==

--------------------------------------------------------------------------
#psi4
#
memory 32 gb

molecule  {
-1 1
  O       -0.4015125     1.5530635    -0.0025054
  O        2.2587260     0.7160740     0.0027440
  O        1.4389110    -1.4330490    -0.0022200
  C       -1.1980010    -0.7166360     0.0011530
  C       -2.6041790    -0.1343280     0.0009050
  C       -0.1110720     0.3537600    -0.0005690
  C        1.3671270    -0.1674410     0.0000880
  H       -1.0203320    -1.3658690    -0.8629620
  H       -1.0198480    -1.3637170     0.8668160
  H       -2.7610710     0.4967440    -0.8780030
  H       -3.3633830    -0.9249560     0.0021580
  H       -2.7605070     0.4989750     0.8783160
units angstrom
no_reorient  #important for SAPT in psi4, default
symmetry c1  #important for SAPT in psi4, default
}

set PROPERTIES_ORIGIN ["COM"]
properties('MP2/aug-cc-pvtz', properties = ['dipole'])
--------------------------------------------------------------------------

    Molecular point group: c1
  Charge       = -1
  Multiplicity = 1
  Basis Set: AUG-CC-PVTZ
    Blend: AUG-CC-PVTZ
  Basis Set: (AUG-CC-PVTZ AUX)
    Blend: AUG-CC-PVTZ-JKFIT

    Orbital Energies [Eh]
    ---------------------

    Doubly Occupied:

       1A    -20.398961     2A    -20.321408     3A    -20.317355
       4A    -11.172457     5A    -11.163506     6A    -11.099001
       7A    -11.095418     8A     -1.225746     9A     -1.181087
      10A     -1.092216    11A     -0.915127    12A     -0.771730
      13A     -0.656423    14A     -0.544813    15A     -0.492390
      16A     -0.491087    17A     -0.470224    18A     -0.422833
      19A     -0.401780    20A     -0.397977    21A     -0.382359
      22A     -0.360814    23A     -0.331519    24A     -0.311087
      25A     -0.236402    26A     -0.212992    27A     -0.208266

  @DF-RHF Final Energy:  -379.15209946085201

   => Energetics <=

    Nuclear Repulsion Energy =            284.7637639594051961
    One-Electron Energy =               -1094.4817638289939623
    Two-Electron Energy =                 430.5659004087367521
    Total Energy =                       -379.1520994608520141
  Basis Set: (AUG-CC-PVTZ AUX)
    Blend: AUG-CC-PVTZ-RI
    Molecular point group: c1

    Geometry (in Angstrom), charge = -1, multiplicity = 1:

       Center              X                  Y                   Z               Mass
    ------------   -----------------  -----------------  -----------------  -----------------
         O           -0.511952730421     1.526160988518    -0.002442109705    15.994914619570
         O            2.148285769579     0.689171488518     0.002807290295    15.994914619570
         O            1.328470769579    -1.459951511482    -0.002156709705    15.994914619570
         C           -1.308441230421    -0.743538511482     0.001216290295    12.000000000000
         C           -2.714619230421    -0.161230511482     0.000968290295    12.000000000000
         C           -0.221512230421     0.326857488518    -0.000505709705    12.000000000000
         C            1.256686769579    -0.194343511482     0.000151290295    12.000000000000
         H           -1.130772230421    -1.392771511482    -0.862898709705     1.007825032230
         H           -1.130288230421    -1.390619511482     0.866879290295     1.007825032230
         H           -2.871511230421     0.469841488518    -0.877939709705     1.007825032230
         H           -3.473823230421    -0.951858511482     0.002221290295     1.007825032230
         H           -2.870947230421     0.472072488518     0.878379290295     1.007825032230

  Basis Set: AUG-CC-PVTZ
    Blend: AUG-CC-PVTZ
  Basis Set: (AUG-CC-PVTZ AUX)
    Blend: AUG-CC-PVTZ-JKFIT
	 Reference Energy          =    -379.1520994608520141 [Eh]
	 Singles Energy            =      -0.0000000000000000 [Eh]
	 Same-Spin Energy          =      -0.3736416672084714 [Eh]
	 Opposite-Spin Energy      =      -1.1395088736463939 [Eh]
	 Correlation Energy        =      -1.5131505408548653 [Eh]
	 Total Energy              =    -380.6652500017068519 [Eh]

	 ================> DF-SCS-MP2 Energies <==================
	-----------------------------------------------------------
	 SCS Same-Spin Scale       =       0.3333333333333333 [-]
	 SCS Opposite-Spin Scale   =       1.2000000000000000 [-]
	 SCS Same-Spin Energy      =      -0.1245472224028238 [Eh]
	 SCS Opposite-Spin Energy  =      -1.3674106483756725 [Eh]
	 SCS Correlation Energy    =      -1.4919578707784962 [Eh]
	 SCS Total Energy          =    -380.6440573316305063 [Eh]
	-----------------------------------------------------------

  Dipole Moment: [D]
     X:    -6.6206      Y:    -0.8342      Z:     0.0024     Total:     6.6730

*** Psi4 exiting successfully. Buy a developer a beer!
