                               Psi4 1.3.2 release

  ==> Input File <==

--------------------------------------------------------------------------
#psi4
#
memory 32 gb

molecule  {
1 1
  N        0.2769550    -0.2036720    -0.3241330
  C       -0.2734970     1.1052870     0.1974480
  C       -0.8203032    -1.2294673    -0.0318790
  C       -1.7487720     1.0080340    -0.1478690
  C       -2.0899640    -0.4391570     0.2222400
  C        1.6014160    -0.6227950     0.2602130
  C        2.7021640     0.3718760    -0.0544870
  H        0.4198120    -0.0821770    -1.3354460
  H        0.2647170     1.9344670    -0.2636010
  H       -0.1049550     1.1121840     1.2781340
  H       -0.5119850    -1.9240980     0.6516280
  H       -0.9170180    -1.8004520    -1.0710850
  H       -1.9040400     1.1951860    -1.2159660
  H       -2.3418250     1.7391150     0.4059550
  H       -2.2892440    -0.5166410     1.2941000
  H       -2.9682270    -0.8151510    -0.3061210
  H        1.4364190    -0.7316030     1.3351050
  H        1.8217380    -1.6082590    -0.1583240
  H        2.8177600     0.5164630    -1.1327800
  H        2.5337300     1.3397110     0.4209800
  H        3.6474560    -0.0228690     0.3252770
units angstrom
no_reorient  #important for SAPT in psi4, default
symmetry c1  #important for SAPT in psi4, default
}

set PROPERTIES_ORIGIN ["COM"]
properties('MP2/aug-cc-pvtz', properties = ['dipole'])
--------------------------------------------------------------------------

    Molecular point group: c1
  Charge       = 1
  Multiplicity = 1
  Basis Set: AUG-CC-PVTZ
    Blend: AUG-CC-PVTZ
  Basis Set: (AUG-CC-PVTZ AUX)
    Blend: AUG-CC-PVTZ-JKFIT

    Orbital Energies [Eh]
    ---------------------

    Doubly Occupied:

       1A    -15.850984     2A    -11.452841     3A    -11.451608
       4A    -11.449967     5A    -11.394028     6A    -11.390981
       7A    -11.381648     8A     -1.491869     9A     -1.261291
      10A     -1.182134    11A     -1.178085    12A     -1.040454
      13A     -1.029598    14A     -0.980978    15A     -0.901329
      16A     -0.858591    17A     -0.823155    18A     -0.789789
      19A     -0.775273    20A     -0.758578    21A     -0.731695
      22A     -0.698743    23A     -0.686713    24A     -0.675878
      25A     -0.672951    26A     -0.665871    27A     -0.658194
      28A     -0.632975

  @DF-RHF Final Energy:  -289.69285708321536

   => Energetics <=

    Nuclear Repulsion Energy =            340.3975490138157056
    One-Electron Energy =               -1054.4484126087049845
    Two-Electron Energy =                 424.3580065116739206
    Total Energy =                       -289.6928570832153582
  Basis Set: (AUG-CC-PVTZ AUX)
    Blend: AUG-CC-PVTZ-RI
    Molecular point group: c1

    Geometry (in Angstrom), charge = 1, multiplicity = 1:

       Center              X                  Y                   Z               Mass
    ------------   -----------------  -----------------  -----------------  -----------------
         N            0.294435448069    -0.201792142698    -0.334509039984    14.003074004430
         C           -0.256016551931     1.107166857302     0.187071960016    12.000000000000
         C           -0.802822751931    -1.227587442698    -0.042255039984    12.000000000000
         C           -1.731291551931     1.009913857302    -0.158245039984    12.000000000000
         C           -2.072483551931    -0.437277142698     0.211863960016    12.000000000000
         C            1.618896448069    -0.620915142698     0.249836960016    12.000000000000
         C            2.719644448069     0.373755857302    -0.064863039984    12.000000000000
         H            0.437292448069    -0.080297142698    -1.345822039984     1.007825032230
         H            0.282197448069     1.936346857302    -0.273977039984     1.007825032230
         H           -0.087474551931     1.114063857302     1.267757960016     1.007825032230
         H           -0.494504551931    -1.922218142698     0.641251960016     1.007825032230
         H           -0.899537551931    -1.798572142698    -1.081461039984     1.007825032230
         H           -1.886559551931     1.197065857302    -1.226342039984     1.007825032230
         H           -2.324344551931     1.740994857302     0.395578960016     1.007825032230
         H           -2.271763551931    -0.514761142698     1.283723960016     1.007825032230
         H           -2.950746551931    -0.813271142698    -0.316497039984     1.007825032230
         H            1.453899448069    -0.729723142698     1.324728960016     1.007825032230
         H            1.839218448069    -1.606379142698    -0.168700039984     1.007825032230
         H            2.835240448069     0.518342857302    -1.143156039984     1.007825032230
         H            2.551210448069     1.341590857302     0.410603960016     1.007825032230
         H            3.664936448069    -0.020989142698     0.314900960016     1.007825032230

  Basis Set: AUG-CC-PVTZ
    Blend: AUG-CC-PVTZ
  Basis Set: (AUG-CC-PVTZ AUX)
    Blend: AUG-CC-PVTZ-JKFIT
	 Reference Energy          =    -289.6928570832153582 [Eh]
	 Singles Energy            =      -0.0000000000000000 [Eh]
	 Same-Spin Energy          =      -0.3036038319794325 [Eh]
	 Opposite-Spin Energy      =      -1.0935312800274688 [Eh]
	 Correlation Energy        =      -1.3971351120069013 [Eh]
	 Total Energy              =    -291.0899921952222371 [Eh]

	 ================> DF-SCS-MP2 Energies <==================
	-----------------------------------------------------------
	 SCS Same-Spin Scale       =       0.3333333333333333 [-]
	 SCS Opposite-Spin Scale   =       1.2000000000000000 [-]
	 SCS Same-Spin Energy      =      -0.1012012773264775 [Eh]
	 SCS Opposite-Spin Energy  =      -1.3122375360329626 [Eh]
	 SCS Correlation Energy    =      -1.4134388133594400 [Eh]
	 SCS Total Energy          =    -291.1062958965748066 [Eh]
	-----------------------------------------------------------

  Dipole Moment: [D]
     X:     0.7274      Y:    -0.4539      Z:    -0.6836     Total:     1.0965

*** Psi4 exiting successfully. Buy a developer a beer!
