                               Psi4 1.3.2 release

  ==> Input File <==

--------------------------------------------------------------------------
#psi4
#
memory 32 gb

molecule  {
1 1
  N        0.2769550    -0.2036720    -0.3241330
  C       -0.2734970     1.1052870     0.1974480
  C       -0.8318510    -1.2416080    -0.1373660
  C       -1.7487720     1.0080340    -0.1478690
  C       -2.0899640    -0.4391570     0.2222400
  C        1.5788577    -0.6245695     0.3077023
  C        2.7021640     0.3718760    -0.0544870
  H        0.4198120    -0.0821770    -1.3354460
  H        0.2647170     1.9344670    -0.2636010
  H       -0.1049550     1.1121840     1.2781340
  H       -0.5119850    -1.9240980     0.6516280
  H       -0.9170180    -1.8004520    -1.0710850
  H       -1.9040400     1.1951860    -1.2159660
  H       -2.3418250     1.7391150     0.4059550
  H       -2.2892440    -0.5166410     1.2941000
  H       -2.9682270    -0.8151510    -0.3061210
  H        1.4364190    -0.7316030     1.3351050
  H        1.8217380    -1.6082590    -0.1583240
  H        2.8177600     0.5164630    -1.1327800
  H        2.5337300     1.3397110     0.4209800
  H        3.6474560    -0.0228690     0.3252770
units angstrom
no_reorient  #important for SAPT in psi4, default
symmetry c1  #important for SAPT in psi4, default
}

set PROPERTIES_ORIGIN ["COM"]
properties('MP2/aug-cc-pvtz', properties = ['dipole'])
--------------------------------------------------------------------------

    Molecular point group: c1
  Charge       = 1
  Multiplicity = 1
  Basis Set: AUG-CC-PVTZ
    Blend: AUG-CC-PVTZ
  Basis Set: (AUG-CC-PVTZ AUX)
    Blend: AUG-CC-PVTZ-JKFIT

    Orbital Energies [Eh]
    ---------------------

    Doubly Occupied:

       1A    -15.850199     2A    -11.450594     3A    -11.450085
       4A    -11.449513     5A    -11.393079     6A    -11.391122
       7A    -11.382648     8A     -1.490929     9A     -1.257709
      10A     -1.181795    11A     -1.173448    12A     -1.040656
      13A     -1.027777    14A     -0.981110    15A     -0.901832
      16A     -0.855658    17A     -0.823789    18A     -0.785471
      19A     -0.779845    20A     -0.759215    21A     -0.727846
      22A     -0.693795    23A     -0.692638    24A     -0.679160
      25A     -0.672339    26A     -0.660106    27A     -0.654848
      28A     -0.642601

  @DF-RHF Final Energy:  -289.70304773712320

   => Energetics <=

    Nuclear Repulsion Energy =            339.9900157100821616
    One-Electron Energy =               -1053.6865059741214736
    Two-Electron Energy =                 423.9934425269161125
    Total Energy =                       -289.7030477371231996
  Basis Set: (AUG-CC-PVTZ AUX)
    Blend: AUG-CC-PVTZ-RI
    Molecular point group: c1

    Geometry (in Angstrom), charge = 1, multiplicity = 1:

       Center              X                  Y                   Z               Mass
    ------------   -----------------  -----------------  -----------------  -----------------
         N            0.298523575838    -0.200124197213    -0.327557145517    14.003074004430
         C           -0.251928424162     1.108834802787     0.194023854483    12.000000000000
         C           -0.810282424162    -1.238060197213    -0.140790145517    12.000000000000
         C           -1.727203424162     1.011581802787    -0.151293145517    12.000000000000
         C           -2.068395424162    -0.435609197213     0.218815854483    12.000000000000
         C            1.600426275838    -0.621021697213     0.304278154483    12.000000000000
         C            2.723732575838     0.375423802787    -0.057911145517    12.000000000000
         H            0.441380575838    -0.078629197213    -1.338870145517     1.007825032230
         H            0.286285575838     1.938014802787    -0.267025145517     1.007825032230
         H           -0.083386424162     1.115731802787     1.274709854483     1.007825032230
         H           -0.490416424162    -1.920550197213     0.648203854483     1.007825032230
         H           -0.895449424162    -1.796904197213    -1.074509145517     1.007825032230
         H           -1.882471424162     1.198733802787    -1.219390145517     1.007825032230
         H           -2.320256424162     1.742662802787     0.402530854483     1.007825032230
         H           -2.267675424162    -0.513093197213     1.290675854483     1.007825032230
         H           -2.946658424162    -0.811603197213    -0.309545145517     1.007825032230
         H            1.457987575838    -0.728055197213     1.331680854483     1.007825032230
         H            1.843306575838    -1.604711197213    -0.161748145517     1.007825032230
         H            2.839328575838     0.520010802787    -1.136204145517     1.007825032230
         H            2.555298575838     1.343258802787     0.417555854483     1.007825032230
         H            3.669024575838    -0.019321197213     0.321852854483     1.007825032230

  Basis Set: AUG-CC-PVTZ
    Blend: AUG-CC-PVTZ
  Basis Set: (AUG-CC-PVTZ AUX)
    Blend: AUG-CC-PVTZ-JKFIT
	 Reference Energy          =    -289.7030477371231996 [Eh]
	 Singles Energy            =      -0.0000000000000000 [Eh]
	 Same-Spin Energy          =      -0.3030720864339800 [Eh]
	 Opposite-Spin Energy      =      -1.0927898929997575 [Eh]
	 Correlation Energy        =      -1.3958619794337375 [Eh]
	 Total Energy              =    -291.0989097165569319 [Eh]

	 ================> DF-SCS-MP2 Energies <==================
	-----------------------------------------------------------
	 SCS Same-Spin Scale       =       0.3333333333333333 [-]
	 SCS Opposite-Spin Scale   =       1.2000000000000000 [-]
	 SCS Same-Spin Energy      =      -0.1010240288113267 [Eh]
	 SCS Opposite-Spin Energy  =      -1.3113478715997089 [Eh]
	 SCS Correlation Energy    =      -1.4123719004110356 [Eh]
	 SCS Total Energy          =    -291.1154196375342167 [Eh]
	-----------------------------------------------------------

  Dipole Moment: [D]
     X:     0.7202      Y:    -0.4780      Z:    -0.7044     Total:     1.1150

*** Psi4 exiting successfully. Buy a developer a beer!
