                               Psi4 1.3.2 release

  ==> Input File <==

--------------------------------------------------------------------------
#psi4
#
memory 32 gb

molecule  {
1 1
  N        0.3251177    -0.1184885    -0.3627306
  C       -0.2734970     1.1052870     0.1974480
  C       -0.8318510    -1.2416080    -0.1373660
  C       -1.7487720     1.0080340    -0.1478690
  C       -2.0899640    -0.4391570     0.2222400
  C        1.6014160    -0.6227950     0.2602130
  C        2.7021640     0.3718760    -0.0544870
  H        0.4198120    -0.0821770    -1.3354460
  H        0.2647170     1.9344670    -0.2636010
  H       -0.1049550     1.1121840     1.2781340
  H       -0.5119850    -1.9240980     0.6516280
  H       -0.9170180    -1.8004520    -1.0710850
  H       -1.9040400     1.1951860    -1.2159660
  H       -2.3418250     1.7391150     0.4059550
  H       -2.2892440    -0.5166410     1.2941000
  H       -2.9682270    -0.8151510    -0.3061210
  H        1.4364190    -0.7316030     1.3351050
  H        1.8217380    -1.6082590    -0.1583240
  H        2.8177600     0.5164630    -1.1327800
  H        2.5337300     1.3397110     0.4209800
  H        3.6474560    -0.0228690     0.3252770
units angstrom
no_reorient  #important for SAPT in psi4, default
symmetry c1  #important for SAPT in psi4, default
}

set PROPERTIES_ORIGIN ["COM"]
properties('MP2/aug-cc-pvtz', properties = ['dipole'])
--------------------------------------------------------------------------

    Molecular point group: c1
  Charge       = 1
  Multiplicity = 1
  Basis Set: AUG-CC-PVTZ
    Blend: AUG-CC-PVTZ
  Basis Set: (AUG-CC-PVTZ AUX)
    Blend: AUG-CC-PVTZ-JKFIT

    Orbital Energies [Eh]
    ---------------------

    Doubly Occupied:

       1A    -15.843976     2A    -11.459055     3A    -11.451151
       4A    -11.445840     5A    -11.393837     6A    -11.392895
       7A    -11.377851     8A     -1.489020     9A     -1.259882
      10A     -1.182170    11A     -1.174007    12A     -1.039811
      13A     -1.032927    14A     -0.979928    15A     -0.896369
      16A     -0.854431    17A     -0.829656    18A     -0.787456
      19A     -0.780016    20A     -0.753468    21A     -0.733989
      22A     -0.697576    23A     -0.688048    24A     -0.673175
      25A     -0.669292    26A     -0.660390    27A     -0.654224
      28A     -0.643949

  @DF-RHF Final Energy:  -289.69693984813961

   => Energetics <=

    Nuclear Repulsion Energy =            339.6516435930668081
    One-Electron Energy =               -1053.0083878402640494
    Two-Electron Energy =                 423.6598043990575775
    Total Energy =                       -289.6969398481396070
  Basis Set: (AUG-CC-PVTZ AUX)
    Blend: AUG-CC-PVTZ-RI
    Molecular point group: c1

    Geometry (in Angstrom), charge = 1, multiplicity = 1:

       Center              X                  Y                   Z               Mass
    ------------   -----------------  -----------------  -----------------  -----------------
         N            0.337245653763    -0.127068287125    -0.355063670289    14.003074004430
         C           -0.261369046237     1.096707212875     0.205114929711    12.000000000000
         C           -0.819723046237    -1.250187787125    -0.129699070289    12.000000000000
         C           -1.736644046237     0.999454212875    -0.140202070289    12.000000000000
         C           -2.077836046237    -0.447736787125     0.229906929711    12.000000000000
         C            1.613543953763    -0.631374787125     0.267879929711    12.000000000000
         C            2.714291953763     0.363296212875    -0.046820070289    12.000000000000
         H            0.431939953763    -0.090756787125    -1.327779070289     1.007825032230
         H            0.276844953763     1.925887212875    -0.255934070289     1.007825032230
         H           -0.092827046237     1.103604212875     1.285800929711     1.007825032230
         H           -0.499857046237    -1.932677787125     0.659294929711     1.007825032230
         H           -0.904890046237    -1.809031787125    -1.063418070289     1.007825032230
         H           -1.891912046237     1.186606212875    -1.208299070289     1.007825032230
         H           -2.329697046237     1.730535212875     0.413621929711     1.007825032230
         H           -2.277116046237    -0.525220787125     1.301766929711     1.007825032230
         H           -2.956099046237    -0.823730787125    -0.298454070289     1.007825032230
         H            1.448546953763    -0.740182787125     1.342771929711     1.007825032230
         H            1.833865953763    -1.616838787125    -0.150657070289     1.007825032230
         H            2.829887953763     0.507883212875    -1.125113070289     1.007825032230
         H            2.545857953763     1.331131212875     0.428646929711     1.007825032230
         H            3.659583953763    -0.031448787125     0.332943929711     1.007825032230

  Basis Set: AUG-CC-PVTZ
    Blend: AUG-CC-PVTZ
  Basis Set: (AUG-CC-PVTZ AUX)
    Blend: AUG-CC-PVTZ-JKFIT
	 Reference Energy          =    -289.6969398481396070 [Eh]
	 Singles Energy            =      -0.0000000000000000 [Eh]
	 Same-Spin Energy          =      -0.3031285252479674 [Eh]
	 Opposite-Spin Energy      =      -1.0928997228375648 [Eh]
	 Correlation Energy        =      -1.3960282480855322 [Eh]
	 Total Energy              =    -291.0929680962251496 [Eh]

	 ================> DF-SCS-MP2 Energies <==================
	-----------------------------------------------------------
	 SCS Same-Spin Scale       =       0.3333333333333333 [-]
	 SCS Opposite-Spin Scale   =       1.2000000000000000 [-]
	 SCS Same-Spin Energy      =      -0.1010428417493225 [Eh]
	 SCS Opposite-Spin Energy  =      -1.3114796674050777 [Eh]
	 SCS Correlation Energy    =      -1.4125225091544003 [Eh]
	 SCS Total Energy          =    -291.1094623572940350 [Eh]
	-----------------------------------------------------------

  Dipole Moment: [D]
     X:     0.5785      Y:    -0.6486      Z:    -0.6491     Total:     1.0847

*** Psi4 exiting successfully. Buy a developer a beer!
