                               Psi4 1.3.2 release

  ==> Input File <==

--------------------------------------------------------------------------
#psi4
#
memory 32 gb

molecule  {
1 1
  N        0.3769542    -0.1172830    -0.4113653
  C       -0.2734970     1.1052870     0.1974480
  C       -0.8318510    -1.2416080    -0.1373660
  C       -1.7487720     1.0080340    -0.1478690
  C       -2.0899640    -0.4391570     0.2222400
  C        1.6014160    -0.6227950     0.2602130
  C        2.7021640     0.3718760    -0.0544870
  H        0.4198120    -0.0821770    -1.3354460
  H        0.2647170     1.9344670    -0.2636010
  H       -0.1049550     1.1121840     1.2781340
  H       -0.5119850    -1.9240980     0.6516280
  H       -0.9170180    -1.8004520    -1.0710850
  H       -1.9040400     1.1951860    -1.2159660
  H       -2.3418250     1.7391150     0.4059550
  H       -2.2892440    -0.5166410     1.2941000
  H       -2.9682270    -0.8151510    -0.3061210
  H        1.4364190    -0.7316030     1.3351050
  H        1.8217380    -1.6082590    -0.1583240
  H        2.8177600     0.5164630    -1.1327800
  H        2.5337300     1.3397110     0.4209800
  H        3.6474560    -0.0228690     0.3252770
units angstrom
no_reorient  #important for SAPT in psi4, default
symmetry c1  #important for SAPT in psi4, default
}

set PROPERTIES_ORIGIN ["COM"]
properties('MP2/aug-cc-pvtz', properties = ['dipole'])
--------------------------------------------------------------------------

    Molecular point group: c1
  Charge       = 1
  Multiplicity = 1
  Basis Set: AUG-CC-PVTZ
    Blend: AUG-CC-PVTZ
  Basis Set: (AUG-CC-PVTZ AUX)
    Blend: AUG-CC-PVTZ-JKFIT

    Orbital Energies [Eh]
    ---------------------

    Doubly Occupied:

       1A    -15.837707     2A    -11.462929     3A    -11.449777
       4A    -11.448291     5A    -11.395660     6A    -11.394951
       7A    -11.375143     8A     -1.485892     9A     -1.262074
      10A     -1.182552    11A     -1.170614    12A     -1.046891
      13A     -1.035776    14A     -0.978125    15A     -0.890828
      16A     -0.853356    17A     -0.831931    18A     -0.790034
      19A     -0.784328    20A     -0.754587    21A     -0.727595
      22A     -0.702404    23A     -0.688034    24A     -0.672169
      25A     -0.668859    26A     -0.656838    27A     -0.650198
      28A     -0.642577

  @DF-RHF Final Energy:  -289.68170374948340

   => Energetics <=

    Nuclear Repulsion Energy =            338.9898254232634258
    One-Electron Energy =               -1051.6628173927861098
    Two-Electron Energy =                 422.9912882200392232
    Total Energy =                       -289.6817037494834040
  Basis Set: (AUG-CC-PVTZ AUX)
    Blend: AUG-CC-PVTZ-RI
    Molecular point group: c1

    Geometry (in Angstrom), charge = 1, multiplicity = 1:

       Center              X                  Y                   Z               Mass
    ------------   -----------------  -----------------  -----------------  -----------------
         N            0.381831616185    -0.126031404278    -0.396895678750    14.003074004430
         C           -0.268619583815     1.096538595722     0.211917621250    12.000000000000
         C           -0.826973583815    -1.250356404278    -0.122896378750    12.000000000000
         C           -1.743894583815     0.999285595722    -0.133399378750    12.000000000000
         C           -2.085086583815    -0.447905404278     0.236709621250    12.000000000000
         C            1.606293416185    -0.631543404278     0.274682621250    12.000000000000
         C            2.707041416185     0.363127595722    -0.040017378750    12.000000000000
         H            0.424689416185    -0.090925404278    -1.320976378750     1.007825032230
         H            0.269594416185     1.925718595722    -0.249131378750     1.007825032230
         H           -0.100077583815     1.103435595722     1.292603621250     1.007825032230
         H           -0.507107583815    -1.932846404278     0.666097621250     1.007825032230
         H           -0.912140583815    -1.809200404278    -1.056615378750     1.007825032230
         H           -1.899162583815     1.186437595722    -1.201496378750     1.007825032230
         H           -2.336947583815     1.730366595722     0.420424621250     1.007825032230
         H           -2.284366583815    -0.525389404278     1.308569621250     1.007825032230
         H           -2.963349583815    -0.823899404278    -0.291651378750     1.007825032230
         H            1.441296416185    -0.740351404278     1.349574621250     1.007825032230
         H            1.826615416185    -1.617007404278    -0.143854378750     1.007825032230
         H            2.822637416185     0.507714595722    -1.118310378750     1.007825032230
         H            2.538607416185     1.330962595722     0.435449621250     1.007825032230
         H            3.652333416185    -0.031617404278     0.339746621250     1.007825032230

  Basis Set: AUG-CC-PVTZ
    Blend: AUG-CC-PVTZ
  Basis Set: (AUG-CC-PVTZ AUX)
    Blend: AUG-CC-PVTZ-JKFIT
	 Reference Energy          =    -289.6817037494834040 [Eh]
	 Singles Energy            =      -0.0000000000000000 [Eh]
	 Same-Spin Energy          =      -0.3029296665593946 [Eh]
	 Opposite-Spin Energy      =      -1.0932115500924959 [Eh]
	 Correlation Energy        =      -1.3961412166518905 [Eh]
	 Total Energy              =    -291.0778449661352738 [Eh]

	 ================> DF-SCS-MP2 Energies <==================
	-----------------------------------------------------------
	 SCS Same-Spin Scale       =       0.3333333333333333 [-]
	 SCS Opposite-Spin Scale   =       1.2000000000000000 [-]
	 SCS Same-Spin Energy      =      -0.1009765555197982 [Eh]
	 SCS Opposite-Spin Energy  =      -1.3118538601109950 [Eh]
	 SCS Correlation Energy    =      -1.4128304156307931 [Eh]
	 SCS Total Energy          =    -291.0945341651141689 [Eh]
	-----------------------------------------------------------

  Dipole Moment: [D]
     X:     0.4101      Y:    -0.6453      Z:    -0.5712     Total:     0.9544

*** Psi4 exiting successfully. Buy a developer a beer!
