                               Psi4 1.3.2 release

  ==> Input File <==

--------------------------------------------------------------------------
#psi4
#
memory 32 gb

molecule  {
1 1
  N        0.2769550    -0.2036720    -0.3241330
  C       -0.2743596     1.0949786     0.2217393
  C       -0.8318510    -1.2416080    -0.1373660
  C       -1.7487720     1.0080340    -0.1478690
  C       -2.0899640    -0.4391570     0.2222400
  C        1.6014160    -0.6227950     0.2602130
  C        2.7021640     0.3718760    -0.0544870
  H        0.4198120    -0.0821770    -1.3354460
  H        0.2647170     1.9344670    -0.2636010
  H       -0.1049550     1.1121840     1.2781340
  H       -0.5119850    -1.9240980     0.6516280
  H       -0.9170180    -1.8004520    -1.0710850
  H       -1.9040400     1.1951860    -1.2159660
  H       -2.3418250     1.7391150     0.4059550
  H       -2.2892440    -0.5166410     1.2941000
  H       -2.9682270    -0.8151510    -0.3061210
  H        1.4364190    -0.7316030     1.3351050
  H        1.8217380    -1.6082590    -0.1583240
  H        2.8177600     0.5164630    -1.1327800
  H        2.5337300     1.3397110     0.4209800
  H        3.6474560    -0.0228690     0.3252770
units angstrom
no_reorient  #important for SAPT in psi4, default
symmetry c1  #important for SAPT in psi4, default
}

set PROPERTIES_ORIGIN ["COM"]
properties('MP2/aug-cc-pvtz', properties = ['dipole'])
--------------------------------------------------------------------------

    Molecular point group: c1
  Charge       = 1
  Multiplicity = 1
  Basis Set: AUG-CC-PVTZ
    Blend: AUG-CC-PVTZ
  Basis Set: (AUG-CC-PVTZ AUX)
    Blend: AUG-CC-PVTZ-JKFIT

    Orbital Energies [Eh]
    ---------------------

    Doubly Occupied:

       1A    -15.849990     2A    -11.451380     3A    -11.450194
       4A    -11.449502     5A    -11.393447     6A    -11.391049
       7A    -11.381491     8A     -1.490884     9A     -1.259162
      10A     -1.182852    11A     -1.175046    12A     -1.040108
      13A     -1.026529    14A     -0.980745    15A     -0.900391
      16A     -0.853842    17A     -0.826940    18A     -0.787351
      19A     -0.774675    20A     -0.759585    21A     -0.728602
      22A     -0.696636    23A     -0.688807    24A     -0.680881
      25A     -0.670807    26A     -0.661971    27A     -0.655006
      28A     -0.643778

  @DF-RHF Final Energy:  -289.70529253692337

   => Energetics <=

    Nuclear Repulsion Energy =            340.0768744061680877
    One-Electron Energy =               -1053.8610290788467410
    Two-Electron Energy =                 424.0788621357552302
    Total Energy =                       -289.7052925369233662
  Basis Set: (AUG-CC-PVTZ AUX)
    Blend: AUG-CC-PVTZ-RI
    Molecular point group: c1

    Geometry (in Angstrom), charge = 1, multiplicity = 1:

       Center              X                  Y                   Z               Mass
    ------------   -----------------  -----------------  -----------------  -----------------
         N            0.295923020699    -0.199101281266    -0.324776517185    14.003074004430
         C           -0.255391579301     1.099549318734     0.221095782815    12.000000000000
         C           -0.812882979301    -1.237037281266    -0.138009517185    12.000000000000
         C           -1.729803979301     1.012604718734    -0.148512517185    12.000000000000
         C           -2.070995979301    -0.434586281266     0.221596482815    12.000000000000
         C            1.620384020699    -0.618224281266     0.259569482815    12.000000000000
         C            2.721132020699     0.376446718734    -0.055130517185    12.000000000000
         H            0.438780020699    -0.077606281266    -1.336089517185     1.007825032230
         H            0.283685020699     1.939037718734    -0.264244517185     1.007825032230
         H           -0.085986979301     1.116754718734     1.277490482815     1.007825032230
         H           -0.493016979301    -1.919527281266     0.650984482815     1.007825032230
         H           -0.898049979301    -1.795881281266    -1.071728517185     1.007825032230
         H           -1.885071979301     1.199756718734    -1.216609517185     1.007825032230
         H           -2.322856979301     1.743685718734     0.405311482815     1.007825032230
         H           -2.270275979301    -0.512070281266     1.293456482815     1.007825032230
         H           -2.949258979301    -0.810580281266    -0.306764517185     1.007825032230
         H            1.455387020699    -0.727032281266     1.334461482815     1.007825032230
         H            1.840706020699    -1.603688281266    -0.158967517185     1.007825032230
         H            2.836728020699     0.521033718734    -1.133423517185     1.007825032230
         H            2.552698020699     1.344281718734     0.420336482815     1.007825032230
         H            3.666424020699    -0.018298281266     0.324633482815     1.007825032230

  Basis Set: AUG-CC-PVTZ
    Blend: AUG-CC-PVTZ
  Basis Set: (AUG-CC-PVTZ AUX)
    Blend: AUG-CC-PVTZ-JKFIT
	 Reference Energy          =    -289.7052925369233662 [Eh]
	 Singles Energy            =      -0.0000000000000000 [Eh]
	 Same-Spin Energy          =      -0.3032456328532761 [Eh]
	 Opposite-Spin Energy      =      -1.0928000341198865 [Eh]
	 Correlation Energy        =      -1.3960456669731625 [Eh]
	 Total Energy              =    -291.1013382038965460 [Eh]

	 ================> DF-SCS-MP2 Energies <==================
	-----------------------------------------------------------
	 SCS Same-Spin Scale       =       0.3333333333333333 [-]
	 SCS Opposite-Spin Scale   =       1.2000000000000000 [-]
	 SCS Same-Spin Energy      =      -0.1010818776177587 [Eh]
	 SCS Opposite-Spin Energy  =      -1.3113600409438637 [Eh]
	 SCS Correlation Energy    =      -1.4124419185616224 [Eh]
	 SCS Total Energy          =    -291.1177344554849924 [Eh]
	-----------------------------------------------------------

  Dipole Moment: [D]
     X:     0.7264      Y:    -0.4695      Z:    -0.7015     Total:     1.1136

*** Psi4 exiting successfully. Buy a developer a beer!
