                               Psi4 1.3.2 release

  ==> Input File <==

--------------------------------------------------------------------------
#psi4
#
memory 32 gb

molecule  {
1 1
  N        0.2769550    -0.2036720    -0.3241330
  C       -0.2761499     1.0375701     0.3405555
  C       -0.8318510    -1.2416080    -0.1373660
  C       -1.7487720     1.0080340    -0.1478690
  C       -2.0899640    -0.4391570     0.2222400
  C        1.6014160    -0.6227950     0.2602130
  C        2.7021640     0.3718760    -0.0544870
  H        0.4198120    -0.0821770    -1.3354460
  H        0.2647170     1.9344670    -0.2636010
  H       -0.1049550     1.1121840     1.2781340
  H       -0.5119850    -1.9240980     0.6516280
  H       -0.9170180    -1.8004520    -1.0710850
  H       -1.9040400     1.1951860    -1.2159660
  H       -2.3418250     1.7391150     0.4059550
  H       -2.2892440    -0.5166410     1.2941000
  H       -2.9682270    -0.8151510    -0.3061210
  H        1.4364190    -0.7316030     1.3351050
  H        1.8217380    -1.6082590    -0.1583240
  H        2.8177600     0.5164630    -1.1327800
  H        2.5337300     1.3397110     0.4209800
  H        3.6474560    -0.0228690     0.3252770
units angstrom
no_reorient  #important for SAPT in psi4, default
symmetry c1  #important for SAPT in psi4, default
}

set PROPERTIES_ORIGIN ["COM"]
properties('MP2/aug-cc-pvtz', properties = ['dipole'])
--------------------------------------------------------------------------

    Molecular point group: c1
  Charge       = 1
  Multiplicity = 1
  Basis Set: AUG-CC-PVTZ
    Blend: AUG-CC-PVTZ
  Basis Set: (AUG-CC-PVTZ AUX)
    Blend: AUG-CC-PVTZ-JKFIT

    Orbital Energies [Eh]
    ---------------------

    Doubly Occupied:

       1A    -15.851665     2A    -11.451183     3A    -11.450871
       4A    -11.449454     5A    -11.396369     6A    -11.390079
       7A    -11.380907     8A     -1.491966     9A     -1.258961
      10A     -1.182752    11A     -1.172837    12A     -1.045520
      13A     -1.034320    14A     -0.978238    15A     -0.898258
      16A     -0.855985    17A     -0.836738    18A     -0.798164
      19A     -0.775770    20A     -0.750896    21A     -0.721973
      22A     -0.714066    23A     -0.683768    24A     -0.681735
      25A     -0.668532    26A     -0.658740    27A     -0.647857
      28A     -0.631829

  @DF-RHF Final Energy:  -289.67277132998424

   => Energetics <=

    Nuclear Repulsion Energy =            340.2910056999942867
    One-Electron Energy =               -1054.2086833606842902
    Two-Electron Energy =                 424.2449063307058168
    Total Energy =                       -289.6727713299842435
  Basis Set: (AUG-CC-PVTZ AUX)
    Blend: AUG-CC-PVTZ-RI
    Molecular point group: c1

    Geometry (in Angstrom), charge = 1, multiplicity = 1:

       Center              X                  Y                   Z               Mass
    ------------   -----------------  -----------------  -----------------  -----------------
         N            0.296137615013    -0.192220011259    -0.339018421318    14.003074004430
         C           -0.256967284987     1.049022088741     0.325670078682    12.000000000000
         C           -0.812668384987    -1.230156011259    -0.152251421318    12.000000000000
         C           -1.729589384987     1.019485988741    -0.162754421318    12.000000000000
         C           -2.070781384987    -0.427705011259     0.207354578682    12.000000000000
         C            1.620598615013    -0.611343011259     0.245327578682    12.000000000000
         C            2.721346615013     0.383327988741    -0.069372421318    12.000000000000
         H            0.438994615013    -0.070725011259    -1.350331421318     1.007825032230
         H            0.283899615013     1.945918988741    -0.278486421318     1.007825032230
         H           -0.085772384987     1.123635988741     1.263248578682     1.007825032230
         H           -0.492802384987    -1.912646011259     0.636742578682     1.007825032230
         H           -0.897835384987    -1.789000011259    -1.085970421318     1.007825032230
         H           -1.884857384987     1.206637988741    -1.230851421318     1.007825032230
         H           -2.322642384987     1.750566988741     0.391069578682     1.007825032230
         H           -2.270061384987    -0.505189011259     1.279214578682     1.007825032230
         H           -2.949044384987    -0.803699011259    -0.321006421318     1.007825032230
         H            1.455601615013    -0.720151011259     1.320219578682     1.007825032230
         H            1.840920615013    -1.596807011259    -0.173209421318     1.007825032230
         H            2.836942615013     0.527914988741    -1.147665421318     1.007825032230
         H            2.552912615013     1.351162988741     0.406094578682     1.007825032230
         H            3.666638615013    -0.011417011259     0.310391578682     1.007825032230

  Basis Set: AUG-CC-PVTZ
    Blend: AUG-CC-PVTZ
  Basis Set: (AUG-CC-PVTZ AUX)
    Blend: AUG-CC-PVTZ-JKFIT
	 Reference Energy          =    -289.6727713299842435 [Eh]
	 Singles Energy            =      -0.0000000000000000 [Eh]
	 Same-Spin Energy          =      -0.3037180326807360 [Eh]
	 Opposite-Spin Energy      =      -1.0943311762498251 [Eh]
	 Correlation Energy        =      -1.3980492089305612 [Eh]
	 Total Energy              =    -291.0708205389148020 [Eh]

	 ================> DF-SCS-MP2 Energies <==================
	-----------------------------------------------------------
	 SCS Same-Spin Scale       =       0.3333333333333333 [-]
	 SCS Opposite-Spin Scale   =       1.2000000000000000 [-]
	 SCS Same-Spin Energy      =      -0.1012393442269120 [Eh]
	 SCS Opposite-Spin Energy  =      -1.3131974114997902 [Eh]
	 SCS Correlation Energy    =      -1.4144367557267021 [Eh]
	 SCS Total Energy          =    -291.0872080857109268 [Eh]
	-----------------------------------------------------------

  Dipole Moment: [D]
     X:     0.7040      Y:    -0.4685      Z:    -0.7153     Total:     1.1075

*** Psi4 exiting successfully. Buy a developer a beer!
