                               Psi4 1.3.2 release

  ==> Input File <==

--------------------------------------------------------------------------
#psi4
#
memory 32 gb

molecule  {
1 1
  N        0.2196547    -0.2096897    -0.1772809
  C       -0.2734970     1.1052870     0.1974480
  C       -0.8318510    -1.2416080    -0.1373660
  C       -1.7487720     1.0080340    -0.1478690
  C       -2.0899640    -0.4391570     0.2222400
  C        1.6014160    -0.6227950     0.2602130
  C        2.7021640     0.3718760    -0.0544870
  H        0.4198120    -0.0821770    -1.3354460
  H        0.2647170     1.9344670    -0.2636010
  H       -0.1049550     1.1121840     1.2781340
  H       -0.5119850    -1.9240980     0.6516280
  H       -0.9170180    -1.8004520    -1.0710850
  H       -1.9040400     1.1951860    -1.2159660
  H       -2.3418250     1.7391150     0.4059550
  H       -2.2892440    -0.5166410     1.2941000
  H       -2.9682270    -0.8151510    -0.3061210
  H        1.4364190    -0.7316030     1.3351050
  H        1.8217380    -1.6082590    -0.1583240
  H        2.8177600     0.5164630    -1.1327800
  H        2.5337300     1.3397110     0.4209800
  H        3.6474560    -0.0228690     0.3252770
units angstrom
no_reorient  #important for SAPT in psi4, default
symmetry c1  #important for SAPT in psi4, default
}

set PROPERTIES_ORIGIN ["COM"]
properties('MP2/aug-cc-pvtz', properties = ['dipole'])
--------------------------------------------------------------------------

    Molecular point group: c1
  Charge       = 1
  Multiplicity = 1
  Basis Set: AUG-CC-PVTZ
    Blend: AUG-CC-PVTZ
  Basis Set: (AUG-CC-PVTZ AUX)
    Blend: AUG-CC-PVTZ-JKFIT

    Orbital Energies [Eh]
    ---------------------

    Doubly Occupied:

       1A    -15.860713     2A    -11.454272     3A    -11.447426
       4A    -11.446023     5A    -11.392361     6A    -11.390154
       7A    -11.385204     8A     -1.502041     9A     -1.259933
      10A     -1.193474    11A     -1.175595    12A     -1.045839
      13A     -0.998444    14A     -0.986741    15A     -0.909443
      16A     -0.860802    17A     -0.825280    18A     -0.780133
      19A     -0.772007    20A     -0.757764    21A     -0.738425
      22A     -0.698632    23A     -0.685335    24A     -0.678706
      25A     -0.664911    26A     -0.657824    27A     -0.656358
      28A     -0.641119

  @DF-RHF Final Energy:  -289.67356898999708

   => Energetics <=

    Nuclear Repulsion Energy =            341.3303376741804414
    One-Electron Energy =               -1056.2778910679642195
    Two-Electron Energy =                 425.2739844037866987
    Total Energy =                       -289.6735689899970794
  Basis Set: (AUG-CC-PVTZ AUX)
    Blend: AUG-CC-PVTZ-RI
    Molecular point group: c1

    Geometry (in Angstrom), charge = 1, multiplicity = 1:

       Center              X                  Y                   Z               Mass
    ------------   -----------------  -----------------  -----------------  -----------------
         N            0.246534101962    -0.205512882652    -0.195553414862    14.003074004430
         C           -0.246617598038     1.109463817348     0.179175485138    12.000000000000
         C           -0.804971598038    -1.237431182652    -0.155638514862    12.000000000000
         C           -1.721892598038     1.012210817348    -0.166141514862    12.000000000000
         C           -2.063084598038    -0.434980182652     0.203967485138    12.000000000000
         C            1.628295401962    -0.618618182652     0.241940485138    12.000000000000
         C            2.729043401962     0.376052817348    -0.072759514862    12.000000000000
         H            0.446691401962    -0.078000182652    -1.353718514862     1.007825032230
         H            0.291596401962     1.938643817348    -0.281873514862     1.007825032230
         H           -0.078075598038     1.116360817348     1.259861485138     1.007825032230
         H           -0.485105598038    -1.919921182652     0.633355485138     1.007825032230
         H           -0.890138598038    -1.796275182652    -1.089357514862     1.007825032230
         H           -1.877160598038     1.199362817348    -1.234238514862     1.007825032230
         H           -2.314945598038     1.743291817348     0.387682485138     1.007825032230
         H           -2.262364598038    -0.512464182652     1.275827485138     1.007825032230
         H           -2.941347598038    -0.810974182652    -0.324393514862     1.007825032230
         H            1.463298401962    -0.727426182652     1.316832485138     1.007825032230
         H            1.848617401962    -1.604082182652    -0.176596514862     1.007825032230
         H            2.844639401962     0.520639817348    -1.151052514862     1.007825032230
         H            2.560609401962     1.343887817348     0.402707485138     1.007825032230
         H            3.674335401962    -0.018692182652     0.307004485138     1.007825032230

  Basis Set: AUG-CC-PVTZ
    Blend: AUG-CC-PVTZ
  Basis Set: (AUG-CC-PVTZ AUX)
    Blend: AUG-CC-PVTZ-JKFIT
	 Reference Energy          =    -289.6735689899970794 [Eh]
	 Singles Energy            =      -0.0000000000000000 [Eh]
	 Same-Spin Energy          =      -0.3057161749396159 [Eh]
	 Opposite-Spin Energy      =      -1.0970567667952369 [Eh]
	 Correlation Energy        =      -1.4027729417348529 [Eh]
	 Total Energy              =    -291.0763419317319176 [Eh]

	 ================> DF-SCS-MP2 Energies <==================
	-----------------------------------------------------------
	 SCS Same-Spin Scale       =       0.3333333333333333 [-]
	 SCS Opposite-Spin Scale   =       1.2000000000000000 [-]
	 SCS Same-Spin Energy      =      -0.1019053916465386 [Eh]
	 SCS Opposite-Spin Energy  =      -1.3164681201542843 [Eh]
	 SCS Correlation Energy    =      -1.4183735118008229 [Eh]
	 SCS Total Energy          =    -291.0919425017979165 [Eh]
	-----------------------------------------------------------

  Dipole Moment: [D]
     X:     0.8808      Y:    -0.4708      Z:    -0.8739     Total:     1.3271

*** Psi4 exiting successfully. Buy a developer a beer!
