                               Psi4 1.4a3.dev225

  ==> Input File <==

--------------------------------------------------------------------------
#psi4
#
memory 32 gb

molecule  {
1 1
  N        0.2769550    -0.2036720    -0.3241330
  C       -0.2807745     1.1225927     0.2043438
  C       -0.8318510    -1.2416080    -0.1373660
  C       -1.7487720     1.0080340    -0.1478690
  C       -2.0899640    -0.4391570     0.2222400
  C        1.6014160    -0.6227950     0.2602130
  C        2.7021640     0.3718760    -0.0544870
  H        0.4198120    -0.0821770    -1.3354460
  H        0.2647170     1.9344670    -0.2636010
  H       -0.1049550     1.1121840     1.2781340
  H       -0.5119850    -1.9240980     0.6516280
  H       -0.9170180    -1.8004520    -1.0710850
  H       -1.9040400     1.1951860    -1.2159660
  H       -2.3418250     1.7391150     0.4059550
  H       -2.2892440    -0.5166410     1.2941000
  H       -2.9682270    -0.8151510    -0.3061210
  H        1.4364190    -0.7316030     1.3351050
  H        1.8217380    -1.6082590    -0.1583240
  H        2.8177600     0.5164630    -1.1327800
  H        2.5337300     1.3397110     0.4209800
  H        3.6474560    -0.0228690     0.3252770
units angstrom
no_reorient  #important for SAPT in psi4, default
symmetry c1  #important for SAPT in psi4, default
}

set PROPERTIES_ORIGIN ["COM"]
properties('MP2/aug-cc-pvtz', properties = ['dipole'])
--------------------------------------------------------------------------

    Molecular point group: c1
  Charge       = 1
  Multiplicity = 1
  Basis Set: AUG-CC-PVTZ
    Blend: AUG-CC-PVTZ
  Basis Set: (AUG-CC-PVTZ AUX)
    Blend: AUG-CC-PVTZ-JKFIT

    Orbital Energies [Eh]
    ---------------------

    Doubly Occupied:

       1A    -15.848446     2A    -11.450755     3A    -11.450732
       4A    -11.449909     5A    -11.393486     6A    -11.391553
       7A    -11.381277     8A     -1.486538     9A     -1.259240
      10A     -1.183738    11A     -1.174232    12A     -1.039737
      13A     -1.024350    14A     -0.980678    15A     -0.901337
      16A     -0.852213    17A     -0.824571    18A     -0.785228
      19A     -0.773943    20A     -0.763096    21A     -0.727118
      22A     -0.694625    23A     -0.689276    24A     -0.680786
      25A     -0.670404    26A     -0.663917    27A     -0.657833
      28A     -0.643410

  @DF-RHF Final Energy:  -289.70578647878239

   => Energetics <=

    Nuclear Repulsion Energy =            339.7318195082384022
    One-Electron Energy =               -1053.1903595689452686
    Two-Electron Energy =                 423.7527535819244235
    Total Energy =                       -289.7057864787823860
  Basis Set: (AUG-CC-PVTZ AUX)
    Blend: AUG-CC-PVTZ-RI
    Molecular point group: c1

    Geometry (in Angstrom), charge = 1, multiplicity = 1:

       Center              X                  Y                   Z               Mass
    ------------   -----------------  -----------------  -----------------  -----------------
         N            0.296691942704    -0.202411245437    -0.322691405531    14.003074004430
         C           -0.261037557296     1.123853454563     0.205785394469    12.000000000000
         C           -0.812114057296    -1.240347245437    -0.135924405531    12.000000000000
         C           -1.729035057296     1.009294754563    -0.146427405531    12.000000000000
         C           -2.070227057296    -0.437896245437     0.223681594469    12.000000000000
         C            1.621152942704    -0.621534245437     0.261654594469    12.000000000000
         C            2.721900942704     0.373136754563    -0.053045405531    12.000000000000
         H            0.439548942704    -0.080916245437    -1.334004405531     1.007825032230
         H            0.284453942704     1.935727754563    -0.262159405531     1.007825032230
         H           -0.085218057296     1.113444754563     1.279575594469     1.007825032230
         H           -0.492248057296    -1.922837245437     0.653069594469     1.007825032230
         H           -0.897281057296    -1.799191245437    -1.069643405531     1.007825032230
         H           -1.884303057296     1.196446754563    -1.214524405531     1.007825032230
         H           -2.322088057296     1.740375754563     0.407396594469     1.007825032230
         H           -2.269507057296    -0.515380245437     1.295541594469     1.007825032230
         H           -2.948490057296    -0.813890245437    -0.304679405531     1.007825032230
         H            1.456155942704    -0.730342245437     1.336546594469     1.007825032230
         H            1.841474942704    -1.606998245437    -0.156882405531     1.007825032230
         H            2.837496942704     0.517723754563    -1.131338405531     1.007825032230
         H            2.553466942704     1.340971754563     0.422421594469     1.007825032230
         H            3.667192942704    -0.021608245437     0.326718594469     1.007825032230

  Basis Set: AUG-CC-PVTZ
    Blend: AUG-CC-PVTZ
  Basis Set: (AUG-CC-PVTZ AUX)
    Blend: AUG-CC-PVTZ-JKFIT
	 Reference Energy          =    -289.7057864787823860 [Eh]
	 Singles Energy            =      -0.0000000000000000 [Eh]
	 Same-Spin Energy          =      -0.3031767330227551 [Eh]
	 Opposite-Spin Energy      =      -1.0928490707594583 [Eh]
	 Correlation Energy        =      -1.3960258037822133 [Eh]
	 Total Energy              =    -291.1018122825645946 [Eh]

	 ================> DF-SCS-MP2 Energies <==================
	-----------------------------------------------------------
	 SCS Same-Spin Scale       =       0.3333333333333333 [-]
	 SCS Opposite-Spin Scale   =       1.2000000000000000 [-]
	 SCS Same-Spin Energy      =      -0.1010589110075850 [Eh]
	 SCS Opposite-Spin Energy  =      -1.3114188849113499 [Eh]
	 SCS Correlation Energy    =      -1.4124777959189350 [Eh]
	 SCS Total Energy          =    -291.1182642747013460 [Eh]
	-----------------------------------------------------------

  Dipole Moment: [D]
     X:     0.7092      Y:    -0.4536      Z:    -0.6977     Total:     1.0934

*** Psi4 exiting successfully. Buy a developer a beer!
