                               Psi4 1.3.2 release

  ==> Input File <==

--------------------------------------------------------------------------
#psi4
#
memory 32 gb

molecule  {
1 1
  N        0.3515466    -0.0767926    -0.3809025
  C       -0.2734970     1.1052870     0.1974480
  C       -0.8318510    -1.2416080    -0.1373660
  C       -1.7487720     1.0080340    -0.1478690
  C       -2.0899640    -0.4391570     0.2222400
  C        1.6014160    -0.6227950     0.2602130
  C        2.7021640     0.3718760    -0.0544870
  H        0.4198120    -0.0821770    -1.3354460
  H        0.2647170     1.9344670    -0.2636010
  H       -0.1049550     1.1121840     1.2781340
  H       -0.5119850    -1.9240980     0.6516280
  H       -0.9170180    -1.8004520    -1.0710850
  H       -1.9040400     1.1951860    -1.2159660
  H       -2.3418250     1.7391150     0.4059550
  H       -2.2892440    -0.5166410     1.2941000
  H       -2.9682270    -0.8151510    -0.3061210
  H        1.4364190    -0.7316030     1.3351050
  H        1.8217380    -1.6082590    -0.1583240
  H        2.8177600     0.5164630    -1.1327800
  H        2.5337300     1.3397110     0.4209800
  H        3.6474560    -0.0228690     0.3252770
units angstrom
no_reorient  #important for SAPT in psi4, default
symmetry c1  #important for SAPT in psi4, default
}

set PROPERTIES_ORIGIN ["COM"]
properties('MP2/aug-cc-pvtz', properties = ['dipole'])
--------------------------------------------------------------------------

    Molecular point group: c1
  Charge       = 1
  Multiplicity = 1
  Basis Set: AUG-CC-PVTZ
    Blend: AUG-CC-PVTZ
  Basis Set: (AUG-CC-PVTZ AUX)
    Blend: AUG-CC-PVTZ-JKFIT

    Orbital Energies [Eh]
    ---------------------

    Doubly Occupied:

       1A    -15.840418     2A    -11.463331     3A    -11.451086
       4A    -11.444400     5A    -11.394443     6A    -11.393836
       7A    -11.375962     8A     -1.488434     9A     -1.260327
      10A     -1.184937    11A     -1.170610    12A     -1.043486
      13A     -1.032837    14A     -0.979894    15A     -0.892641
      16A     -0.855080    17A     -0.832559    18A     -0.789845
      19A     -0.781400    20A     -0.751683    21A     -0.734234
      22A     -0.698961    23A     -0.687864    24A     -0.672815
      25A     -0.668691    26A     -0.658239    27A     -0.648026
      28A     -0.642473

  @DF-RHF Final Energy:  -289.68517282843493

   => Energetics <=

    Nuclear Repulsion Energy =            339.4381906837780889
    One-Electron Energy =               -1052.5696999792146471
    Two-Electron Energy =                 423.4463364670016290
    Total Energy =                       -289.6851728284349292
  Basis Set: (AUG-CC-PVTZ AUX)
    Blend: AUG-CC-PVTZ-RI
    Molecular point group: c1

    Geometry (in Angstrom), charge = 1, multiplicity = 1:

       Center              X                  Y                   Z               Mass
    ------------   -----------------  -----------------  -----------------  -----------------
         N            0.359977858720    -0.091204526444    -0.370693808329    14.003074004430
         C           -0.265065741280     1.090875073556     0.207656691671    12.000000000000
         C           -0.823419741280    -1.256019926444    -0.127157308329    12.000000000000
         C           -1.740340741280     0.993622073556    -0.137660308329    12.000000000000
         C           -2.081532741280    -0.453568926444     0.232448691671    12.000000000000
         C            1.609847258720    -0.637206926444     0.270421691671    12.000000000000
         C            2.710595258720     0.357464073556    -0.044278308329    12.000000000000
         H            0.428243258720    -0.096588926444    -1.325237308329     1.007825032230
         H            0.273148258720     1.920055073556    -0.253392308329     1.007825032230
         H           -0.096523741280     1.097772073556     1.288342691671     1.007825032230
         H           -0.503553741280    -1.938509926444     0.661836691671     1.007825032230
         H           -0.908586741280    -1.814863926444    -1.060876308329     1.007825032230
         H           -1.895608741280     1.180774073556    -1.205757308329     1.007825032230
         H           -2.333393741280     1.724703073556     0.416163691671     1.007825032230
         H           -2.280812741280    -0.531052926444     1.304308691671     1.007825032230
         H           -2.959795741280    -0.829562926444    -0.295912308329     1.007825032230
         H            1.444850258720    -0.746014926444     1.345313691671     1.007825032230
         H            1.830169258720    -1.622670926444    -0.148115308329     1.007825032230
         H            2.826191258720     0.502051073556    -1.122571308329     1.007825032230
         H            2.542161258720     1.325299073556     0.431188691671     1.007825032230
         H            3.655887258720    -0.037280926444     0.335485691671     1.007825032230

  Basis Set: AUG-CC-PVTZ
    Blend: AUG-CC-PVTZ
  Basis Set: (AUG-CC-PVTZ AUX)
    Blend: AUG-CC-PVTZ-JKFIT
	 Reference Energy          =    -289.6851728284349292 [Eh]
	 Singles Energy            =      -0.0000000000000000 [Eh]
	 Same-Spin Energy          =      -0.3034422661504912 [Eh]
	 Opposite-Spin Energy      =      -1.0936939190532735 [Eh]
	 Correlation Energy        =      -1.3971361852037647 [Eh]
	 Total Energy              =    -291.0823090136386782 [Eh]

	 ================> DF-SCS-MP2 Energies <==================
	-----------------------------------------------------------
	 SCS Same-Spin Scale       =       0.3333333333333333 [-]
	 SCS Opposite-Spin Scale   =       1.2000000000000000 [-]
	 SCS Same-Spin Energy      =      -0.1011474220501637 [Eh]
	 SCS Opposite-Spin Energy  =      -1.3124327028639282 [Eh]
	 SCS Correlation Energy    =      -1.4135801249140920 [Eh]
	 SCS Total Energy          =    -291.0987529533490488 [Eh]
	-----------------------------------------------------------

  Dipole Moment: [D]
     X:     0.4948      Y:    -0.7283      Z:    -0.6202     Total:     1.0770

*** Psi4 exiting successfully. Buy a developer a beer!
