                               Psi4 1.4a3.dev225

  ==> Input File <==

--------------------------------------------------------------------------
#psi4
#
memory 32 gb

molecule  {
1 1
  N        0.2769550    -0.2036720    -0.3241330
  C       -0.2734970     1.1052870     0.1974480
  C       -0.8318510    -1.2416080    -0.1373660
  C       -1.7487720     1.0080340    -0.1478690
  C       -2.0899640    -0.4391570     0.2222400
  C        1.6014160    -0.6227950     0.2602130
  C        2.7021640     0.3718760    -0.0544870
  H        0.4225898    -0.0798146    -1.3551108
  H        0.2647170     1.9344670    -0.2636010
  H       -0.1049550     1.1121840     1.2781340
  H       -0.5119850    -1.9240980     0.6516280
  H       -0.9170180    -1.8004520    -1.0710850
  H       -1.9040400     1.1951860    -1.2159660
  H       -2.3418250     1.7391150     0.4059550
  H       -2.2892440    -0.5166410     1.2941000
  H       -2.9682270    -0.8151510    -0.3061210
  H        1.4364190    -0.7316030     1.3351050
  H        1.8217380    -1.6082590    -0.1583240
  H        2.8177600     0.5164630    -1.1327800
  H        2.5337300     1.3397110     0.4209800
  H        3.6474560    -0.0228690     0.3252770
units angstrom
no_reorient  #important for SAPT in psi4, default
symmetry c1  #important for SAPT in psi4, default
}

set PROPERTIES_ORIGIN ["COM"]
properties('MP2/aug-cc-pvtz', properties = ['dipole'])
--------------------------------------------------------------------------

    Molecular point group: c1
  Charge       = 1
  Multiplicity = 1
  Basis Set: AUG-CC-PVTZ
    Blend: AUG-CC-PVTZ
  Basis Set: (AUG-CC-PVTZ AUX)
    Blend: AUG-CC-PVTZ-JKFIT

    Orbital Energies [Eh]
    ---------------------

    Doubly Occupied:

       1A    -15.851545     2A    -11.451363     3A    -11.450299
       4A    -11.449576     5A    -11.393124     6A    -11.391223
       7A    -11.381520     8A     -1.488404     9A     -1.258854
      10A     -1.182667    11A     -1.175003    12A     -1.040051
      13A     -1.021473    14A     -0.981052    15A     -0.901209
      16A     -0.853498    17A     -0.824544    18A     -0.784596
      19A     -0.773362    20A     -0.761650    21A     -0.729419
      22A     -0.692849    23A     -0.689396    24A     -0.679574
      25A     -0.670938    26A     -0.663526    27A     -0.657012
      28A     -0.642857

  @DF-RHF Final Energy:  -289.70504569991465

   => Energetics <=

    Nuclear Repulsion Energy =            339.9128739397980326
    One-Electron Energy =               -1053.5546678685168445
    Two-Electron Energy =                 423.9367482288041629
    Total Energy =                       -289.7050456999146490
  Basis Set: (AUG-CC-PVTZ AUX)
    Blend: AUG-CC-PVTZ-RI
    Molecular point group: c1

    Geometry (in Angstrom), charge = 1, multiplicity = 1:

       Center              X                  Y                   Z               Mass
    ------------   -----------------  -----------------  -----------------  -----------------
         N            0.295791661278    -0.200360679734    -0.321666876624    14.003074004430
         C           -0.254660338722     1.108598320266     0.199914123376    12.000000000000
         C           -0.813014338722    -1.238296679734    -0.134899876624    12.000000000000
         C           -1.729935338722     1.011345320266    -0.145402876624    12.000000000000
         C           -2.071127338722    -0.435845679734     0.224706123376    12.000000000000
         C            1.620252661278    -0.619483679734     0.262679123376    12.000000000000
         C            2.721000661278     0.375187320266    -0.052020876624    12.000000000000
         H            0.441426461278    -0.076503279734    -1.352644676624     1.007825032230
         H            0.283553661278     1.937778320266    -0.261134876624     1.007825032230
         H           -0.086118338722     1.115495320266     1.280600123376     1.007825032230
         H           -0.493148338722    -1.920786679734     0.654094123376     1.007825032230
         H           -0.898181338722    -1.797140679734    -1.068618876624     1.007825032230
         H           -1.885203338722     1.198497320266    -1.213499876624     1.007825032230
         H           -2.322988338722     1.742426320266     0.408421123376     1.007825032230
         H           -2.270407338722    -0.513329679734     1.296566123376     1.007825032230
         H           -2.949390338722    -0.811839679734    -0.303654876624     1.007825032230
         H            1.455255661278    -0.728291679734     1.337571123376     1.007825032230
         H            1.840574661278    -1.604947679734    -0.155857876624     1.007825032230
         H            2.836596661278     0.519774320266    -1.130313876624     1.007825032230
         H            2.552566661278     1.343022320266     0.423446123376     1.007825032230
         H            3.666292661278    -0.019557679734     0.327743123376     1.007825032230

  Basis Set: AUG-CC-PVTZ
    Blend: AUG-CC-PVTZ
  Basis Set: (AUG-CC-PVTZ AUX)
    Blend: AUG-CC-PVTZ-JKFIT
	 Reference Energy          =    -289.7050456999146490 [Eh]
	 Singles Energy            =      -0.0000000000000000 [Eh]
	 Same-Spin Energy          =      -0.3034005033623671 [Eh]
	 Opposite-Spin Energy      =      -1.0931973601667058 [Eh]
	 Correlation Energy        =      -1.3965978635290730 [Eh]
	 Total Energy              =    -291.1016435634437016 [Eh]

	 ================> DF-SCS-MP2 Energies <==================
	-----------------------------------------------------------
	 SCS Same-Spin Scale       =       0.3333333333333333 [-]
	 SCS Opposite-Spin Scale   =       1.2000000000000000 [-]
	 SCS Same-Spin Energy      =      -0.1011335011207890 [Eh]
	 SCS Opposite-Spin Energy  =      -1.3118368322000469 [Eh]
	 SCS Correlation Energy    =      -1.4129703333208359 [Eh]
	 SCS Total Energy          =    -291.1180160332355058 [Eh]
	-----------------------------------------------------------

  Dipole Moment: [D]
     X:     0.7326      Y:    -0.4741      Z:    -0.7229     Total:     1.1331

*** Psi4 exiting successfully. Buy a developer a beer!
