                               Psi4 1.3.2 release

  ==> Input File <==

--------------------------------------------------------------------------
#psi4
#
memory 32 gb

molecule  {
1 1
  N        0.2769550    -0.2036720    -0.3241330
  C       -0.2276709     1.1284203     0.1850827
  C       -0.8318510    -1.2416080    -0.1373660
  C       -1.7487720     1.0080340    -0.1478690
  C       -2.0899640    -0.4391570     0.2222400
  C        1.6014160    -0.6227950     0.2602130
  C        2.7021640     0.3718760    -0.0544870
  H        0.4198120    -0.0821770    -1.3354460
  H        0.2647170     1.9344670    -0.2636010
  H       -0.1049550     1.1121840     1.2781340
  H       -0.5119850    -1.9240980     0.6516280
  H       -0.9170180    -1.8004520    -1.0710850
  H       -1.9040400     1.1951860    -1.2159660
  H       -2.3418250     1.7391150     0.4059550
  H       -2.2892440    -0.5166410     1.2941000
  H       -2.9682270    -0.8151510    -0.3061210
  H        1.4364190    -0.7316030     1.3351050
  H        1.8217380    -1.6082590    -0.1583240
  H        2.8177600     0.5164630    -1.1327800
  H        2.5337300     1.3397110     0.4209800
  H        3.6474560    -0.0228690     0.3252770
units angstrom
no_reorient  #important for SAPT in psi4, default
symmetry c1  #important for SAPT in psi4, default
}

set PROPERTIES_ORIGIN ["COM"]
properties('MP2/aug-cc-pvtz', properties = ['dipole'])
--------------------------------------------------------------------------

    Molecular point group: c1
  Charge       = 1
  Multiplicity = 1
  Basis Set: AUG-CC-PVTZ
    Blend: AUG-CC-PVTZ
  Basis Set: (AUG-CC-PVTZ AUX)
    Blend: AUG-CC-PVTZ-JKFIT

    Orbital Energies [Eh]
    ---------------------

    Doubly Occupied:

       1A    -15.850512     2A    -11.451201     3A    -11.450936
       4A    -11.448344     5A    -11.395168     6A    -11.391461
       7A    -11.381675     8A     -1.490235     9A     -1.254568
      10A     -1.181287    11A     -1.176658    12A     -1.040831
      13A     -1.025105    14A     -0.979299    15A     -0.907902
      16A     -0.851774    17A     -0.822505    18A     -0.784271
      19A     -0.774203    20A     -0.767248    21A     -0.730685
      22A     -0.695895    23A     -0.689213    24A     -0.676065
      25A     -0.670737    26A     -0.660165    27A     -0.658565
      28A     -0.641091

  @DF-RHF Final Energy:  -289.70333665001397

   => Energetics <=

    Nuclear Repulsion Energy =            339.6175441168619500
    One-Electron Energy =               -1052.9465650610336525
    Two-Electron Energy =                 423.6256842941577361
    Total Energy =                       -289.7033366500139664
  Basis Set: (AUG-CC-PVTZ AUX)
    Blend: AUG-CC-PVTZ-RI
    Molecular point group: c1

    Geometry (in Angstrom), charge = 1, multiplicity = 1:

       Center              X                  Y                   Z               Mass
    ------------   -----------------  -----------------  -----------------  -----------------
         N            0.290326679547    -0.203109770727    -0.320382673727    14.003074004430
         C           -0.214299220453     1.128982529273     0.188833026273    12.000000000000
         C           -0.818479320453    -1.241045770727    -0.133615673727    12.000000000000
         C           -1.735400320453     1.008596229273    -0.144118673727    12.000000000000
         C           -2.076592320453    -0.438594770727     0.225990326273    12.000000000000
         C            1.614787679547    -0.622232770727     0.263963326273    12.000000000000
         C            2.715535679547     0.372438229273    -0.050736673727    12.000000000000
         H            0.433183679547    -0.081614770727    -1.331695673727     1.007825032230
         H            0.278088679547     1.935029229273    -0.259850673727     1.007825032230
         H           -0.091583320453     1.112746229273     1.281884326273     1.007825032230
         H           -0.498613320453    -1.923535770727     0.655378326273     1.007825032230
         H           -0.903646320453    -1.799889770727    -1.067334673727     1.007825032230
         H           -1.890668320453     1.195748229273    -1.212215673727     1.007825032230
         H           -2.328453320453     1.739677229273     0.409705326273     1.007825032230
         H           -2.275872320453    -0.516078770727     1.297850326273     1.007825032230
         H           -2.954855320453    -0.814588770727    -0.302370673727     1.007825032230
         H            1.449790679547    -0.731040770727     1.338855326273     1.007825032230
         H            1.835109679547    -1.607696770727    -0.154573673727     1.007825032230
         H            2.831131679547     0.517025229273    -1.129029673727     1.007825032230
         H            2.547101679547     1.340273229273     0.424730326273     1.007825032230
         H            3.660827679547    -0.022306770727     0.329027326273     1.007825032230

  Basis Set: AUG-CC-PVTZ
    Blend: AUG-CC-PVTZ
  Basis Set: (AUG-CC-PVTZ AUX)
    Blend: AUG-CC-PVTZ-JKFIT
	 Reference Energy          =    -289.7033366500139664 [Eh]
	 Singles Energy            =      -0.0000000000000000 [Eh]
	 Same-Spin Energy          =      -0.3030125778607519 [Eh]
	 Opposite-Spin Energy      =      -1.0927457951810977 [Eh]
	 Correlation Energy        =      -1.3957583730418497 [Eh]
	 Total Energy              =    -291.0990950230558383 [Eh]

	 ================> DF-SCS-MP2 Energies <==================
	-----------------------------------------------------------
	 SCS Same-Spin Scale       =       0.3333333333333333 [-]
	 SCS Opposite-Spin Scale   =       1.2000000000000000 [-]
	 SCS Same-Spin Energy      =      -0.1010041926202506 [Eh]
	 SCS Opposite-Spin Energy  =      -1.3112949542173171 [Eh]
	 SCS Correlation Energy    =      -1.4122991468375679 [Eh]
	 SCS Total Energy          =    -291.1156357968515067 [Eh]
	-----------------------------------------------------------

  Dipole Moment: [D]
     X:     0.7246      Y:    -0.4941      Z:    -0.7134     Total:     1.1306

*** Psi4 exiting successfully. Buy a developer a beer!
