                               Psi4 1.3.2 release

  ==> Input File <==

--------------------------------------------------------------------------
#psi4
#
memory 32 gb

molecule  {
1 1
  N        0.2769550    -0.2036720    -0.3241330
  C       -0.2961620     1.0931205     0.2033933
  C       -0.8318510    -1.2416080    -0.1373660
  C       -1.7487720     1.0080340    -0.1478690
  C       -2.0899640    -0.4391570     0.2222400
  C        1.6014160    -0.6227950     0.2602130
  C        2.7021640     0.3718760    -0.0544870
  H        0.4198120    -0.0821770    -1.3354460
  H        0.2647170     1.9344670    -0.2636010
  H       -0.1049550     1.1121840     1.2781340
  H       -0.5119850    -1.9240980     0.6516280
  H       -0.9170180    -1.8004520    -1.0710850
  H       -1.9040400     1.1951860    -1.2159660
  H       -2.3418250     1.7391150     0.4059550
  H       -2.2892440    -0.5166410     1.2941000
  H       -2.9682270    -0.8151510    -0.3061210
  H        1.4364190    -0.7316030     1.3351050
  H        1.8217380    -1.6082590    -0.1583240
  H        2.8177600     0.5164630    -1.1327800
  H        2.5337300     1.3397110     0.4209800
  H        3.6474560    -0.0228690     0.3252770
units angstrom
no_reorient  #important for SAPT in psi4, default
symmetry c1  #important for SAPT in psi4, default
}

set PROPERTIES_ORIGIN ["COM"]
properties('MP2/aug-cc-pvtz', properties = ['dipole'])
--------------------------------------------------------------------------

    Molecular point group: c1
  Charge       = 1
  Multiplicity = 1
  Basis Set: AUG-CC-PVTZ
    Blend: AUG-CC-PVTZ
  Basis Set: (AUG-CC-PVTZ AUX)
    Blend: AUG-CC-PVTZ-JKFIT

    Orbital Energies [Eh]
    ---------------------

    Doubly Occupied:

       1A    -15.849726     2A    -11.451753     3A    -11.450590
       4A    -11.450153     5A    -11.392336     6A    -11.391321
       7A    -11.381552     8A     -1.491240     9A     -1.261951
      10A     -1.184175    11A     -1.175081    12A     -1.040004
      13A     -1.024494    14A     -0.982266    15A     -0.900081
      16A     -0.854872    17A     -0.826215    18A     -0.785075
      19A     -0.774711    20A     -0.760115    21A     -0.729152
      22A     -0.692701    23A     -0.689754    24A     -0.682326
      25A     -0.671361    26A     -0.664168    27A     -0.655847
      28A     -0.643109

  @DF-RHF Final Energy:  -289.70507566667538

   => Energetics <=

    Nuclear Repulsion Energy =            340.2528952203579706
    One-Electron Energy =               -1054.2036864859658181
    Two-Electron Energy =                 424.2457155989325202
    Total Energy =                       -289.7050756666753841
  Basis Set: (AUG-CC-PVTZ AUX)
    Blend: AUG-CC-PVTZ-RI
    Molecular point group: c1

    Geometry (in Angstrom), charge = 1, multiplicity = 1:

       Center              X                  Y                   Z               Mass
    ------------   -----------------  -----------------  -----------------  -----------------
         N            0.298536365433    -0.198878560105    -0.322577473846    14.003074004430
         C           -0.274580634567     1.097913939895     0.204948826154    12.000000000000
         C           -0.810269634567    -1.236814560105    -0.135810473846    12.000000000000
         C           -1.727190634567     1.012827439895    -0.146313473846    12.000000000000
         C           -2.068382634567    -0.434363560105     0.223795526154    12.000000000000
         C            1.622997365433    -0.618001560105     0.261768526154    12.000000000000
         C            2.723745365433     0.376669439895    -0.052931473846    12.000000000000
         H            0.441393365433    -0.077383560105    -1.333890473846     1.007825032230
         H            0.286298365433     1.939260439895    -0.262045473846     1.007825032230
         H           -0.083373634567     1.116977439895     1.279689526154     1.007825032230
         H           -0.490403634567    -1.919304560105     0.653183526154     1.007825032230
         H           -0.895436634567    -1.795658560105    -1.069529473846     1.007825032230
         H           -1.882458634567     1.199979439895    -1.214410473846     1.007825032230
         H           -2.320243634567     1.743908439895     0.407510526154     1.007825032230
         H           -2.267662634567    -0.511847560105     1.295655526154     1.007825032230
         H           -2.946645634567    -0.810357560105    -0.304565473846     1.007825032230
         H            1.458000365433    -0.726809560105     1.336660526154     1.007825032230
         H            1.843319365433    -1.603465560105    -0.156768473846     1.007825032230
         H            2.839341365433     0.521256439895    -1.131224473846     1.007825032230
         H            2.555311365433     1.344504439895     0.422535526154     1.007825032230
         H            3.669037365433    -0.018075560105     0.326832526154     1.007825032230

  Basis Set: AUG-CC-PVTZ
    Blend: AUG-CC-PVTZ
  Basis Set: (AUG-CC-PVTZ AUX)
    Blend: AUG-CC-PVTZ-JKFIT
	 Reference Energy          =    -289.7050756666753841 [Eh]
	 Singles Energy            =      -0.0000000000000000 [Eh]
	 Same-Spin Energy          =      -0.3034404963016585 [Eh]
	 Opposite-Spin Energy      =      -1.0929355975959183 [Eh]
	 Correlation Energy        =      -1.3963760938975769 [Eh]
	 Total Energy              =    -291.1014517605729566 [Eh]

	 ================> DF-SCS-MP2 Energies <==================
	-----------------------------------------------------------
	 SCS Same-Spin Scale       =       0.3333333333333333 [-]
	 SCS Opposite-Spin Scale   =       1.2000000000000000 [-]
	 SCS Same-Spin Energy      =      -0.1011468321005528 [Eh]
	 SCS Opposite-Spin Energy  =      -1.3115227171151018 [Eh]
	 SCS Correlation Energy    =      -1.4126695492156547 [Eh]
	 SCS Total Energy          =    -291.1177452158910341 [Eh]
	-----------------------------------------------------------

  Dipole Moment: [D]
     X:     0.7260      Y:    -0.4698      Z:    -0.6994     Total:     1.1122

*** Psi4 exiting successfully. Buy a developer a beer!
