                               Psi4 1.3.2 release

  ==> Input File <==

--------------------------------------------------------------------------
#psi4
#
memory 32 gb

molecule  {
1 1
  N        0.1709249    -0.2757198    -0.2311862
  C       -0.2734970     1.1052870     0.1974480
  C       -0.8318510    -1.2416080    -0.1373660
  C       -1.7487720     1.0080340    -0.1478690
  C       -2.0899640    -0.4391570     0.2222400
  C        1.6014160    -0.6227950     0.2602130
  C        2.7021640     0.3718760    -0.0544870
  H        0.4198120    -0.0821770    -1.3354460
  H        0.2647170     1.9344670    -0.2636010
  H       -0.1049550     1.1121840     1.2781340
  H       -0.5119850    -1.9240980     0.6516280
  H       -0.9170180    -1.8004520    -1.0710850
  H       -1.9040400     1.1951860    -1.2159660
  H       -2.3418250     1.7391150     0.4059550
  H       -2.2892440    -0.5166410     1.2941000
  H       -2.9682270    -0.8151510    -0.3061210
  H        1.4364190    -0.7316030     1.3351050
  H        1.8217380    -1.6082590    -0.1583240
  H        2.8177600     0.5164630    -1.1327800
  H        2.5337300     1.3397110     0.4209800
  H        3.6474560    -0.0228690     0.3252770
units angstrom
no_reorient  #important for SAPT in psi4, default
symmetry c1  #important for SAPT in psi4, default
}

set PROPERTIES_ORIGIN ["COM"]
properties('MP2/aug-cc-pvtz', properties = ['dipole'])
--------------------------------------------------------------------------

    Molecular point group: c1
  Charge       = 1
  Multiplicity = 1
  Basis Set: AUG-CC-PVTZ
    Blend: AUG-CC-PVTZ
  Basis Set: (AUG-CC-PVTZ AUX)
    Blend: AUG-CC-PVTZ-JKFIT

    Orbital Energies [Eh]
    ---------------------

    Doubly Occupied:

       1A    -15.856982     2A    -11.457807     3A    -11.450916
       4A    -11.438052     5A    -11.390845     6A    -11.388295
       7A    -11.388142     8A     -1.503057     9A     -1.254647
      10A     -1.201416    11A     -1.171187    12A     -1.042196
      13A     -1.002943    14A     -0.985720    15A     -0.912600
      16A     -0.857747    17A     -0.821378    18A     -0.785325
      19A     -0.774839    20A     -0.759731    21A     -0.731018
      22A     -0.706661    23A     -0.683899    24A     -0.670435
      25A     -0.664897    26A     -0.661697    27A     -0.656368
      28A     -0.638755

  @DF-RHF Final Energy:  -289.67345595975706

   => Energetics <=

    Nuclear Repulsion Energy =            341.1415518660575685
    One-Electron Energy =               -1055.9149064471869224
    Two-Electron Energy =                 425.0998986213722333
    Total Energy =                       -289.6734559597570637
  Basis Set: (AUG-CC-PVTZ AUX)
    Blend: AUG-CC-PVTZ-RI
    Molecular point group: c1

    Geometry (in Angstrom), charge = 1, multiplicity = 1:

       Center              X                  Y                   Z               Mass
    ------------   -----------------  -----------------  -----------------  -----------------
         N            0.204620295443    -0.262307140701    -0.241918807591    14.003074004430
         C           -0.239801604557     1.118699659299     0.186715392409    12.000000000000
         C           -0.798155604557    -1.228195340701    -0.148098607591    12.000000000000
         C           -1.715076604557     1.021446659299    -0.158601607591    12.000000000000
         C           -2.056268604557    -0.425744340701     0.211507392409    12.000000000000
         C            1.635111395443    -0.609382340701     0.249480392409    12.000000000000
         C            2.735859395443     0.385288659299    -0.065219607591    12.000000000000
         H            0.453507395443    -0.068764340701    -1.346178607591     1.007825032230
         H            0.298412395443     1.947879659299    -0.274333607591     1.007825032230
         H           -0.071259604557     1.125596659299     1.267401392409     1.007825032230
         H           -0.478289604557    -1.910685340701     0.640895392409     1.007825032230
         H           -0.883322604557    -1.787039340701    -1.081817607591     1.007825032230
         H           -1.870344604557     1.208598659299    -1.226698607591     1.007825032230
         H           -2.308129604557     1.752527659299     0.395222392409     1.007825032230
         H           -2.255548604557    -0.503228340701     1.283367392409     1.007825032230
         H           -2.934531604557    -0.801738340701    -0.316853607591     1.007825032230
         H            1.470114395443    -0.718190340701     1.324372392409     1.007825032230
         H            1.855433395443    -1.594846340701    -0.169056607591     1.007825032230
         H            2.851455395443     0.529875659299    -1.143512607591     1.007825032230
         H            2.567425395443     1.353123659299     0.410247392409     1.007825032230
         H            3.681151395443    -0.009456340701     0.314544392409     1.007825032230

  Basis Set: AUG-CC-PVTZ
    Blend: AUG-CC-PVTZ
  Basis Set: (AUG-CC-PVTZ AUX)
    Blend: AUG-CC-PVTZ-JKFIT
	 Reference Energy          =    -289.6734559597570637 [Eh]
	 Singles Energy            =      -0.0000000000000000 [Eh]
	 Same-Spin Energy          =      -0.3056188169883453 [Eh]
	 Opposite-Spin Energy      =      -1.0967011026762898 [Eh]
	 Correlation Energy        =      -1.4023199196646352 [Eh]
	 Total Energy              =    -291.0757758794217125 [Eh]

	 ================> DF-SCS-MP2 Energies <==================
	-----------------------------------------------------------
	 SCS Same-Spin Scale       =       0.3333333333333333 [-]
	 SCS Opposite-Spin Scale   =       1.2000000000000000 [-]
	 SCS Same-Spin Energy      =      -0.1018729389961151 [Eh]
	 SCS Opposite-Spin Energy  =      -1.3160413232115478 [Eh]
	 SCS Correlation Energy    =      -1.4179142622076628 [Eh]
	 SCS Total Energy          =    -291.0913702219647234 [Eh]
	-----------------------------------------------------------

  Dipole Moment: [D]
     X:     1.0406      Y:    -0.3275      Z:    -0.8128     Total:     1.3604

*** Psi4 exiting successfully. Buy a developer a beer!
