                               Psi4 1.3.2 release

  ==> Input File <==

--------------------------------------------------------------------------
#psi4
#
memory 32 gb

molecule  {
1 1
  N        0.2663783    -0.2043572    -0.3000596
  C       -0.2734970     1.1052870     0.1974480
  C       -0.8318510    -1.2416080    -0.1373660
  C       -1.7487720     1.0080340    -0.1478690
  C       -2.0899640    -0.4391570     0.2222400
  C        1.6014160    -0.6227950     0.2602130
  C        2.7021640     0.3718760    -0.0544870
  H        0.4198120    -0.0821770    -1.3354460
  H        0.2647170     1.9344670    -0.2636010
  H       -0.1049550     1.1121840     1.2781340
  H       -0.5119850    -1.9240980     0.6516280
  H       -0.9170180    -1.8004520    -1.0710850
  H       -1.9040400     1.1951860    -1.2159660
  H       -2.3418250     1.7391150     0.4059550
  H       -2.2892440    -0.5166410     1.2941000
  H       -2.9682270    -0.8151510    -0.3061210
  H        1.4364190    -0.7316030     1.3351050
  H        1.8217380    -1.6082590    -0.1583240
  H        2.8177600     0.5164630    -1.1327800
  H        2.5337300     1.3397110     0.4209800
  H        3.6474560    -0.0228690     0.3252770
units angstrom
no_reorient  #important for SAPT in psi4, default
symmetry c1  #important for SAPT in psi4, default
}

set PROPERTIES_ORIGIN ["COM"]
properties('MP2/aug-cc-pvtz', properties = ['dipole'])
--------------------------------------------------------------------------

    Molecular point group: c1
  Charge       = 1
  Multiplicity = 1
  Basis Set: AUG-CC-PVTZ
    Blend: AUG-CC-PVTZ
  Basis Set: (AUG-CC-PVTZ AUX)
    Blend: AUG-CC-PVTZ-JKFIT

    Orbital Energies [Eh]
    ---------------------

    Doubly Occupied:

       1A    -15.852045     2A    -11.451847     3A    -11.449691
       4A    -11.448835     5A    -11.393007     6A    -11.391049
       7A    -11.382245     8A     -1.492528     9A     -1.259237
      10A     -1.184303    11A     -1.175862    12A     -1.041111
      13A     -1.019844    14A     -0.982280    15A     -0.903806
      16A     -0.854869    17A     -0.824865    18A     -0.784181
      19A     -0.771593    20A     -0.762799    21A     -0.731577
      22A     -0.691889    23A     -0.690327    24A     -0.678988
      25A     -0.671735    26A     -0.663944    27A     -0.657308
      28A     -0.642855

  @DF-RHF Final Energy:  -289.70453544791417

   => Energetics <=

    Nuclear Repulsion Energy =            340.2732108460975837
    One-Electron Energy =               -1054.2462528096295955
    Two-Electron Energy =                 424.2685065156179007
    Total Energy =                       -289.7045354479141679
  Basis Set: (AUG-CC-PVTZ AUX)
    Blend: AUG-CC-PVTZ-RI
    Molecular point group: c1

    Geometry (in Angstrom), charge = 1, multiplicity = 1:

       Center              X                  Y                   Z               Mass
    ------------   -----------------  -----------------  -----------------  -----------------
         N            0.286722322113    -0.200926256537    -0.301158664145    14.003074004430
         C           -0.253152977887     1.108717943463     0.196348935855    12.000000000000
         C           -0.811506977887    -1.238177056537    -0.138465064145    12.000000000000
         C           -1.728427977887     1.011464943463    -0.148968064145    12.000000000000
         C           -2.069619977887    -0.435726056537     0.221140935855    12.000000000000
         C            1.621760022113    -0.619364056537     0.259113935855    12.000000000000
         C            2.722508022113     0.375306943463    -0.055586064145    12.000000000000
         H            0.440156022113    -0.078746056537    -1.336545064145     1.007825032230
         H            0.285061022113     1.937897943463    -0.264700064145     1.007825032230
         H           -0.084610977887     1.115614943463     1.277034935855     1.007825032230
         H           -0.491640977887    -1.920667056537     0.650528935855     1.007825032230
         H           -0.896673977887    -1.797021056537    -1.072184064145     1.007825032230
         H           -1.883695977887     1.198616943463    -1.217065064145     1.007825032230
         H           -2.321480977887     1.742545943463     0.404855935855     1.007825032230
         H           -2.268899977887    -0.513210056537     1.293000935855     1.007825032230
         H           -2.947882977887    -0.811720056537    -0.307220064145     1.007825032230
         H            1.456763022113    -0.728172056537     1.334005935855     1.007825032230
         H            1.842082022113    -1.604828056537    -0.159423064145     1.007825032230
         H            2.838104022113     0.519893943463    -1.133879064145     1.007825032230
         H            2.554074022113     1.343141943463     0.419880935855     1.007825032230
         H            3.667800022113    -0.019438056537     0.324177935855     1.007825032230

  Basis Set: AUG-CC-PVTZ
    Blend: AUG-CC-PVTZ
  Basis Set: (AUG-CC-PVTZ AUX)
    Blend: AUG-CC-PVTZ-JKFIT
	 Reference Energy          =    -289.7045354479141679 [Eh]
	 Singles Energy            =      -0.0000000000000000 [Eh]
	 Same-Spin Energy          =      -0.3035640262790448 [Eh]
	 Opposite-Spin Energy      =      -1.0932277535203621 [Eh]
	 Correlation Energy        =      -1.3967917797994069 [Eh]
	 Total Energy              =    -291.1013272277135684 [Eh]

	 ================> DF-SCS-MP2 Energies <==================
	-----------------------------------------------------------
	 SCS Same-Spin Scale       =       0.3333333333333333 [-]
	 SCS Opposite-Spin Scale   =       1.2000000000000000 [-]
	 SCS Same-Spin Energy      =      -0.1011880087596816 [Eh]
	 SCS Opposite-Spin Energy  =      -1.3118733042244344 [Eh]
	 SCS Correlation Energy    =      -1.4130613129841161 [Eh]
	 SCS Total Energy          =    -291.1175967608982660 [Eh]
	-----------------------------------------------------------

  Dipole Moment: [D]
     X:     0.7593      Y:    -0.4753      Z:    -0.7363     Total:     1.1596

*** Psi4 exiting successfully. Buy a developer a beer!
