                               Psi4 1.3.2 release

  ==> Input File <==

--------------------------------------------------------------------------
#psi4
#
memory 32 gb

molecule  {
1 1
  N        0.3010036    -0.1965939    -0.3158482
  C       -0.2734970     1.1052870     0.1974480
  C       -0.8318510    -1.2416080    -0.1373660
  C       -1.7487720     1.0080340    -0.1478690
  C       -2.0899640    -0.4391570     0.2222400
  C        1.6014160    -0.6227950     0.2602130
  C        2.7021640     0.3718760    -0.0544870
  H        0.4198120    -0.0821770    -1.3354460
  H        0.2647170     1.9344670    -0.2636010
  H       -0.1049550     1.1121840     1.2781340
  H       -0.5119850    -1.9240980     0.6516280
  H       -0.9170180    -1.8004520    -1.0710850
  H       -1.9040400     1.1951860    -1.2159660
  H       -2.3418250     1.7391150     0.4059550
  H       -2.2892440    -0.5166410     1.2941000
  H       -2.9682270    -0.8151510    -0.3061210
  H        1.4364190    -0.7316030     1.3351050
  H        1.8217380    -1.6082590    -0.1583240
  H        2.8177600     0.5164630    -1.1327800
  H        2.5337300     1.3397110     0.4209800
  H        3.6474560    -0.0228690     0.3252770
units angstrom
no_reorient  #important for SAPT in psi4, default
symmetry c1  #important for SAPT in psi4, default
}

set PROPERTIES_ORIGIN ["COM"]
properties('MP2/aug-cc-pvtz', properties = ['dipole'])
--------------------------------------------------------------------------

    Molecular point group: c1
  Charge       = 1
  Multiplicity = 1
  Basis Set: AUG-CC-PVTZ
    Blend: AUG-CC-PVTZ
  Basis Set: (AUG-CC-PVTZ AUX)
    Blend: AUG-CC-PVTZ-JKFIT

    Orbital Energies [Eh]
    ---------------------

    Doubly Occupied:

       1A    -15.850144     2A    -11.452658     3A    -11.449888
       4A    -11.449196     5A    -11.394172     6A    -11.392336
       7A    -11.380443     8A     -1.490554     9A     -1.261376
      10A     -1.180755    11A     -1.175704    12A     -1.042164
      13A     -1.024104    14A     -0.981499    15A     -0.900332
      16A     -0.854646    17A     -0.826475    18A     -0.784010
      19A     -0.774662    20A     -0.761790    21A     -0.730848
      22A     -0.692603    23A     -0.687345    24A     -0.681031
      25A     -0.671057    26A     -0.663584    27A     -0.657183
      28A     -0.643733

  @DF-RHF Final Energy:  -289.70535806237888

   => Energetics <=

    Nuclear Repulsion Energy =            339.9986041746545880
    One-Electron Energy =               -1053.6993434079518011
    Two-Electron Energy =                 423.9953811709183356
    Total Energy =                       -289.7053580623788775
  Basis Set: (AUG-CC-PVTZ AUX)
    Blend: AUG-CC-PVTZ-RI
    Molecular point group: c1

    Geometry (in Angstrom), charge = 1, multiplicity = 1:

       Center              X                  Y                   Z               Mass
    ------------   -----------------  -----------------  -----------------  -----------------
         N            0.316504470303    -0.194248834218    -0.314738862004    14.003074004430
         C           -0.257996129697     1.107632065782     0.198557337996    12.000000000000
         C           -0.816350129697    -1.239262934218    -0.136256662004    12.000000000000
         C           -1.733271129697     1.010379065782    -0.146759662004    12.000000000000
         C           -2.074463129697    -0.436811934218     0.223349337996    12.000000000000
         C            1.616916870303    -0.620449934218     0.261322337996    12.000000000000
         C            2.717664870303     0.374221065782    -0.053377662004    12.000000000000
         H            0.435312870303    -0.079831934218    -1.334336662004     1.007825032230
         H            0.280217870303     1.936812065782    -0.262491662004     1.007825032230
         H           -0.089454129697     1.114529065782     1.279243337996     1.007825032230
         H           -0.496484129697    -1.921752934218     0.652737337996     1.007825032230
         H           -0.901517129697    -1.798106934218    -1.069975662004     1.007825032230
         H           -1.888539129697     1.197531065782    -1.214856662004     1.007825032230
         H           -2.326324129697     1.741460065782     0.407064337996     1.007825032230
         H           -2.273743129697    -0.514295934218     1.295209337996     1.007825032230
         H           -2.952726129697    -0.812805934218    -0.305011662004     1.007825032230
         H            1.451919870303    -0.729257934218     1.336214337996     1.007825032230
         H            1.837238870303    -1.605913934218    -0.157214662004     1.007825032230
         H            2.833260870303     0.518808065782    -1.131670662004     1.007825032230
         H            2.549230870303     1.342056065782     0.422089337996     1.007825032230
         H            3.662956870303    -0.020523934218     0.326386337996     1.007825032230

  Basis Set: AUG-CC-PVTZ
    Blend: AUG-CC-PVTZ
  Basis Set: (AUG-CC-PVTZ AUX)
    Blend: AUG-CC-PVTZ-JKFIT
	 Reference Energy          =    -289.7053580623788775 [Eh]
	 Singles Energy            =      -0.0000000000000000 [Eh]
	 Same-Spin Energy          =      -0.3033238163625536 [Eh]
	 Opposite-Spin Energy      =      -1.0929023386756231 [Eh]
	 Correlation Energy        =      -1.3962261550381767 [Eh]
	 Total Energy              =    -291.1015842174170416 [Eh]

	 ================> DF-SCS-MP2 Energies <==================
	-----------------------------------------------------------
	 SCS Same-Spin Scale       =       0.3333333333333333 [-]
	 SCS Opposite-Spin Scale   =       1.2000000000000000 [-]
	 SCS Same-Spin Energy      =      -0.1011079387875179 [Eh]
	 SCS Opposite-Spin Energy  =      -1.3114828064107478 [Eh]
	 SCS Correlation Energy    =      -1.4125907451982656 [Eh]
	 SCS Total Energy          =    -291.1179488075771360 [Eh]
	-----------------------------------------------------------

  Dipole Moment: [D]
     X:     0.6481      Y:    -0.4906      Z:    -0.7136     Total:     1.0817

*** Psi4 exiting successfully. Buy a developer a beer!
