                               Psi4 1.3.2 release

  ==> Input File <==

--------------------------------------------------------------------------
#psi4
#
memory 32 gb

molecule  {
1 1
  N        0.2769550    -0.2036720    -0.3241330
  C       -0.2371095     1.0187587     0.1629690
  C       -0.8318510    -1.2416080    -0.1373660
  C       -1.7487720     1.0080340    -0.1478690
  C       -2.0899640    -0.4391570     0.2222400
  C        1.6014160    -0.6227950     0.2602130
  C        2.7021640     0.3718760    -0.0544870
  H        0.4198120    -0.0821770    -1.3354460
  H        0.2647170     1.9344670    -0.2636010
  H       -0.1049550     1.1121840     1.2781340
  H       -0.5119850    -1.9240980     0.6516280
  H       -0.9170180    -1.8004520    -1.0710850
  H       -1.9040400     1.1951860    -1.2159660
  H       -2.3418250     1.7391150     0.4059550
  H       -2.2892440    -0.5166410     1.2941000
  H       -2.9682270    -0.8151510    -0.3061210
  H        1.4364190    -0.7316030     1.3351050
  H        1.8217380    -1.6082590    -0.1583240
  H        2.8177600     0.5164630    -1.1327800
  H        2.5337300     1.3397110     0.4209800
  H        3.6474560    -0.0228690     0.3252770
units angstrom
no_reorient  #important for SAPT in psi4, default
symmetry c1  #important for SAPT in psi4, default
}

set PROPERTIES_ORIGIN ["COM"]
properties('MP2/aug-cc-pvtz', properties = ['dipole'])
--------------------------------------------------------------------------

    Molecular point group: c1
  Charge       = 1
  Multiplicity = 1
  Basis Set: AUG-CC-PVTZ
    Blend: AUG-CC-PVTZ
  Basis Set: (AUG-CC-PVTZ AUX)
    Blend: AUG-CC-PVTZ-JKFIT

    Orbital Energies [Eh]
    ---------------------

    Doubly Occupied:

       1A    -15.855410     2A    -11.454776     3A    -11.452972
       4A    -11.446425     5A    -11.392888     6A    -11.390462
       7A    -11.382976     8A     -1.515307     9A     -1.259555
      10A     -1.184016    11A     -1.179484    12A     -1.043506
      13A     -1.026596    14A     -0.984918    15A     -0.907804
      16A     -0.861834    17A     -0.828356    18A     -0.785432
      19A     -0.777510    20A     -0.754965    21A     -0.741762
      22A     -0.692767    23A     -0.687497    24A     -0.675598
      25A     -0.670737    26A     -0.664781    27A     -0.646339
      28A     -0.639447

  @DF-RHF Final Energy:  -289.69722427411904

   => Energetics <=

    Nuclear Repulsion Energy =            341.5832782156713279
    One-Electron Energy =               -1056.7527668223149249
    Two-Electron Energy =                 425.4722643325246167
    Total Energy =                       -289.6972242741190371
  Basis Set: (AUG-CC-PVTZ AUX)
    Blend: AUG-CC-PVTZ-RI
    Molecular point group: c1

    Geometry (in Angstrom), charge = 1, multiplicity = 1:

       Center              X                  Y                   Z               Mass
    ------------   -----------------  -----------------  -----------------  -----------------
         N            0.291458037362    -0.189965182747    -0.317732015017    14.003074004430
         C           -0.222606462638     1.032465517253     0.169369984983    12.000000000000
         C           -0.817347962638    -1.227901182747    -0.130965015017    12.000000000000
         C           -1.734268962638     1.021740817253    -0.141468015017    12.000000000000
         C           -2.075460962638    -0.425450182747     0.228640984983    12.000000000000
         C            1.615919037362    -0.609088182747     0.266613984983    12.000000000000
         C            2.716667037362     0.385582817253    -0.048086015017    12.000000000000
         H            0.434315037362    -0.068470182747    -1.329045015017     1.007825032230
         H            0.279220037362     1.948173817253    -0.257200015017     1.007825032230
         H           -0.090451962638     1.125890817253     1.284534984983     1.007825032230
         H           -0.497481962638    -1.910391182747     0.658028984983     1.007825032230
         H           -0.902514962638    -1.786745182747    -1.064684015017     1.007825032230
         H           -1.889536962638     1.208892817253    -1.209565015017     1.007825032230
         H           -2.327321962638     1.752821817253     0.412355984983     1.007825032230
         H           -2.274740962638    -0.502934182747     1.300500984983     1.007825032230
         H           -2.953723962638    -0.801444182747    -0.299720015017     1.007825032230
         H            1.450922037362    -0.717896182747     1.341505984983     1.007825032230
         H            1.836241037362    -1.594552182747    -0.151923015017     1.007825032230
         H            2.832263037362     0.530169817253    -1.126379015017     1.007825032230
         H            2.548233037362     1.353417817253     0.427380984983     1.007825032230
         H            3.661959037362    -0.009162182747     0.331677984983     1.007825032230

  Basis Set: AUG-CC-PVTZ
    Blend: AUG-CC-PVTZ
  Basis Set: (AUG-CC-PVTZ AUX)
    Blend: AUG-CC-PVTZ-JKFIT
	 Reference Energy          =    -289.6972242741190371 [Eh]
	 Singles Energy            =      -0.0000000000000000 [Eh]
	 Same-Spin Energy          =      -0.3039925845815806 [Eh]
	 Opposite-Spin Energy      =      -1.0930116040078022 [Eh]
	 Correlation Energy        =      -1.3970041885893827 [Eh]
	 Total Energy              =    -291.0942284627084291 [Eh]

	 ================> DF-SCS-MP2 Energies <==================
	-----------------------------------------------------------
	 SCS Same-Spin Scale       =       0.3333333333333333 [-]
	 SCS Opposite-Spin Scale   =       1.2000000000000000 [-]
	 SCS Same-Spin Energy      =      -0.1013308615271935 [Eh]
	 SCS Opposite-Spin Energy  =      -1.3116139248093626 [Eh]
	 SCS Correlation Energy    =      -1.4129447863365561 [Eh]
	 SCS Total Energy          =    -291.1101690604555756 [Eh]
	-----------------------------------------------------------

  Dipole Moment: [D]
     X:     0.8031      Y:    -0.5681      Z:    -0.7315     Total:     1.2259

*** Psi4 exiting successfully. Buy a developer a beer!
