                               Psi4 1.3.2 release

  ==> Input File <==

--------------------------------------------------------------------------
#psi4
#
memory 32 gb

molecule  {
1 1
  N        0.2769550    -0.2036720    -0.3241330
  C       -0.2734970     1.1052870     0.1974480
  C       -0.8318510    -1.2416080    -0.1373660
  C       -1.7487720     1.0080340    -0.1478690
  C       -2.0899640    -0.4391570     0.2222400
  C        1.5290121    -0.6265787     0.4003145
  C        2.7021640     0.3718760    -0.0544870
  H        0.4198120    -0.0821770    -1.3354460
  H        0.2647170     1.9344670    -0.2636010
  H       -0.1049550     1.1121840     1.2781340
  H       -0.5119850    -1.9240980     0.6516280
  H       -0.9170180    -1.8004520    -1.0710850
  H       -1.9040400     1.1951860    -1.2159660
  H       -2.3418250     1.7391150     0.4059550
  H       -2.2892440    -0.5166410     1.2941000
  H       -2.9682270    -0.8151510    -0.3061210
  H        1.4364190    -0.7316030     1.3351050
  H        1.8217380    -1.6082590    -0.1583240
  H        2.8177600     0.5164630    -1.1327800
  H        2.5337300     1.3397110     0.4209800
  H        3.6474560    -0.0228690     0.3252770
units angstrom
no_reorient  #important for SAPT in psi4, default
symmetry c1  #important for SAPT in psi4, default
}

set PROPERTIES_ORIGIN ["COM"]
properties('MP2/aug-cc-pvtz', properties = ['dipole'])
--------------------------------------------------------------------------

    Molecular point group: c1
  Charge       = 1
  Multiplicity = 1
  Basis Set: AUG-CC-PVTZ
    Blend: AUG-CC-PVTZ
  Basis Set: (AUG-CC-PVTZ AUX)
    Blend: AUG-CC-PVTZ-JKFIT

    Orbital Energies [Eh]
    ---------------------

    Doubly Occupied:

       1A    -15.851684     2A    -11.450672     3A    -11.449500
       4A    -11.449373     5A    -11.392919     6A    -11.390820
       7A    -11.385640     8A     -1.491723     9A     -1.255342
      10A     -1.181112    11A     -1.169431    12A     -1.047707
      13A     -1.030110    14A     -0.981157    15A     -0.900819
      16A     -0.869911    17A     -0.818816    18A     -0.790839
      19A     -0.784108    20A     -0.755486    21A     -0.724409
      22A     -0.704899    23A     -0.692738    24A     -0.675371
      25A     -0.669331    26A     -0.658316    27A     -0.645691
      28A     -0.634349

  @DF-RHF Final Energy:  -289.67297124277621

   => Energetics <=

    Nuclear Repulsion Energy =            339.9390502658192759
    One-Electron Energy =               -1053.5194973092097825
    Two-Electron Energy =                 423.9074758006142361
    Total Energy =                       -289.6729712427762138
  Basis Set: (AUG-CC-PVTZ AUX)
    Blend: AUG-CC-PVTZ-RI
    Molecular point group: c1

    Geometry (in Angstrom), charge = 1, multiplicity = 1:

       Center              X                  Y                   Z               Mass
    ------------   -----------------  -----------------  -----------------  -----------------
         N            0.304498318816    -0.199883364449    -0.338658107120    14.003074004430
         C           -0.245953681184     1.109075635551     0.182922892880    12.000000000000
         C           -0.804307681184    -1.237819364449    -0.151891107120    12.000000000000
         C           -1.721228681184     1.011822635551    -0.162394107120    12.000000000000
         C           -2.062420681184    -0.435368364449     0.207714892880    12.000000000000
         C            1.556555418816    -0.622790064449     0.385789392880    12.000000000000
         C            2.729707318816     0.375664635551    -0.069012107120    12.000000000000
         H            0.447355318816    -0.078388364449    -1.349971107120     1.007825032230
         H            0.292260318816     1.938255635551    -0.278126107120     1.007825032230
         H           -0.077411681184     1.115972635551     1.263608892880     1.007825032230
         H           -0.484441681184    -1.920309364449     0.637102892880     1.007825032230
         H           -0.889474681184    -1.796663364449    -1.085610107120     1.007825032230
         H           -1.876496681184     1.198974635551    -1.230491107120     1.007825032230
         H           -2.314281681184     1.742903635551     0.391429892880     1.007825032230
         H           -2.261700681184    -0.512852364449     1.279574892880     1.007825032230
         H           -2.940683681184    -0.811362364449    -0.320646107120     1.007825032230
         H            1.463962318816    -0.727814364449     1.320579892880     1.007825032230
         H            1.849281318816    -1.604470364449    -0.172849107120     1.007825032230
         H            2.845303318816     0.520251635551    -1.147305107120     1.007825032230
         H            2.561273318816     1.343499635551     0.406454892880     1.007825032230
         H            3.674999318816    -0.019080364449     0.310751892880     1.007825032230

  Basis Set: AUG-CC-PVTZ
    Blend: AUG-CC-PVTZ
  Basis Set: (AUG-CC-PVTZ AUX)
    Blend: AUG-CC-PVTZ-JKFIT
	 Reference Energy          =    -289.6729712427762138 [Eh]
	 Singles Energy            =      -0.0000000000000000 [Eh]
	 Same-Spin Energy          =      -0.3031681908233321 [Eh]
	 Opposite-Spin Energy      =      -1.0940313412302596 [Eh]
	 Correlation Energy        =      -1.3971995320535917 [Eh]
	 Total Energy              =    -291.0701707748298190 [Eh]

	 ================> DF-SCS-MP2 Energies <==================
	-----------------------------------------------------------
	 SCS Same-Spin Scale       =       0.3333333333333333 [-]
	 SCS Opposite-Spin Scale   =       1.2000000000000000 [-]
	 SCS Same-Spin Energy      =      -0.1010560636077774 [Eh]
	 SCS Opposite-Spin Energy  =      -1.3128376094763115 [Eh]
	 SCS Correlation Energy    =      -1.4138936730840888 [Eh]
	 SCS Total Energy          =    -291.0868649158603034 [Eh]
	-----------------------------------------------------------

  Dipole Moment: [D]
     X:     0.6987      Y:    -0.4646      Z:    -0.7310     Total:     1.1128

*** Psi4 exiting successfully. Buy a developer a beer!
