                               Psi4 1.3.2 release

  ==> Input File <==

--------------------------------------------------------------------------
#psi4
#
memory 32 gb

molecule  {
1 1
  N        0.2371003    -0.2071766    -0.2268449
  C       -0.2734970     1.1052870     0.1974480
  C       -0.8318510    -1.2416080    -0.1373660
  C       -1.7487720     1.0080340    -0.1478690
  C       -2.0899640    -0.4391570     0.2222400
  C        1.6014160    -0.6227950     0.2602130
  C        2.7021640     0.3718760    -0.0544870
  H        0.4198120    -0.0821770    -1.3354460
  H        0.2647170     1.9344670    -0.2636010
  H       -0.1049550     1.1121840     1.2781340
  H       -0.5119850    -1.9240980     0.6516280
  H       -0.9170180    -1.8004520    -1.0710850
  H       -1.9040400     1.1951860    -1.2159660
  H       -2.3418250     1.7391150     0.4059550
  H       -2.2892440    -0.5166410     1.2941000
  H       -2.9682270    -0.8151510    -0.3061210
  H        1.4364190    -0.7316030     1.3351050
  H        1.8217380    -1.6082590    -0.1583240
  H        2.8177600     0.5164630    -1.1327800
  H        2.5337300     1.3397110     0.4209800
  H        3.6474560    -0.0228690     0.3252770
units angstrom
no_reorient  #important for SAPT in psi4, default
symmetry c1  #important for SAPT in psi4, default
}

set PROPERTIES_ORIGIN ["COM"]
properties('MP2/aug-cc-pvtz', properties = ['dipole'])
--------------------------------------------------------------------------

    Molecular point group: c1
  Charge       = 1
  Multiplicity = 1
  Basis Set: AUG-CC-PVTZ
    Blend: AUG-CC-PVTZ
  Basis Set: (AUG-CC-PVTZ AUX)
    Blend: AUG-CC-PVTZ-JKFIT

    Orbital Energies [Eh]
    ---------------------

    Doubly Occupied:

       1A    -15.857569     2A    -11.453199     3A    -11.448014
       4A    -11.446832     5A    -11.392525     6A    -11.390408
       7A    -11.384073     8A     -1.498123     9A     -1.259535
      10A     -1.189534    11A     -1.175717    12A     -1.043930
      13A     -1.006176    14A     -0.985269    15A     -0.907430
      16A     -0.858378    17A     -0.824955    18A     -0.781860
      19A     -0.768749    20A     -0.761758    21A     -0.736429
      22A     -0.695638    23A     -0.686804    24A     -0.677458
      25A     -0.666090    26A     -0.664551    27A     -0.657652
      28A     -0.642152

  @DF-RHF Final Energy:  -289.69003716974396

   => Energetics <=

    Nuclear Repulsion Energy =            340.9410055897390635
    One-Electron Energy =               -1055.5404646661488641
    Two-Electron Energy =                 424.9094219066658980
    Total Energy =                       -289.6900371697439596
  Basis Set: (AUG-CC-PVTZ AUX)
    Blend: AUG-CC-PVTZ-RI
    Molecular point group: c1

    Geometry (in Angstrom), charge = 1, multiplicity = 1:

       Center              X                  Y                   Z               Mass
    ------------   -----------------  -----------------  -----------------  -----------------
         N            0.261539529914    -0.203351298013    -0.238184739151    14.003074004430
         C           -0.249057770086     1.109112301987     0.186108160849    12.000000000000
         C           -0.807411770086    -1.237782698013    -0.148705839151    12.000000000000
         C           -1.724332770086     1.011859301987    -0.159208839151    12.000000000000
         C           -2.065524770086    -0.435331698013     0.210900160849    12.000000000000
         C            1.625855229914    -0.618969698013     0.248873160849    12.000000000000
         C            2.726603229914     0.375701301987    -0.065826839151    12.000000000000
         H            0.444251229914    -0.078351698013    -1.346785839151     1.007825032230
         H            0.289156229914     1.938292301987    -0.274940839151     1.007825032230
         H           -0.080515770086     1.116009301987     1.266794160849     1.007825032230
         H           -0.487545770086    -1.920272698013     0.640288160849     1.007825032230
         H           -0.892578770086    -1.796626698013    -1.082424839151     1.007825032230
         H           -1.879600770086     1.199011301987    -1.227305839151     1.007825032230
         H           -2.317385770086     1.742940301987     0.394615160849     1.007825032230
         H           -2.264804770086    -0.512815698013     1.282760160849     1.007825032230
         H           -2.943787770086    -0.811325698013    -0.317460839151     1.007825032230
         H            1.460858229914    -0.727777698013     1.323765160849     1.007825032230
         H            1.846177229914    -1.604433698013    -0.169663839151     1.007825032230
         H            2.842199229914     0.520288301987    -1.144119839151     1.007825032230
         H            2.558169229914     1.343536301987     0.409640160849     1.007825032230
         H            3.671895229914    -0.019043698013     0.313937160849     1.007825032230

  Basis Set: AUG-CC-PVTZ
    Blend: AUG-CC-PVTZ
  Basis Set: (AUG-CC-PVTZ AUX)
    Blend: AUG-CC-PVTZ-JKFIT
	 Reference Energy          =    -289.6900371697439596 [Eh]
	 Singles Energy            =      -0.0000000000000000 [Eh]
	 Same-Spin Energy          =      -0.3047477452265811 [Eh]
	 Opposite-Spin Energy      =      -1.0952272626168327 [Eh]
	 Correlation Energy        =      -1.3999750078434139 [Eh]
	 Total Energy              =    -291.0900121775873686 [Eh]

	 ================> DF-SCS-MP2 Energies <==================
	-----------------------------------------------------------
	 SCS Same-Spin Scale       =       0.3333333333333333 [-]
	 SCS Opposite-Spin Scale   =       1.2000000000000000 [-]
	 SCS Same-Spin Energy      =      -0.1015825817421937 [Eh]
	 SCS Opposite-Spin Energy  =      -1.3142727151401992 [Eh]
	 SCS Correlation Energy    =      -1.4158552968823930 [Eh]
	 SCS Total Energy          =    -291.1058924666263579 [Eh]
	-----------------------------------------------------------

  Dipole Moment: [D]
     X:     0.8388      Y:    -0.4733      Z:    -0.8236     Total:     1.2673

*** Psi4 exiting successfully. Buy a developer a beer!
