                               Psi4 1.3.2 release

  ==> Input File <==

--------------------------------------------------------------------------
#psi4
#
memory 32 gb

molecule  {
1 1
  N        0.2769550    -0.2036720    -0.3241330
  C       -0.2734970     1.1052870     0.1974480
  C       -0.7605958    -1.3031600    -0.0869447
  C       -1.7487720     1.0080340    -0.1478690
  C       -2.0899640    -0.4391570     0.2222400
  C        1.6014160    -0.6227950     0.2602130
  C        2.7021640     0.3718760    -0.0544870
  H        0.4198120    -0.0821770    -1.3354460
  H        0.2647170     1.9344670    -0.2636010
  H       -0.1049550     1.1121840     1.2781340
  H       -0.5119850    -1.9240980     0.6516280
  H       -0.9170180    -1.8004520    -1.0710850
  H       -1.9040400     1.1951860    -1.2159660
  H       -2.3418250     1.7391150     0.4059550
  H       -2.2892440    -0.5166410     1.2941000
  H       -2.9682270    -0.8151510    -0.3061210
  H        1.4364190    -0.7316030     1.3351050
  H        1.8217380    -1.6082590    -0.1583240
  H        2.8177600     0.5164630    -1.1327800
  H        2.5337300     1.3397110     0.4209800
  H        3.6474560    -0.0228690     0.3252770
units angstrom
no_reorient  #important for SAPT in psi4, default
symmetry c1  #important for SAPT in psi4, default
}

set PROPERTIES_ORIGIN ["COM"]
properties('MP2/aug-cc-pvtz', properties = ['dipole'])
--------------------------------------------------------------------------

    Molecular point group: c1
  Charge       = 1
  Multiplicity = 1
  Basis Set: AUG-CC-PVTZ
    Blend: AUG-CC-PVTZ
  Basis Set: (AUG-CC-PVTZ AUX)
    Blend: AUG-CC-PVTZ-JKFIT

    Orbital Energies [Eh]
    ---------------------

    Doubly Occupied:

       1A    -15.851218     2A    -11.451056     3A    -11.450232
       4A    -11.448189     5A    -11.395110     6A    -11.392867
       7A    -11.380897     8A     -1.490273     9A     -1.252759
      10A     -1.184295    11A     -1.171812    12A     -1.041132
      13A     -1.030439    14A     -0.979398    15A     -0.900782
      16A     -0.856412    17A     -0.823931    18A     -0.797957
      19A     -0.774160    20A     -0.762008    21A     -0.727292
      22A     -0.701550    23A     -0.687260    24A     -0.678134
      25A     -0.669942    26A     -0.658748    27A     -0.651897
      28A     -0.638154

  @DF-RHF Final Energy:  -289.69359654511692

   => Energetics <=

    Nuclear Repulsion Energy =            339.3926020236423824
    One-Electron Energy =               -1052.4765936239773509
    Two-Electron Energy =                 423.3903950552179936
    Total Energy =                       -289.6935965451169182
  Basis Set: (AUG-CC-PVTZ AUX)
    Blend: AUG-CC-PVTZ-RI
    Molecular point group: c1

    Geometry (in Angstrom), charge = 1, multiplicity = 1:

       Center              X                  Y                   Z               Mass
    ------------   -----------------  -----------------  -----------------  -----------------
         N            0.287278620407    -0.192958967014    -0.327908589705    14.003074004430
         C           -0.263173379593     1.116000032986     0.193672410295    12.000000000000
         C           -0.750272179593    -1.292446967014    -0.090720289705    12.000000000000
         C           -1.738448379593     1.018747032986    -0.151644589705    12.000000000000
         C           -2.079640379593    -0.428443967014     0.218464410295    12.000000000000
         C            1.611739620407    -0.612081967014     0.256437410295    12.000000000000
         C            2.712487620407     0.382589032986    -0.058262589705    12.000000000000
         H            0.430135620407    -0.071463967014    -1.339221589705     1.007825032230
         H            0.275040620407     1.945180032986    -0.267376589705     1.007825032230
         H           -0.094631379593     1.122897032986     1.274358410295     1.007825032230
         H           -0.501661379593    -1.913384967014     0.647852410295     1.007825032230
         H           -0.906694379593    -1.789738967014    -1.074860589705     1.007825032230
         H           -1.893716379593     1.205899032986    -1.219741589705     1.007825032230
         H           -2.331501379593     1.749828032986     0.402179410295     1.007825032230
         H           -2.278920379593    -0.505927967014     1.290324410295     1.007825032230
         H           -2.957903379593    -0.804437967014    -0.309896589705     1.007825032230
         H            1.446742620407    -0.720889967014     1.331329410295     1.007825032230
         H            1.832061620407    -1.597545967014    -0.162099589705     1.007825032230
         H            2.828083620407     0.527176032986    -1.136555589705     1.007825032230
         H            2.544053620407     1.350424032986     0.417204410295     1.007825032230
         H            3.657779620407    -0.012155967014     0.321501410295     1.007825032230

  Basis Set: AUG-CC-PVTZ
    Blend: AUG-CC-PVTZ
  Basis Set: (AUG-CC-PVTZ AUX)
    Blend: AUG-CC-PVTZ-JKFIT
	 Reference Energy          =    -289.6935965451169182 [Eh]
	 Singles Energy            =      -0.0000000000000000 [Eh]
	 Same-Spin Energy          =      -0.3029413845215342 [Eh]
	 Opposite-Spin Energy      =      -1.0930482808249620 [Eh]
	 Correlation Energy        =      -1.3959896653464963 [Eh]
	 Total Energy              =    -291.0895862104634375 [Eh]

	 ================> DF-SCS-MP2 Energies <==================
	-----------------------------------------------------------
	 SCS Same-Spin Scale       =       0.3333333333333333 [-]
	 SCS Opposite-Spin Scale   =       1.2000000000000000 [-]
	 SCS Same-Spin Energy      =      -0.1009804615071781 [Eh]
	 SCS Opposite-Spin Energy  =      -1.3116579369899544 [Eh]
	 SCS Correlation Energy    =      -1.4126383984971325 [Eh]
	 SCS Total Energy          =    -291.1062349436140266 [Eh]
	-----------------------------------------------------------

  Dipole Moment: [D]
     X:     0.7168      Y:    -0.4540      Z:    -0.7016     Total:     1.1010

*** Psi4 exiting successfully. Buy a developer a beer!
