                               Psi4 1.3.2 release

  ==> Input File <==

--------------------------------------------------------------------------
#psi4
#
memory 32 gb

molecule  {
1 1
  N        0.2769550    -0.2036720    -0.3241330
  C       -0.2734970     1.1052870     0.1974480
  C       -0.8379968    -1.2486920    -0.2437629
  C       -1.7487720     1.0080340    -0.1478690
  C       -2.0899640    -0.4391570     0.2222400
  C        1.6014160    -0.6227950     0.2602130
  C        2.7021640     0.3718760    -0.0544870
  H        0.4198120    -0.0821770    -1.3354460
  H        0.2647170     1.9344670    -0.2636010
  H       -0.1049550     1.1121840     1.2781340
  H       -0.5119850    -1.9240980     0.6516280
  H       -0.9170180    -1.8004520    -1.0710850
  H       -1.9040400     1.1951860    -1.2159660
  H       -2.3418250     1.7391150     0.4059550
  H       -2.2892440    -0.5166410     1.2941000
  H       -2.9682270    -0.8151510    -0.3061210
  H        1.4364190    -0.7316030     1.3351050
  H        1.8217380    -1.6082590    -0.1583240
  H        2.8177600     0.5164630    -1.1327800
  H        2.5337300     1.3397110     0.4209800
  H        3.6474560    -0.0228690     0.3252770
units angstrom
no_reorient  #important for SAPT in psi4, default
symmetry c1  #important for SAPT in psi4, default
}

set PROPERTIES_ORIGIN ["COM"]
properties('MP2/aug-cc-pvtz', properties = ['dipole'])
--------------------------------------------------------------------------

    Molecular point group: c1
  Charge       = 1
  Multiplicity = 1
  Basis Set: AUG-CC-PVTZ
    Blend: AUG-CC-PVTZ
  Basis Set: (AUG-CC-PVTZ AUX)
    Blend: AUG-CC-PVTZ-JKFIT

    Orbital Energies [Eh]
    ---------------------

    Doubly Occupied:

       1A    -15.850299     2A    -11.451598     3A    -11.450383
       4A    -11.450041     5A    -11.393921     6A    -11.392682
       7A    -11.381719     8A     -1.490662     9A     -1.257373
      10A     -1.185495    11A     -1.173671    12A     -1.042253
      13A     -1.020996    14A     -0.983866    15A     -0.908759
      16A     -0.850566    17A     -0.829192    18A     -0.784098
      19A     -0.773487    20A     -0.760148    21A     -0.729604
      22A     -0.698311    23A     -0.687704    24A     -0.681895
      25A     -0.668911    26A     -0.660751    27A     -0.657224
      28A     -0.636620

  @DF-RHF Final Energy:  -289.69172590834461

   => Energetics <=

    Nuclear Repulsion Energy =            339.6562832226013597
    One-Electron Energy =               -1052.9915603564659250
    Two-Electron Energy =                 423.6435512255199569
    Total Energy =                       -289.6917259083446083
  Basis Set: (AUG-CC-PVTZ AUX)
    Blend: AUG-CC-PVTZ-RI
    Molecular point group: c1

    Geometry (in Angstrom), charge = 1, multiplicity = 1:

       Center              X                  Y                   Z               Mass
    ------------   -----------------  -----------------  -----------------  -----------------
         N            0.296556291481    -0.199487773981    -0.309111575740    14.003074004430
         C           -0.253895708519     1.109471226019     0.212469424260    12.000000000000
         C           -0.818395508519    -1.244507773981    -0.228741475740    12.000000000000
         C           -1.729170708519     1.012218226019    -0.132847575740    12.000000000000
         C           -2.070362708519    -0.434972773981     0.237261424260    12.000000000000
         C            1.621017291481    -0.618610773981     0.275234424260    12.000000000000
         C            2.721765291481     0.376060226019    -0.039465575740    12.000000000000
         H            0.439413291481    -0.077992773981    -1.320424575740     1.007825032230
         H            0.284318291481     1.938651226019    -0.248579575740     1.007825032230
         H           -0.085353708519     1.116368226019     1.293155424260     1.007825032230
         H           -0.492383708519    -1.919913773981     0.666649424260     1.007825032230
         H           -0.897416708519    -1.796267773981    -1.056063575740     1.007825032230
         H           -1.884438708519     1.199370226019    -1.200944575740     1.007825032230
         H           -2.322223708519     1.743299226019     0.420976424260     1.007825032230
         H           -2.269642708519    -0.512456773981     1.309121424260     1.007825032230
         H           -2.948625708519    -0.810966773981    -0.291099575740     1.007825032230
         H            1.456020291481    -0.727418773981     1.350126424260     1.007825032230
         H            1.841339291481    -1.604074773981    -0.143302575740     1.007825032230
         H            2.837361291481     0.520647226019    -1.117758575740     1.007825032230
         H            2.553331291481     1.343895226019     0.436001424260     1.007825032230
         H            3.667057291481    -0.018684773981     0.340298424260     1.007825032230

  Basis Set: AUG-CC-PVTZ
    Blend: AUG-CC-PVTZ
  Basis Set: (AUG-CC-PVTZ AUX)
    Blend: AUG-CC-PVTZ-JKFIT
	 Reference Energy          =    -289.6917259083446083 [Eh]
	 Singles Energy            =      -0.0000000000000000 [Eh]
	 Same-Spin Energy          =      -0.3033798533536979 [Eh]
	 Opposite-Spin Energy      =      -1.0933807765091357 [Eh]
	 Correlation Energy        =      -1.3967606298628334 [Eh]
	 Total Energy              =    -291.0884865382074622 [Eh]

	 ================> DF-SCS-MP2 Energies <==================
	-----------------------------------------------------------
	 SCS Same-Spin Scale       =       0.3333333333333333 [-]
	 SCS Opposite-Spin Scale   =       1.2000000000000000 [-]
	 SCS Same-Spin Energy      =      -0.1011266177845660 [Eh]
	 SCS Opposite-Spin Energy  =      -1.3120569318109627 [Eh]
	 SCS Correlation Energy    =      -1.4131835495955287 [Eh]
	 SCS Total Energy          =    -291.1049094579401526 [Eh]
	-----------------------------------------------------------

  Dipole Moment: [D]
     X:     0.7319      Y:    -0.4561      Z:    -0.7129     Total:     1.1190

*** Psi4 exiting successfully. Buy a developer a beer!
