                               Psi4 1.3.2 release

  ==> Input File <==

--------------------------------------------------------------------------
#psi4
#
memory 32 gb

molecule  {
1 1
  N        0.2769550    -0.2036720    -0.3241330
  C       -0.2712692     1.1247045     0.1483962
  C       -0.8318510    -1.2416080    -0.1373660
  C       -1.7487720     1.0080340    -0.1478690
  C       -2.0899640    -0.4391570     0.2222400
  C        1.6014160    -0.6227950     0.2602130
  C        2.7021640     0.3718760    -0.0544870
  H        0.4198120    -0.0821770    -1.3354460
  H        0.2647170     1.9344670    -0.2636010
  H       -0.1049550     1.1121840     1.2781340
  H       -0.5119850    -1.9240980     0.6516280
  H       -0.9170180    -1.8004520    -1.0710850
  H       -1.9040400     1.1951860    -1.2159660
  H       -2.3418250     1.7391150     0.4059550
  H       -2.2892440    -0.5166410     1.2941000
  H       -2.9682270    -0.8151510    -0.3061210
  H        1.4364190    -0.7316030     1.3351050
  H        1.8217380    -1.6082590    -0.1583240
  H        2.8177600     0.5164630    -1.1327800
  H        2.5337300     1.3397110     0.4209800
  H        3.6474560    -0.0228690     0.3252770
units angstrom
no_reorient  #important for SAPT in psi4, default
symmetry c1  #important for SAPT in psi4, default
}

set PROPERTIES_ORIGIN ["COM"]
properties('MP2/aug-cc-pvtz', properties = ['dipole'])
--------------------------------------------------------------------------

    Molecular point group: c1
  Charge       = 1
  Multiplicity = 1
  Basis Set: AUG-CC-PVTZ
    Blend: AUG-CC-PVTZ
  Basis Set: (AUG-CC-PVTZ AUX)
    Blend: AUG-CC-PVTZ-JKFIT

    Orbital Energies [Eh]
    ---------------------

    Doubly Occupied:

       1A    -15.850123     2A    -11.451704     3A    -11.451089
       4A    -11.450621     5A    -11.393208     6A    -11.391995
       7A    -11.381809     8A     -1.490948     9A     -1.259388
      10A     -1.183844    11A     -1.176924    12A     -1.040750
      13A     -1.021682    14A     -0.982164    15A     -0.907388
      16A     -0.854049    17A     -0.821456    18A     -0.779925
      19A     -0.774298    20A     -0.766726    21A     -0.731084
      22A     -0.694164    23A     -0.687842    24A     -0.675003
      25A     -0.671421    26A     -0.667955    27A     -0.659153
      28A     -0.640348

  @DF-RHF Final Energy:  -289.70276511055653

   => Energetics <=

    Nuclear Repulsion Energy =            339.9411839176304966
    One-Electron Energy =               -1053.5737717488736962
    Two-Electron Energy =                 423.9298227206866727
    Total Energy =                       -289.7027651105565269
  Basis Set: (AUG-CC-PVTZ AUX)
    Blend: AUG-CC-PVTZ-RI
    Molecular point group: c1

    Geometry (in Angstrom), charge = 1, multiplicity = 1:

       Center              X                  Y                   Z               Mass
    ------------   -----------------  -----------------  -----------------  -----------------
         N            0.295552589894    -0.202664376350    -0.315985246306    14.003074004430
         C           -0.252671610106     1.125712123650     0.156543953694    12.000000000000
         C           -0.813253410106    -1.240600376350    -0.129218246306    12.000000000000
         C           -1.730174410106     1.009041623650    -0.139721246306    12.000000000000
         C           -2.071366410106    -0.438149376350     0.230387753694    12.000000000000
         C            1.620013589894    -0.621787376350     0.268360753694    12.000000000000
         C            2.720761589894     0.372883623650    -0.046339246306    12.000000000000
         H            0.438409589894    -0.081169376350    -1.327298246306     1.007825032230
         H            0.283314589894     1.935474623650    -0.255453246306     1.007825032230
         H           -0.086357410106     1.113191623650     1.286281753694     1.007825032230
         H           -0.493387410106    -1.923090376350     0.659775753694     1.007825032230
         H           -0.898420410106    -1.799444376350    -1.062937246306     1.007825032230
         H           -1.885442410106     1.196193623650    -1.207818246306     1.007825032230
         H           -2.323227410106     1.740122623650     0.414102753694     1.007825032230
         H           -2.270646410106    -0.515633376350     1.302247753694     1.007825032230
         H           -2.949629410106    -0.814143376350    -0.297973246306     1.007825032230
         H            1.455016589894    -0.730595376350     1.343252753694     1.007825032230
         H            1.840335589894    -1.607251376350    -0.150176246306     1.007825032230
         H            2.836357589894     0.517470623650    -1.124632246306     1.007825032230
         H            2.552327589894     1.340718623650     0.429127753694     1.007825032230
         H            3.666053589894    -0.021861376350     0.333424753694     1.007825032230

  Basis Set: AUG-CC-PVTZ
    Blend: AUG-CC-PVTZ
  Basis Set: (AUG-CC-PVTZ AUX)
    Blend: AUG-CC-PVTZ-JKFIT
	 Reference Energy          =    -289.7027651105565269 [Eh]
	 Singles Energy            =      -0.0000000000000000 [Eh]
	 Same-Spin Energy          =      -0.3033251211415904 [Eh]
	 Opposite-Spin Energy      =      -1.0929546587242267 [Eh]
	 Correlation Energy        =      -1.3962797798658171 [Eh]
	 Total Energy              =    -291.0990448904223626 [Eh]

	 ================> DF-SCS-MP2 Energies <==================
	-----------------------------------------------------------
	 SCS Same-Spin Scale       =       0.3333333333333333 [-]
	 SCS Opposite-Spin Scale   =       1.2000000000000000 [-]
	 SCS Same-Spin Energy      =      -0.1011083737138635 [Eh]
	 SCS Opposite-Spin Energy  =      -1.3115455904690720 [Eh]
	 SCS Correlation Energy    =      -1.4126539641829354 [Eh]
	 SCS Total Energy          =    -291.1154190747394637 [Eh]
	-----------------------------------------------------------

  Dipole Moment: [D]
     X:     0.7291      Y:    -0.4931      Z:    -0.7152     Total:     1.1342

*** Psi4 exiting successfully. Buy a developer a beer!
