                               Psi4 1.3.2 release

  ==> Input File <==

--------------------------------------------------------------------------
#psi4
#
memory 32 gb

molecule  {
1 1
  N        0.2769550    -0.2036720    -0.3241330
  C       -0.2734970     1.1052870     0.1974480
  C       -0.8318510    -1.2416080    -0.1373660
  C       -1.7487720     1.0080340    -0.1478690
  C       -2.0899640    -0.4391570     0.2222400
  C        1.5903369    -0.6237463     0.2840503
  C        2.7021640     0.3718760    -0.0544870
  H        0.4198120    -0.0821770    -1.3354460
  H        0.2647170     1.9344670    -0.2636010
  H       -0.1049550     1.1121840     1.2781340
  H       -0.5119850    -1.9240980     0.6516280
  H       -0.9170180    -1.8004520    -1.0710850
  H       -1.9040400     1.1951860    -1.2159660
  H       -2.3418250     1.7391150     0.4059550
  H       -2.2892440    -0.5166410     1.2941000
  H       -2.9682270    -0.8151510    -0.3061210
  H        1.4364190    -0.7316030     1.3351050
  H        1.8217380    -1.6082590    -0.1583240
  H        2.8177600     0.5164630    -1.1327800
  H        2.5337300     1.3397110     0.4209800
  H        3.6474560    -0.0228690     0.3252770
units angstrom
no_reorient  #important for SAPT in psi4, default
symmetry c1  #important for SAPT in psi4, default
}

set PROPERTIES_ORIGIN ["COM"]
properties('MP2/aug-cc-pvtz', properties = ['dipole'])
--------------------------------------------------------------------------

    Molecular point group: c1
  Charge       = 1
  Multiplicity = 1
  Basis Set: AUG-CC-PVTZ
    Blend: AUG-CC-PVTZ
  Basis Set: (AUG-CC-PVTZ AUX)
    Blend: AUG-CC-PVTZ-JKFIT

    Orbital Energies [Eh]
    ---------------------

    Doubly Occupied:

       1A    -15.850030     2A    -11.450954     3A    -11.450264
       4A    -11.449601     5A    -11.393151     6A    -11.391224
       7A    -11.382083     8A     -1.490859     9A     -1.258442
      10A     -1.182323    11A     -1.174605    12A     -1.040226
      13A     -1.026330    14A     -0.981155    15A     -0.902149
      16A     -0.854301    17A     -0.824514    18A     -0.785043
      19A     -0.777259    20A     -0.760481    21A     -0.728707
      22A     -0.693086    23A     -0.690822    24A     -0.679953
      25A     -0.672266    26A     -0.661744    27A     -0.656443
      28A     -0.642859

  @DF-RHF Final Energy:  -289.70549058744126

   => Energetics <=

    Nuclear Repulsion Energy =            340.0104015013195635
    One-Electron Energy =               -1053.7300348277185549
    Two-Electron Energy =                 424.0141427389576734
    Total Energy =                       -289.7054905874412611
  Basis Set: (AUG-CC-PVTZ AUX)
    Blend: AUG-CC-PVTZ-RI
    Molecular point group: c1

    Geometry (in Angstrom), charge = 1, multiplicity = 1:

       Center              X                  Y                   Z               Mass
    ------------   -----------------  -----------------  -----------------  -----------------
         N            0.297147621499    -0.200222870083    -0.324722098474    14.003074004430
         C           -0.253304378501     1.108736129917     0.196858901526    12.000000000000
         C           -0.811658378501    -1.238158870083    -0.137955098474    12.000000000000
         C           -1.728579378501     1.011483129917    -0.148458098474    12.000000000000
         C           -2.069771378501    -0.435707870083     0.221650901526    12.000000000000
         C            1.610529521499    -0.620297170083     0.283461201526    12.000000000000
         C            2.722356621499     0.375325129917    -0.055076098474    12.000000000000
         H            0.440004621499    -0.078727870083    -1.336035098474     1.007825032230
         H            0.284909621499     1.937916129917    -0.264190098474     1.007825032230
         H           -0.084762378501     1.115633129917     1.277544901526     1.007825032230
         H           -0.491792378501    -1.920648870083     0.651038901526     1.007825032230
         H           -0.896825378501    -1.797002870083    -1.071674098474     1.007825032230
         H           -1.883847378501     1.198635129917    -1.216555098474     1.007825032230
         H           -2.321632378501     1.742564129917     0.405365901526     1.007825032230
         H           -2.269051378501    -0.513191870083     1.293510901526     1.007825032230
         H           -2.948034378501    -0.811701870083    -0.306710098474     1.007825032230
         H            1.456611621499    -0.728153870083     1.334515901526     1.007825032230
         H            1.841930621499    -1.604809870083    -0.158913098474     1.007825032230
         H            2.837952621499     0.519912129917    -1.133369098474     1.007825032230
         H            2.553922621499     1.343160129917     0.420390901526     1.007825032230
         H            3.667648621499    -0.019419870083     0.324687901526     1.007825032230

  Basis Set: AUG-CC-PVTZ
    Blend: AUG-CC-PVTZ
  Basis Set: (AUG-CC-PVTZ AUX)
    Blend: AUG-CC-PVTZ-JKFIT
	 Reference Energy          =    -289.7054905874412611 [Eh]
	 Singles Energy            =      -0.0000000000000000 [Eh]
	 Same-Spin Energy          =      -0.3031400597989791 [Eh]
	 Opposite-Spin Energy      =      -1.0927319367887829 [Eh]
	 Correlation Energy        =      -1.3958719965877620 [Eh]
	 Total Energy              =    -291.1013625840290047 [Eh]

	 ================> DF-SCS-MP2 Energies <==================
	-----------------------------------------------------------
	 SCS Same-Spin Scale       =       0.3333333333333333 [-]
	 SCS Opposite-Spin Scale   =       1.2000000000000000 [-]
	 SCS Same-Spin Energy      =      -0.1010466865996597 [Eh]
	 SCS Opposite-Spin Energy  =      -1.3112783241465393 [Eh]
	 SCS Correlation Energy    =      -1.4123250107461991 [Eh]
	 SCS Total Energy          =    -291.1178155981874625 [Eh]
	-----------------------------------------------------------

  Dipole Moment: [D]
     X:     0.7245      Y:    -0.4775      Z:    -0.7032     Total:     1.1169

*** Psi4 exiting successfully. Buy a developer a beer!
