                               Psi4 1.3.2 release

  ==> Input File <==

--------------------------------------------------------------------------
#psi4
#
memory 32 gb

molecule  {
1 1
  N        0.2168745    -0.3351434    -0.2609613
  C       -0.2734970     1.1052870     0.1974480
  C       -0.8318510    -1.2416080    -0.1373660
  C       -1.7487720     1.0080340    -0.1478690
  C       -2.0899640    -0.4391570     0.2222400
  C        1.6014160    -0.6227950     0.2602130
  C        2.7021640     0.3718760    -0.0544870
  H        0.4198120    -0.0821770    -1.3354460
  H        0.2647170     1.9344670    -0.2636010
  H       -0.1049550     1.1121840     1.2781340
  H       -0.5119850    -1.9240980     0.6516280
  H       -0.9170180    -1.8004520    -1.0710850
  H       -1.9040400     1.1951860    -1.2159660
  H       -2.3418250     1.7391150     0.4059550
  H       -2.2892440    -0.5166410     1.2941000
  H       -2.9682270    -0.8151510    -0.3061210
  H        1.4364190    -0.7316030     1.3351050
  H        1.8217380    -1.6082590    -0.1583240
  H        2.8177600     0.5164630    -1.1327800
  H        2.5337300     1.3397110     0.4209800
  H        3.6474560    -0.0228690     0.3252770
units angstrom
no_reorient  #important for SAPT in psi4, default
symmetry c1  #important for SAPT in psi4, default
}

set PROPERTIES_ORIGIN ["COM"]
properties('MP2/aug-cc-pvtz', properties = ['dipole'])
--------------------------------------------------------------------------

    Molecular point group: c1
  Charge       = 1
  Multiplicity = 1
  Basis Set: AUG-CC-PVTZ
    Blend: AUG-CC-PVTZ
  Basis Set: (AUG-CC-PVTZ AUX)
    Blend: AUG-CC-PVTZ-JKFIT

    Orbital Energies [Eh]
    ---------------------

    Doubly Occupied:

       1A    -15.854570     2A    -11.457671     3A    -11.452828
       4A    -11.437547     5A    -11.393300     6A    -11.390222
       7A    -11.387115     8A     -1.499064     9A     -1.258859
      10A     -1.201180    11A     -1.164311    12A     -1.047301
      13A     -1.007443    14A     -0.985107    15A     -0.908533
      16A     -0.855084    17A     -0.821431    18A     -0.785907
      19A     -0.777138    20A     -0.761857    21A     -0.723638
      22A     -0.710323    23A     -0.684435    24A     -0.672712
      25A     -0.666688    26A     -0.659287    27A     -0.655987
      28A     -0.639401

  @DF-RHF Final Energy:  -289.67613571559207

   => Energetics <=

    Nuclear Repulsion Energy =            340.5366716061965917
    One-Electron Energy =               -1054.7077380951109262
    Two-Electron Energy =                 424.4949307733222668
    Total Energy =                       -289.6761357155920678
  Basis Set: (AUG-CC-PVTZ AUX)
    Blend: AUG-CC-PVTZ-RI
    Molecular point group: c1

    Geometry (in Angstrom), charge = 1, multiplicity = 1:

       Center              X                  Y                   Z               Mass
    ------------   -----------------  -----------------  -----------------  -----------------
         N            0.244142777457    -0.313418971102    -0.267529168817    14.003074004430
         C           -0.246228722543     1.127011428898     0.190880131183    12.000000000000
         C           -0.804582722543    -1.219883571102    -0.143933868817    12.000000000000
         C           -1.721503722543     1.029758428898    -0.154436868817    12.000000000000
         C           -2.062695722543    -0.417432571102     0.215672131183    12.000000000000
         C            1.628684277457    -0.601070571102     0.253645131183    12.000000000000
         C            2.729432277457     0.393600428898    -0.061054868817    12.000000000000
         H            0.447080277457    -0.060452571102    -1.342013868817     1.007825032230
         H            0.291985277457     1.956191428898    -0.270168868817     1.007825032230
         H           -0.077686722543     1.133908428898     1.271566131183     1.007825032230
         H           -0.484716722543    -1.902373571102     0.645060131183     1.007825032230
         H           -0.889749722543    -1.778727571102    -1.077652868817     1.007825032230
         H           -1.876771722543     1.216910428898    -1.222533868817     1.007825032230
         H           -2.314556722543     1.760839428898     0.399387131183     1.007825032230
         H           -2.261975722543    -0.494916571102     1.287532131183     1.007825032230
         H           -2.940958722543    -0.793426571102    -0.312688868817     1.007825032230
         H            1.463687277457    -0.709878571102     1.328537131183     1.007825032230
         H            1.849006277457    -1.586534571102    -0.164891868817     1.007825032230
         H            2.845028277457     0.538187428898    -1.139347868817     1.007825032230
         H            2.560998277457     1.361435428898     0.414412131183     1.007825032230
         H            3.674724277457    -0.001144571102     0.318709131183     1.007825032230

  Basis Set: AUG-CC-PVTZ
    Blend: AUG-CC-PVTZ
  Basis Set: (AUG-CC-PVTZ AUX)
    Blend: AUG-CC-PVTZ-JKFIT
	 Reference Energy          =    -289.6761357155920678 [Eh]
	 Singles Energy            =      -0.0000000000000000 [Eh]
	 Same-Spin Energy          =      -0.3053648302585171 [Eh]
	 Opposite-Spin Energy      =      -1.0962425119054748 [Eh]
	 Correlation Energy        =      -1.4016073421639921 [Eh]
	 Total Energy              =    -291.0777430577560381 [Eh]

	 ================> DF-SCS-MP2 Energies <==================
	-----------------------------------------------------------
	 SCS Same-Spin Scale       =       0.3333333333333333 [-]
	 SCS Opposite-Spin Scale   =       1.2000000000000000 [-]
	 SCS Same-Spin Energy      =      -0.1017882767528390 [Eh]
	 SCS Opposite-Spin Energy  =      -1.3154910142865697 [Eh]
	 SCS Correlation Energy    =      -1.4172792910394088 [Eh]
	 SCS Total Energy          =    -291.0934150066314601 [Eh]
	-----------------------------------------------------------

  Dipole Moment: [D]
     X:     0.8954      Y:    -0.2040      Z:    -0.7669     Total:     1.1965

*** Psi4 exiting successfully. Buy a developer a beer!
