                               Psi4 1.3.2 release

  ==> Input File <==

--------------------------------------------------------------------------
#psi4
#
memory 32 gb

molecule  {
1 1
  N        0.4184772    -0.1553022    -0.2721310
  C       -0.2734970     1.1052870     0.1974480
  C       -0.8318510    -1.2416080    -0.1373660
  C       -1.7487720     1.0080340    -0.1478690
  C       -2.0899640    -0.4391570     0.2222400
  C        1.6014160    -0.6227950     0.2602130
  C        2.7021640     0.3718760    -0.0544870
  H        0.4198120    -0.0821770    -1.3354460
  H        0.2647170     1.9344670    -0.2636010
  H       -0.1049550     1.1121840     1.2781340
  H       -0.5119850    -1.9240980     0.6516280
  H       -0.9170180    -1.8004520    -1.0710850
  H       -1.9040400     1.1951860    -1.2159660
  H       -2.3418250     1.7391150     0.4059550
  H       -2.2892440    -0.5166410     1.2941000
  H       -2.9682270    -0.8151510    -0.3061210
  H        1.4364190    -0.7316030     1.3351050
  H        1.8217380    -1.6082590    -0.1583240
  H        2.8177600     0.5164630    -1.1327800
  H        2.5337300     1.3397110     0.4209800
  H        3.6474560    -0.0228690     0.3252770
units angstrom
no_reorient  #important for SAPT in psi4, default
symmetry c1  #important for SAPT in psi4, default
}

set PROPERTIES_ORIGIN ["COM"]
properties('MP2/aug-cc-pvtz', properties = ['dipole'])
--------------------------------------------------------------------------

    Molecular point group: c1
  Charge       = 1
  Multiplicity = 1
  Basis Set: AUG-CC-PVTZ
    Blend: AUG-CC-PVTZ
  Basis Set: (AUG-CC-PVTZ AUX)
    Blend: AUG-CC-PVTZ-JKFIT

    Orbital Energies [Eh]
    ---------------------

    Doubly Occupied:

       1A    -15.849037     2A    -11.463311     3A    -11.451221
       4A    -11.438184     5A    -11.398900     6A    -11.397285
       7A    -11.374766     8A     -1.493783     9A     -1.272160
      10A     -1.177270    11A     -1.169054    12A     -1.052694
      13A     -1.019106    14A     -0.983517    15A     -0.890204
      16A     -0.861877    17A     -0.833199    18A     -0.785422
      19A     -0.774137    20A     -0.762064    21A     -0.736906
      22A     -0.691742    23A     -0.688963    24A     -0.674055
      25A     -0.668570    26A     -0.658194    27A     -0.647418
      28A     -0.645205

  @DF-RHF Final Energy:  -289.67987469919115

   => Energetics <=

    Nuclear Repulsion Energy =            339.9623977428251465
    One-Electron Energy =               -1053.5680527142931169
    Two-Electron Energy =                 423.9257802722768247
    Total Energy =                       -289.6798746991911457
  Basis Set: (AUG-CC-PVTZ AUX)
    Blend: AUG-CC-PVTZ-RI
    Molecular point group: c1

    Geometry (in Angstrom), charge = 1, multiplicity = 1:

       Center              X                  Y                   Z               Mass
    ------------   -----------------  -----------------  -----------------  -----------------
         N            0.417546660945    -0.158732736785    -0.277136527039    14.003074004430
         C           -0.274427539055     1.101856463215     0.192442472961    12.000000000000
         C           -0.832781539055    -1.245038536785    -0.142371527039    12.000000000000
         C           -1.749702539055     1.004603463215    -0.152874527039    12.000000000000
         C           -2.090894539055    -0.442587536785     0.217234472961    12.000000000000
         C            1.600485460945    -0.626225536785     0.255207472961    12.000000000000
         C            2.701233460945     0.368445463215    -0.059492527039    12.000000000000
         H            0.418881460945    -0.085607536785    -1.340451527039     1.007825032230
         H            0.263786460945     1.931036463215    -0.268606527039     1.007825032230
         H           -0.105885539055     1.108753463215     1.273128472961     1.007825032230
         H           -0.512915539055    -1.927528536785     0.646622472961     1.007825032230
         H           -0.917948539055    -1.803882536785    -1.076090527039     1.007825032230
         H           -1.904970539055     1.191755463215    -1.220971527039     1.007825032230
         H           -2.342755539055     1.735684463215     0.400949472961     1.007825032230
         H           -2.290174539055    -0.520071536785     1.289094472961     1.007825032230
         H           -2.969157539055    -0.818581536785    -0.311126527039     1.007825032230
         H            1.435488460945    -0.735033536785     1.330099472961     1.007825032230
         H            1.820807460945    -1.611689536785    -0.163329527039     1.007825032230
         H            2.816829460945     0.513032463215    -1.137785527039     1.007825032230
         H            2.532799460945     1.336280463215     0.415974472961     1.007825032230
         H            3.646525460945    -0.026299536785     0.320271472961     1.007825032230

  Basis Set: AUG-CC-PVTZ
    Blend: AUG-CC-PVTZ
  Basis Set: (AUG-CC-PVTZ AUX)
    Blend: AUG-CC-PVTZ-JKFIT
	 Reference Energy          =    -289.6798746991911457 [Eh]
	 Singles Energy            =      -0.0000000000000000 [Eh]
	 Same-Spin Energy          =      -0.3049096392591762 [Eh]
	 Opposite-Spin Energy      =      -1.0955937027224132 [Eh]
	 Correlation Energy        =      -1.4005033419815893 [Eh]
	 Total Energy              =    -291.0803780411727075 [Eh]

	 ================> DF-SCS-MP2 Energies <==================
	-----------------------------------------------------------
	 SCS Same-Spin Scale       =       0.3333333333333333 [-]
	 SCS Opposite-Spin Scale   =       1.2000000000000000 [-]
	 SCS Same-Spin Energy      =      -0.1016365464197254 [Eh]
	 SCS Opposite-Spin Energy  =      -1.3147124432668957 [Eh]
	 SCS Correlation Energy    =      -1.4163489896866213 [Eh]
	 SCS Total Energy          =    -291.0962236888777852 [Eh]
	-----------------------------------------------------------

  Dipole Moment: [D]
     X:     0.2770      Y:    -0.5677      Z:    -0.7581     Total:     0.9868

*** Psi4 exiting successfully. Buy a developer a beer!
