                               Psi4 1.3.2 release

  ==> Input File <==

--------------------------------------------------------------------------
#psi4
#
memory 32 gb

molecule  {
1 1
  N        0.2769550    -0.2036720    -0.3241330
  C       -0.2734970     1.1052870     0.1974480
  C       -0.8318510    -1.2416080    -0.1373660
  C       -1.7487720     1.0080340    -0.1478690
  C       -2.0899640    -0.4391570     0.2222400
  C        1.5135340    -0.5949849     0.2214399
  C        2.7021640     0.3718760    -0.0544870
  H        0.4198120    -0.0821770    -1.3354460
  H        0.2647170     1.9344670    -0.2636010
  H       -0.1049550     1.1121840     1.2781340
  H       -0.5119850    -1.9240980     0.6516280
  H       -0.9170180    -1.8004520    -1.0710850
  H       -1.9040400     1.1951860    -1.2159660
  H       -2.3418250     1.7391150     0.4059550
  H       -2.2892440    -0.5166410     1.2941000
  H       -2.9682270    -0.8151510    -0.3061210
  H        1.4364190    -0.7316030     1.3351050
  H        1.8217380    -1.6082590    -0.1583240
  H        2.8177600     0.5164630    -1.1327800
  H        2.5337300     1.3397110     0.4209800
  H        3.6474560    -0.0228690     0.3252770
units angstrom
no_reorient  #important for SAPT in psi4, default
symmetry c1  #important for SAPT in psi4, default
}

set PROPERTIES_ORIGIN ["COM"]
properties('MP2/aug-cc-pvtz', properties = ['dipole'])
--------------------------------------------------------------------------

    Molecular point group: c1
  Charge       = 1
  Multiplicity = 1
  Basis Set: AUG-CC-PVTZ
    Blend: AUG-CC-PVTZ
  Basis Set: (AUG-CC-PVTZ AUX)
    Blend: AUG-CC-PVTZ-JKFIT

    Orbital Energies [Eh]
    ---------------------

    Doubly Occupied:

       1A    -15.856048     2A    -11.453854     3A    -11.453083
       4A    -11.447943     5A    -11.395833     6A    -11.393806
       7A    -11.381438     8A     -1.514220     9A     -1.266561
      10A     -1.185721    11A     -1.167197    12A     -1.047408
      13A     -1.029209    14A     -0.986308    15A     -0.909068
      16A     -0.862415    17A     -0.828706    18A     -0.787589
      19A     -0.768362    20A     -0.766912    21A     -0.729952
      22A     -0.697065    23A     -0.691831    24A     -0.679662
      25A     -0.663113    26A     -0.658710    27A     -0.650792
      28A     -0.643251

  @DF-RHF Final Energy:  -289.69724940344014

   => Energetics <=

    Nuclear Repulsion Energy =            341.5200220697633426
    One-Electron Energy =               -1056.6024341219574580
    Two-Electron Energy =                 425.3851626487539193
    Total Energy =                       -289.6972494034401393
  Basis Set: (AUG-CC-PVTZ AUX)
    Blend: AUG-CC-PVTZ-RI
    Molecular point group: c1

    Geometry (in Angstrom), charge = 1, multiplicity = 1:

       Center              X                  Y                   Z               Mass
    ------------   -----------------  -----------------  -----------------  -----------------
         N            0.306353601314    -0.203670355371    -0.317217302709    14.003074004430
         C           -0.244098398686     1.105288644629     0.204363697291    12.000000000000
         C           -0.802452398686    -1.241606355371    -0.130450302709    12.000000000000
         C           -1.719373398686     1.008035644629    -0.140953302709    12.000000000000
         C           -2.060565398686    -0.439155355371     0.229155697291    12.000000000000
         C            1.542932601314    -0.594983255371     0.228355597291    12.000000000000
         C            2.731562601314     0.371877644629    -0.047571302709    12.000000000000
         H            0.449210601314    -0.082175355371    -1.328530302709     1.007825032230
         H            0.294115601314     1.934468644629    -0.256685302709     1.007825032230
         H           -0.075556398686     1.112185644629     1.285049697291     1.007825032230
         H           -0.482586398686    -1.924096355371     0.658543697291     1.007825032230
         H           -0.887619398686    -1.800450355371    -1.064169302709     1.007825032230
         H           -1.874641398686     1.195187644629    -1.209050302709     1.007825032230
         H           -2.312426398686     1.739116644629     0.412870697291     1.007825032230
         H           -2.259845398686    -0.516639355371     1.301015697291     1.007825032230
         H           -2.938828398686    -0.815149355371    -0.299205302709     1.007825032230
         H            1.465817601314    -0.731601355371     1.342020697291     1.007825032230
         H            1.851136601314    -1.608257355371    -0.151408302709     1.007825032230
         H            2.847158601314     0.516464644629    -1.125864302709     1.007825032230
         H            2.563128601314     1.339712644629     0.427895697291     1.007825032230
         H            3.676854601314    -0.022867355371     0.332192697291     1.007825032230

  Basis Set: AUG-CC-PVTZ
    Blend: AUG-CC-PVTZ
  Basis Set: (AUG-CC-PVTZ AUX)
    Blend: AUG-CC-PVTZ-JKFIT
	 Reference Energy          =    -289.6972494034401393 [Eh]
	 Singles Energy            =      -0.0000000000000000 [Eh]
	 Same-Spin Energy          =      -0.3038003036497435 [Eh]
	 Opposite-Spin Energy      =      -1.0929486218587523 [Eh]
	 Correlation Energy        =      -1.3967489255084957 [Eh]
	 Total Energy              =    -291.0939983289486577 [Eh]

	 ================> DF-SCS-MP2 Energies <==================
	-----------------------------------------------------------
	 SCS Same-Spin Scale       =       0.3333333333333333 [-]
	 SCS Opposite-Spin Scale   =       1.2000000000000000 [-]
	 SCS Same-Spin Energy      =      -0.1012667678832478 [Eh]
	 SCS Opposite-Spin Energy  =      -1.3115383462305028 [Eh]
	 SCS Correlation Energy    =      -1.4128051141137505 [Eh]
	 SCS Total Energy          =    -291.1100545175538628 [Eh]
	-----------------------------------------------------------

  Dipole Moment: [D]
     X:     0.5160      Y:    -0.4487      Z:    -0.7344     Total:     1.0035

*** Psi4 exiting successfully. Buy a developer a beer!
