                               Psi4 1.3.2 release

  ==> Input File <==

--------------------------------------------------------------------------
#psi4
#
memory 32 gb

molecule  {
1 1
  N        0.2769550    -0.2036720    -0.3241330
  C       -0.2683734     1.1425037     0.0987687
  C       -0.8318510    -1.2416080    -0.1373660
  C       -1.7487720     1.0080340    -0.1478690
  C       -2.0899640    -0.4391570     0.2222400
  C        1.6014160    -0.6227950     0.2602130
  C        2.7021640     0.3718760    -0.0544870
  H        0.4198120    -0.0821770    -1.3354460
  H        0.2647170     1.9344670    -0.2636010
  H       -0.1049550     1.1121840     1.2781340
  H       -0.5119850    -1.9240980     0.6516280
  H       -0.9170180    -1.8004520    -1.0710850
  H       -1.9040400     1.1951860    -1.2159660
  H       -2.3418250     1.7391150     0.4059550
  H       -2.2892440    -0.5166410     1.2941000
  H       -2.9682270    -0.8151510    -0.3061210
  H        1.4364190    -0.7316030     1.3351050
  H        1.8217380    -1.6082590    -0.1583240
  H        2.8177600     0.5164630    -1.1327800
  H        2.5337300     1.3397110     0.4209800
  H        3.6474560    -0.0228690     0.3252770
units angstrom
no_reorient  #important for SAPT in psi4, default
symmetry c1  #important for SAPT in psi4, default
}

set PROPERTIES_ORIGIN ["COM"]
properties('MP2/aug-cc-pvtz', properties = ['dipole'])
--------------------------------------------------------------------------

    Molecular point group: c1
  Charge       = 1
  Multiplicity = 1
  Basis Set: AUG-CC-PVTZ
    Blend: AUG-CC-PVTZ
  Basis Set: (AUG-CC-PVTZ AUX)
    Blend: AUG-CC-PVTZ-JKFIT

    Orbital Energies [Eh]
    ---------------------

    Doubly Occupied:

       1A    -15.850672     2A    -11.452216     3A    -11.451995
       4A    -11.451863     5A    -11.393696     6A    -11.392766
       7A    -11.382000     8A     -1.491300     9A     -1.259560
      10A     -1.184977    11A     -1.178151    12A     -1.041587
      13A     -1.019776    14A     -0.983170    15A     -0.912746
      16A     -0.854819    17A     -0.818763    18A     -0.776791
      19A     -0.774289    20A     -0.770253    21A     -0.732172
      22A     -0.697383    23A     -0.687362    24A     -0.674116
      25A     -0.671483    26A     -0.665548    27A     -0.659951
      28A     -0.635308

  @DF-RHF Final Energy:  -289.69303028960735

   => Energetics <=

    Nuclear Repulsion Energy =            339.8433967059302745
    One-Electron Energy =               -1053.3434270779496273
    Two-Electron Energy =                 423.8070000824120598
    Total Energy =                       -289.6930302896073499
  Basis Set: (AUG-CC-PVTZ AUX)
    Blend: AUG-CC-PVTZ-RI
    Molecular point group: c1

    Geometry (in Angstrom), charge = 1, multiplicity = 1:

       Center              X                  Y                   Z               Mass
    ------------   -----------------  -----------------  -----------------  -----------------
         N            0.295205484820    -0.204797877506    -0.310036645885    14.003074004430
         C           -0.250122915180     1.141377822494     0.112865054115    12.000000000000
         C           -0.813600515180    -1.242733877506    -0.123269645885    12.000000000000
         C           -1.730521515180     1.006908122494    -0.133772645885    12.000000000000
         C           -2.071713515180    -0.440282877506     0.236336354115    12.000000000000
         C            1.619666484820    -0.623920877506     0.274309354115    12.000000000000
         C            2.720414484820     0.370750122494    -0.040390645885    12.000000000000
         H            0.438062484820    -0.083302877506    -1.321349645885     1.007825032230
         H            0.282967484820     1.933341122494    -0.249504645885     1.007825032230
         H           -0.086704515180     1.111058122494     1.292230354115     1.007825032230
         H           -0.493734515180    -1.925223877506     0.665724354115     1.007825032230
         H           -0.898767515180    -1.801577877506    -1.056988645885     1.007825032230
         H           -1.885789515180     1.194060122494    -1.201869645885     1.007825032230
         H           -2.323574515180     1.737989122494     0.420051354115     1.007825032230
         H           -2.270993515180    -0.517766877506     1.308196354115     1.007825032230
         H           -2.949976515180    -0.816276877506    -0.292024645885     1.007825032230
         H            1.454669484820    -0.732728877506     1.349201354115     1.007825032230
         H            1.839988484820    -1.609384877506    -0.144227645885     1.007825032230
         H            2.836010484820     0.515337122494    -1.118683645885     1.007825032230
         H            2.551980484820     1.338585122494     0.435076354115     1.007825032230
         H            3.665706484820    -0.023994877506     0.339373354115     1.007825032230

  Basis Set: AUG-CC-PVTZ
    Blend: AUG-CC-PVTZ
  Basis Set: (AUG-CC-PVTZ AUX)
    Blend: AUG-CC-PVTZ-JKFIT
	 Reference Energy          =    -289.6930302896073499 [Eh]
	 Singles Energy            =      -0.0000000000000000 [Eh]
	 Same-Spin Energy          =      -0.3035219733982727 [Eh]
	 Opposite-Spin Energy      =      -1.0934672374774084 [Eh]
	 Correlation Energy        =      -1.3969892108756812 [Eh]
	 Total Energy              =    -291.0900195004830380 [Eh]

	 ================> DF-SCS-MP2 Energies <==================
	-----------------------------------------------------------
	 SCS Same-Spin Scale       =       0.3333333333333333 [-]
	 SCS Opposite-Spin Scale   =       1.2000000000000000 [-]
	 SCS Same-Spin Energy      =      -0.1011739911327576 [Eh]
	 SCS Opposite-Spin Energy  =      -1.3121606849728900 [Eh]
	 SCS Correlation Energy    =      -1.4133346761056476 [Eh]
	 SCS Total Energy          =    -291.1063649657129986 [Eh]
	-----------------------------------------------------------

  Dipole Moment: [D]
     X:     0.7257      Y:    -0.5180      Z:    -0.7330     Total:     1.1542

*** Psi4 exiting successfully. Buy a developer a beer!
