                               Psi4 1.3.2 release

  ==> Input File <==

--------------------------------------------------------------------------
#psi4
#
memory 32 gb

molecule  {
1 1
  N        0.2769550    -0.2036720    -0.3241330
  C       -0.3630823     1.0542662     0.2202579
  C       -0.8318510    -1.2416080    -0.1373660
  C       -1.7487720     1.0080340    -0.1478690
  C       -2.0899640    -0.4391570     0.2222400
  C        1.6014160    -0.6227950     0.2602130
  C        2.7021640     0.3718760    -0.0544870
  H        0.4198120    -0.0821770    -1.3354460
  H        0.2647170     1.9344670    -0.2636010
  H       -0.1049550     1.1121840     1.2781340
  H       -0.5119850    -1.9240980     0.6516280
  H       -0.9170180    -1.8004520    -1.0710850
  H       -1.9040400     1.1951860    -1.2159660
  H       -2.3418250     1.7391150     0.4059550
  H       -2.2892440    -0.5166410     1.2941000
  H       -2.9682270    -0.8151510    -0.3061210
  H        1.4364190    -0.7316030     1.3351050
  H        1.8217380    -1.6082590    -0.1583240
  H        2.8177600     0.5164630    -1.1327800
  H        2.5337300     1.3397110     0.4209800
  H        3.6474560    -0.0228690     0.3252770
units angstrom
no_reorient  #important for SAPT in psi4, default
symmetry c1  #important for SAPT in psi4, default
}

set PROPERTIES_ORIGIN ["COM"]
properties('MP2/aug-cc-pvtz', properties = ['dipole'])
--------------------------------------------------------------------------

    Molecular point group: c1
  Charge       = 1
  Multiplicity = 1
  Basis Set: AUG-CC-PVTZ
    Blend: AUG-CC-PVTZ
  Basis Set: (AUG-CC-PVTZ AUX)
    Blend: AUG-CC-PVTZ-JKFIT

    Orbital Energies [Eh]
    ---------------------

    Doubly Occupied:

       1A    -15.849352     2A    -11.454044     3A    -11.452635
       4A    -11.449560     5A    -11.391971     6A    -11.389514
       7A    -11.381344     8A     -1.492828     9A     -1.271781
      10A     -1.187695    11A     -1.173366    12A     -1.039722
      13A     -1.023932    14A     -0.985700    15A     -0.894214
      16A     -0.858506    17A     -0.830389    18A     -0.785959
      19A     -0.775364    20A     -0.758902    21A     -0.729349
      22A     -0.694973    23A     -0.689162    24A     -0.685523
      25A     -0.672179    26A     -0.664105    27A     -0.652002
      28A     -0.636910

  @DF-RHF Final Energy:  -289.69218748247903

   => Energetics <=

    Nuclear Repulsion Energy =            340.9623063902272406
    One-Electron Energy =               -1055.5670295846023237
    Two-Electron Energy =                 424.9125357118960551
    Total Energy =                       -289.6921874824790279
  Basis Set: (AUG-CC-PVTZ AUX)
    Blend: AUG-CC-PVTZ-RI
    Molecular point group: c1

    Geometry (in Angstrom), charge = 1, multiplicity = 1:

       Center              X                  Y                   Z               Mass
    ------------   -----------------  -----------------  -----------------  -----------------
         N            0.306557767373    -0.194221289330    -0.324598949170    14.003074004430
         C           -0.333479532627     1.063716910670     0.219791950830    12.000000000000
         C           -0.802248232627    -1.232157289330    -0.137831949170    12.000000000000
         C           -1.719169232627     1.017484710670    -0.148334949170    12.000000000000
         C           -2.060361232627    -0.429706289330     0.221774050830    12.000000000000
         C            1.631018767373    -0.613344289330     0.259747050830    12.000000000000
         C            2.731766767373     0.381326710670    -0.054952949170    12.000000000000
         H            0.449414767373    -0.072726289330    -1.335911949170     1.007825032230
         H            0.294319767373     1.943917710670    -0.264066949170     1.007825032230
         H           -0.075352232627     1.121634710670     1.277668050830     1.007825032230
         H           -0.482382232627    -1.914647289330     0.651162050830     1.007825032230
         H           -0.887415232627    -1.791001289330    -1.071550949170     1.007825032230
         H           -1.874437232627     1.204636710670    -1.216431949170     1.007825032230
         H           -2.312222232627     1.748565710670     0.405489050830     1.007825032230
         H           -2.259641232627    -0.507190289330     1.293634050830     1.007825032230
         H           -2.938624232627    -0.805700289330    -0.306586949170     1.007825032230
         H            1.466021767373    -0.722152289330     1.334639050830     1.007825032230
         H            1.851340767373    -1.598808289330    -0.158789949170     1.007825032230
         H            2.847362767373     0.525913710670    -1.133245949170     1.007825032230
         H            2.563332767373     1.349161710670     0.420514050830     1.007825032230
         H            3.677058767373    -0.013418289330     0.324811050830     1.007825032230

  Basis Set: AUG-CC-PVTZ
    Blend: AUG-CC-PVTZ
  Basis Set: (AUG-CC-PVTZ AUX)
    Blend: AUG-CC-PVTZ-JKFIT
	 Reference Energy          =    -289.6921874824790279 [Eh]
	 Singles Energy            =      -0.0000000000000000 [Eh]
	 Same-Spin Energy          =      -0.3043657552320642 [Eh]
	 Opposite-Spin Energy      =      -1.0940501246951031 [Eh]
	 Correlation Energy        =      -1.3984158799271673 [Eh]
	 Total Energy              =    -291.0906033624061706 [Eh]

	 ================> DF-SCS-MP2 Energies <==================
	-----------------------------------------------------------
	 SCS Same-Spin Scale       =       0.3333333333333333 [-]
	 SCS Opposite-Spin Scale   =       1.2000000000000000 [-]
	 SCS Same-Spin Energy      =      -0.1014552517440214 [Eh]
	 SCS Opposite-Spin Energy  =      -1.3128601496341237 [Eh]
	 SCS Correlation Energy    =      -1.4143154013781452 [Eh]
	 SCS Total Energy          =    -291.1065028838571607 [Eh]
	-----------------------------------------------------------

  Dipole Moment: [D]
     X:     0.7003      Y:    -0.4679      Z:    -0.6835     Total:     1.0846

*** Psi4 exiting successfully. Buy a developer a beer!
