                               Psi4 1.3.2 release

  ==> Input File <==

--------------------------------------------------------------------------
#psi4
#
memory 32 gb

molecule  {
1 1
  N        0.2769550    -0.2036720    -0.3241330
  C       -0.2734970     1.1052870     0.1974480
  C       -0.9285037    -1.1398992    -0.2146260
  C       -1.7487720     1.0080340    -0.1478690
  C       -2.0899640    -0.4391570     0.2222400
  C        1.6014160    -0.6227950     0.2602130
  C        2.7021640     0.3718760    -0.0544870
  H        0.4198120    -0.0821770    -1.3354460
  H        0.2647170     1.9344670    -0.2636010
  H       -0.1049550     1.1121840     1.2781340
  H       -0.5119850    -1.9240980     0.6516280
  H       -0.9170180    -1.8004520    -1.0710850
  H       -1.9040400     1.1951860    -1.2159660
  H       -2.3418250     1.7391150     0.4059550
  H       -2.2892440    -0.5166410     1.2941000
  H       -2.9682270    -0.8151510    -0.3061210
  H        1.4364190    -0.7316030     1.3351050
  H        1.8217380    -1.6082590    -0.1583240
  H        2.8177600     0.5164630    -1.1327800
  H        2.5337300     1.3397110     0.4209800
  H        3.6474560    -0.0228690     0.3252770
units angstrom
no_reorient  #important for SAPT in psi4, default
symmetry c1  #important for SAPT in psi4, default
}

set PROPERTIES_ORIGIN ["COM"]
properties('MP2/aug-cc-pvtz', properties = ['dipole'])
--------------------------------------------------------------------------

    Molecular point group: c1
  Charge       = 1
  Multiplicity = 1
  Basis Set: AUG-CC-PVTZ
    Blend: AUG-CC-PVTZ
  Basis Set: (AUG-CC-PVTZ AUX)
    Blend: AUG-CC-PVTZ-JKFIT

    Orbital Energies [Eh]
    ---------------------

    Doubly Occupied:

       1A    -15.849549     2A    -11.457846     3A    -11.452576
       4A    -11.449684     5A    -11.394955     6A    -11.387030
       7A    -11.382763     8A     -1.493312     9A     -1.274394
      10A     -1.183755    11A     -1.181773    12A     -1.041241
      13A     -1.018942    14A     -0.983134    15A     -0.906429
      16A     -0.854952    17A     -0.829554    18A     -0.783044
      19A     -0.769762    20A     -0.760707    21A     -0.735734
      22A     -0.700100    23A     -0.687931    24A     -0.680911
      25A     -0.670441    26A     -0.667334    27A     -0.660520
      28A     -0.619598

  @DF-RHF Final Energy:  -289.67739362890831

   => Energetics <=

    Nuclear Repulsion Energy =            341.1546427798096488
    One-Electron Energy =               -1055.9081239555525826
    Two-Electron Energy =                 425.0760875468346853
    Total Energy =                       -289.6773936289083053
  Basis Set: (AUG-CC-PVTZ AUX)
    Blend: AUG-CC-PVTZ-RI
    Molecular point group: c1

    Geometry (in Angstrom), charge = 1, multiplicity = 1:

       Center              X                  Y                   Z               Mass
    ------------   -----------------  -----------------  -----------------  -----------------
         N            0.307404901293    -0.212528223246    -0.312604070337    14.003074004430
         C           -0.243047098707     1.096430776754     0.208976929663    12.000000000000
         C           -0.898053798707    -1.148755423246    -0.203097070337    12.000000000000
         C           -1.718322098707     0.999177776754    -0.136340070337    12.000000000000
         C           -2.059514098707    -0.448013223246     0.233768929663    12.000000000000
         C            1.631865901293    -0.631651223246     0.271741929663    12.000000000000
         C            2.732613901293     0.363019776754    -0.042958070337    12.000000000000
         H            0.450261901293    -0.091033223246    -1.323917070337     1.007825032230
         H            0.295166901293     1.925610776754    -0.252072070337     1.007825032230
         H           -0.074505098707     1.103327776754     1.289662929663     1.007825032230
         H           -0.481535098707    -1.932954223246     0.663156929663     1.007825032230
         H           -0.886568098707    -1.809308223246    -1.059556070337     1.007825032230
         H           -1.873590098707     1.186329776754    -1.204437070337     1.007825032230
         H           -2.311375098707     1.730258776754     0.417483929663     1.007825032230
         H           -2.258794098707    -0.525497223246     1.305628929663     1.007825032230
         H           -2.937777098707    -0.824007223246    -0.294592070337     1.007825032230
         H            1.466868901293    -0.740459223246     1.346633929663     1.007825032230
         H            1.852187901293    -1.617115223246    -0.146795070337     1.007825032230
         H            2.848209901293     0.507606776754    -1.121251070337     1.007825032230
         H            2.564179901293     1.330854776754     0.432508929663     1.007825032230
         H            3.677905901293    -0.031725223246     0.336805929663     1.007825032230

  Basis Set: AUG-CC-PVTZ
    Blend: AUG-CC-PVTZ
  Basis Set: (AUG-CC-PVTZ AUX)
    Blend: AUG-CC-PVTZ-JKFIT
	 Reference Energy          =    -289.6773936289083053 [Eh]
	 Singles Energy            =      -0.0000000000000000 [Eh]
	 Same-Spin Energy          =      -0.3051762557709820 [Eh]
	 Opposite-Spin Energy      =      -1.0952372430247359 [Eh]
	 Correlation Energy        =      -1.4004134987957180 [Eh]
	 Total Energy              =    -291.0778071277040340 [Eh]

	 ================> DF-SCS-MP2 Energies <==================
	-----------------------------------------------------------
	 SCS Same-Spin Scale       =       0.3333333333333333 [-]
	 SCS Opposite-Spin Scale   =       1.2000000000000000 [-]
	 SCS Same-Spin Energy      =      -0.1017254185903273 [Eh]
	 SCS Opposite-Spin Energy  =      -1.3142846916296831 [Eh]
	 SCS Correlation Energy    =      -1.4160101102200104 [Eh]
	 SCS Total Energy          =    -291.0934037391282914 [Eh]
	-----------------------------------------------------------

  Dipole Moment: [D]
     X:     0.7156      Y:    -0.4347      Z:    -0.7234     Total:     1.1065

*** Psi4 exiting successfully. Buy a developer a beer!
