                               Psi4 1.3.2 release

  ==> Input File <==

--------------------------------------------------------------------------
#psi4
#
memory 32 gb

molecule  {
1 1
  N        0.2769550    -0.2036720    -0.3241330
  C       -0.2734970     1.1052870     0.1974480
  C       -0.8318510    -1.2416080    -0.1373660
  C       -1.7487720     1.0080340    -0.1478690
  C       -2.0899640    -0.4391570     0.2222400
  C        1.6014160    -0.6227950     0.2602130
  C        2.7021640     0.3718760    -0.0544870
  H        0.3920338    -0.1058014    -1.1387985
  H        0.2647170     1.9344670    -0.2636010
  H       -0.1049550     1.1121840     1.2781340
  H       -0.5119850    -1.9240980     0.6516280
  H       -0.9170180    -1.8004520    -1.0710850
  H       -1.9040400     1.1951860    -1.2159660
  H       -2.3418250     1.7391150     0.4059550
  H       -2.2892440    -0.5166410     1.2941000
  H       -2.9682270    -0.8151510    -0.3061210
  H        1.4364190    -0.7316030     1.3351050
  H        1.8217380    -1.6082590    -0.1583240
  H        2.8177600     0.5164630    -1.1327800
  H        2.5337300     1.3397110     0.4209800
  H        3.6474560    -0.0228690     0.3252770
units angstrom
no_reorient  #important for SAPT in psi4, default
symmetry c1  #important for SAPT in psi4, default
}

set PROPERTIES_ORIGIN ["COM"]
properties('MP2/aug-cc-pvtz', properties = ['dipole'])
--------------------------------------------------------------------------

    Molecular point group: c1
  Charge       = 1
  Multiplicity = 1
  Basis Set: AUG-CC-PVTZ
    Blend: AUG-CC-PVTZ
  Basis Set: (AUG-CC-PVTZ AUX)
    Blend: AUG-CC-PVTZ-JKFIT

    Orbital Energies [Eh]
    ---------------------

    Doubly Occupied:

       1A    -15.830817     2A    -11.452712     3A    -11.452162
       4A    -11.451208     5A    -11.394270     6A    -11.392456
       7A    -11.382310     8A     -1.526052     9A     -1.264200
      10A     -1.192298    11A     -1.181144    12A     -1.061539
      13A     -1.041454    14A     -0.982908    15A     -0.912904
      16A     -0.856505    17A     -0.828894    18A     -0.787059
      19A     -0.784881    20A     -0.763988    21A     -0.731101
      22A     -0.700887    23A     -0.690677    24A     -0.682008
      25A     -0.672427    26A     -0.665187    27A     -0.658293
      28A     -0.644312

  @DF-RHF Final Energy:  -289.66743947540948

   => Energetics <=

    Nuclear Repulsion Energy =            341.4201267529840607
    One-Electron Energy =               -1056.2058225928560660
    Two-Electron Energy =                 425.1182563644625247
    Total Energy =                       -289.6674394754094806
  Basis Set: (AUG-CC-PVTZ AUX)
    Blend: AUG-CC-PVTZ-RI
    Molecular point group: c1

    Geometry (in Angstrom), charge = 1, multiplicity = 1:

       Center              X                  Y                   Z               Mass
    ------------   -----------------  -----------------  -----------------  -----------------
         N            0.296099265857    -0.200099072892    -0.323844473624    14.003074004430
         C           -0.254352734143     1.108859927108     0.197736526376    12.000000000000
         C           -0.812706734143    -1.238035072892    -0.137077473624    12.000000000000
         C           -1.729627734143     1.011606927108    -0.147580473624    12.000000000000
         C           -2.070819734143    -0.435584072892     0.222528526376    12.000000000000
         C            1.620560265857    -0.619222072892     0.260501526376    12.000000000000
         C            2.721308265857     0.375448927108    -0.054198473624    12.000000000000
         H            0.411178065857    -0.102228472892    -1.138509973624     1.007825032230
         H            0.283861265857     1.938039927108    -0.263312473624     1.007825032230
         H           -0.085810734143     1.115756927108     1.278422526376     1.007825032230
         H           -0.492840734143    -1.920525072892     0.651916526376     1.007825032230
         H           -0.897873734143    -1.796879072892    -1.070796473624     1.007825032230
         H           -1.884895734143     1.198758927108    -1.215677473624     1.007825032230
         H           -2.322680734143     1.742687927108     0.406243526376     1.007825032230
         H           -2.270099734143    -0.513068072892     1.294388526376     1.007825032230
         H           -2.949082734143    -0.811578072892    -0.305832473624     1.007825032230
         H            1.455563265857    -0.728030072892     1.335393526376     1.007825032230
         H            1.840882265857    -1.604686072892    -0.158035473624     1.007825032230
         H            2.836904265857     0.520035927108    -1.132491473624     1.007825032230
         H            2.552874265857     1.343283927108     0.421268526376     1.007825032230
         H            3.666600265857    -0.019296072892     0.325565526376     1.007825032230

  Basis Set: AUG-CC-PVTZ
    Blend: AUG-CC-PVTZ
  Basis Set: (AUG-CC-PVTZ AUX)
    Blend: AUG-CC-PVTZ-JKFIT
	 Reference Energy          =    -289.6674394754094806 [Eh]
	 Singles Energy            =      -0.0000000000000000 [Eh]
	 Same-Spin Energy          =      -0.3018483670593306 [Eh]
	 Opposite-Spin Energy      =      -1.0893046552108854 [Eh]
	 Correlation Energy        =      -1.3911530222702160 [Eh]
	 Total Energy              =    -291.0585924976796832 [Eh]

	 ================> DF-SCS-MP2 Energies <==================
	-----------------------------------------------------------
	 SCS Same-Spin Scale       =       0.3333333333333333 [-]
	 SCS Opposite-Spin Scale   =       1.2000000000000000 [-]
	 SCS Same-Spin Energy      =      -0.1006161223531102 [Eh]
	 SCS Opposite-Spin Energy  =      -1.3071655862530625 [Eh]
	 SCS Correlation Energy    =      -1.4077817086061726 [Eh]
	 SCS Total Energy          =    -291.0752211840156747 [Eh]
	-----------------------------------------------------------

  Dipole Moment: [D]
     X:     0.6859      Y:    -0.4901      Z:    -0.5169     Total:     0.9889

*** Psi4 exiting successfully. Buy a developer a beer!
