                               Psi4 1.3.2 release

  ==> Input File <==

--------------------------------------------------------------------------
#psi4
#
memory 32 gb

molecule  {
1 1
  N        0.1294019    -0.2377006    -0.3704205
  C       -0.2734970     1.1052870     0.1974480
  C       -0.8318510    -1.2416080    -0.1373660
  C       -1.7487720     1.0080340    -0.1478690
  C       -2.0899640    -0.4391570     0.2222400
  C        1.6014160    -0.6227950     0.2602130
  C        2.7021640     0.3718760    -0.0544870
  H        0.4198120    -0.0821770    -1.3354460
  H        0.2647170     1.9344670    -0.2636010
  H       -0.1049550     1.1121840     1.2781340
  H       -0.5119850    -1.9240980     0.6516280
  H       -0.9170180    -1.8004520    -1.0710850
  H       -1.9040400     1.1951860    -1.2159660
  H       -2.3418250     1.7391150     0.4059550
  H       -2.2892440    -0.5166410     1.2941000
  H       -2.9682270    -0.8151510    -0.3061210
  H        1.4364190    -0.7316030     1.3351050
  H        1.8217380    -1.6082590    -0.1583240
  H        2.8177600     0.5164630    -1.1327800
  H        2.5337300     1.3397110     0.4209800
  H        3.6474560    -0.0228690     0.3252770
units angstrom
no_reorient  #important for SAPT in psi4, default
symmetry c1  #important for SAPT in psi4, default
}

set PROPERTIES_ORIGIN ["COM"]
properties('MP2/aug-cc-pvtz', properties = ['dipole'])
--------------------------------------------------------------------------

    Molecular point group: c1
  Charge       = 1
  Multiplicity = 1
  Basis Set: AUG-CC-PVTZ
    Blend: AUG-CC-PVTZ
  Basis Set: (AUG-CC-PVTZ AUX)
    Blend: AUG-CC-PVTZ-JKFIT

    Orbital Energies [Eh]
    ---------------------

    Doubly Occupied:

       1A    -15.845830     2A    -11.465291     3A    -11.448812
       4A    -11.437383     5A    -11.388652     6A    -11.387722
       7A    -11.385361     8A     -1.498148     9A     -1.247149
      10A     -1.197718    11A     -1.176260    12A     -1.030909
      13A     -1.025267    14A     -0.980121    15A     -0.914424
      16A     -0.851717    17A     -0.817452    18A     -0.795407
      19A     -0.772789    20A     -0.761499    21A     -0.729869
      22A     -0.705494    23A     -0.689044    24A     -0.678277
      25A     -0.661724    26A     -0.655959    27A     -0.649732
      28A     -0.637636

  @DF-RHF Final Energy:  -289.68239450897977

   => Energetics <=

    Nuclear Repulsion Energy =            340.4284207010588830
    One-Electron Energy =               -1054.5503362074521192
    Two-Electron Energy =                 424.4395209974134104
    Total Energy =                       -289.6823945089797689
  Basis Set: (AUG-CC-PVTZ AUX)
    Blend: AUG-CC-PVTZ-RI
    Molecular point group: c1

    Geometry (in Angstrom), charge = 1, multiplicity = 1:

       Center              X                  Y                   Z               Mass
    ------------   -----------------  -----------------  -----------------  -----------------
         N            0.168905250684    -0.229605808193    -0.361677959302    14.003074004430
         C           -0.233993649316     1.113381791807     0.206190540698    12.000000000000
         C           -0.792347649316    -1.233513208193    -0.128623459302    12.000000000000
         C           -1.709268649316     1.016128791807    -0.139126459302    12.000000000000
         C           -2.050460649316    -0.431062208193     0.230982540698    12.000000000000
         C            1.640919350684    -0.614700208193     0.268955540698    12.000000000000
         C            2.741667350684     0.379970791807    -0.045744459302    12.000000000000
         H            0.459315350684    -0.074082208193    -1.326703459302     1.007825032230
         H            0.304220350684     1.942561791807    -0.254858459302     1.007825032230
         H           -0.065451649316     1.120278791807     1.286876540698     1.007825032230
         H           -0.472481649316    -1.916003208193     0.660370540698     1.007825032230
         H           -0.877514649316    -1.792357208193    -1.062342459302     1.007825032230
         H           -1.864536649316     1.203280791807    -1.207223459302     1.007825032230
         H           -2.302321649316     1.747209791807     0.414697540698     1.007825032230
         H           -2.249740649316    -0.508546208193     1.302842540698     1.007825032230
         H           -2.928723649316    -0.807056208193    -0.297378459302     1.007825032230
         H            1.475922350684    -0.723508208193     1.343847540698     1.007825032230
         H            1.861241350684    -1.600164208193    -0.149581459302     1.007825032230
         H            2.857263350684     0.524557791807    -1.124037459302     1.007825032230
         H            2.573233350684     1.347805791807     0.429722540698     1.007825032230
         H            3.686959350684    -0.014774208193     0.334019540698     1.007825032230

  Basis Set: AUG-CC-PVTZ
    Blend: AUG-CC-PVTZ
  Basis Set: (AUG-CC-PVTZ AUX)
    Blend: AUG-CC-PVTZ-JKFIT
	 Reference Energy          =    -289.6823945089797689 [Eh]
	 Singles Energy            =      -0.0000000000000000 [Eh]
	 Same-Spin Energy          =      -0.3044192895124705 [Eh]
	 Opposite-Spin Energy      =      -1.0947151523513075 [Eh]
	 Correlation Energy        =      -1.3991344418637781 [Eh]
	 Total Energy              =    -291.0815289508435626 [Eh]

	 ================> DF-SCS-MP2 Energies <==================
	-----------------------------------------------------------
	 SCS Same-Spin Scale       =       0.3333333333333333 [-]
	 SCS Opposite-Spin Scale   =       1.2000000000000000 [-]
	 SCS Same-Spin Energy      =      -0.1014730965041568 [Eh]
	 SCS Opposite-Spin Energy  =      -1.3136581828215690 [Eh]
	 SCS Correlation Energy    =      -1.4151312793257258 [Eh]
	 SCS Total Energy          =    -291.0975257883055178 [Eh]
	-----------------------------------------------------------

  Dipole Moment: [D]
     X:     1.2185      Y:    -0.4012      Z:    -0.6526     Total:     1.4394

*** Psi4 exiting successfully. Buy a developer a beer!
