                               Psi4 1.3.2 release

  ==> Input File <==

--------------------------------------------------------------------------
#psi4
#
memory 32 gb

molecule  {
1 1
  N        0.2422256    -0.2293237    -0.2937366
  C       -0.2734970     1.1052870     0.1974480
  C       -0.8318510    -1.2416080    -0.1373660
  C       -1.7487720     1.0080340    -0.1478690
  C       -2.0899640    -0.4391570     0.2222400
  C        1.6014160    -0.6227950     0.2602130
  C        2.7021640     0.3718760    -0.0544870
  H        0.4198120    -0.0821770    -1.3354460
  H        0.2647170     1.9344670    -0.2636010
  H       -0.1049550     1.1121840     1.2781340
  H       -0.5119850    -1.9240980     0.6516280
  H       -0.9170180    -1.8004520    -1.0710850
  H       -1.9040400     1.1951860    -1.2159660
  H       -2.3418250     1.7391150     0.4059550
  H       -2.2892440    -0.5166410     1.2941000
  H       -2.9682270    -0.8151510    -0.3061210
  H        1.4364190    -0.7316030     1.3351050
  H        1.8217380    -1.6082590    -0.1583240
  H        2.8177600     0.5164630    -1.1327800
  H        2.5337300     1.3397110     0.4209800
  H        3.6474560    -0.0228690     0.3252770
units angstrom
no_reorient  #important for SAPT in psi4, default
symmetry c1  #important for SAPT in psi4, default
}

set PROPERTIES_ORIGIN ["COM"]
properties('MP2/aug-cc-pvtz', properties = ['dipole'])
--------------------------------------------------------------------------

    Molecular point group: c1
  Charge       = 1
  Multiplicity = 1
  Basis Set: AUG-CC-PVTZ
    Blend: AUG-CC-PVTZ
  Basis Set: (AUG-CC-PVTZ AUX)
    Blend: AUG-CC-PVTZ-JKFIT

    Orbital Energies [Eh]
    ---------------------

    Doubly Occupied:

       1A    -15.852953     2A    -11.453274     3A    -11.449956
       4A    -11.446293     5A    -11.392435     6A    -11.390247
       7A    -11.383799     8A     -1.493832     9A     -1.257915
      10A     -1.188491    11A     -1.174103    12A     -1.040981
      13A     -1.017177    14A     -0.982744    15A     -0.906117
      16A     -0.854638    17A     -0.823295    18A     -0.784632
      19A     -0.769440    20A     -0.765730    21A     -0.729660
      22A     -0.696892    23A     -0.688845    24A     -0.677096
      25A     -0.671055    26A     -0.663921    27A     -0.657305
      28A     -0.642058

  @DF-RHF Final Energy:  -289.70183507260703

   => Energetics <=

    Nuclear Repulsion Energy =            340.3913281350737066
    One-Electron Energy =               -1054.4765541282215509
    Two-Electron Energy =                 424.3833909205407622
    Total Energy =                       -289.7018350726070253
  Basis Set: (AUG-CC-PVTZ AUX)
    Blend: AUG-CC-PVTZ-RI
    Molecular point group: c1

    Geometry (in Angstrom), charge = 1, multiplicity = 1:

       Center              X                  Y                   Z               Mass
    ------------   -----------------  -----------------  -----------------  -----------------
         N            0.265947937758    -0.222400612075    -0.295720082443    14.003074004430
         C           -0.249774662242     1.112210087925     0.195464517557    12.000000000000
         C           -0.808128662242    -1.234684912075    -0.139349482443    12.000000000000
         C           -1.725049662242     1.014957087925    -0.149852482443    12.000000000000
         C           -2.066241662242    -0.432233912075     0.220256517557    12.000000000000
         C            1.625138337758    -0.615871912075     0.258229517557    12.000000000000
         C            2.725886337758     0.378799087925    -0.056470482443    12.000000000000
         H            0.443534337758    -0.075253912075    -1.337429482443     1.007825032230
         H            0.288439337758     1.941390087925    -0.265584482443     1.007825032230
         H           -0.081232662242     1.119107087925     1.276150517557     1.007825032230
         H           -0.488262662242    -1.917174912075     0.649644517557     1.007825032230
         H           -0.893295662242    -1.793528912075    -1.073068482443     1.007825032230
         H           -1.880317662242     1.202109087925    -1.217949482443     1.007825032230
         H           -2.318102662242     1.746038087925     0.403971517557     1.007825032230
         H           -2.265521662242    -0.509717912075     1.292116517557     1.007825032230
         H           -2.944504662242    -0.808227912075    -0.308104482443     1.007825032230
         H            1.460141337758    -0.724679912075     1.333121517557     1.007825032230
         H            1.845460337758    -1.601335912075    -0.160307482443     1.007825032230
         H            2.841482337758     0.523386087925    -1.134763482443     1.007825032230
         H            2.557452337758     1.346634087925     0.418996517557     1.007825032230
         H            3.671178337758    -0.015945912075     0.323293517557     1.007825032230

  Basis Set: AUG-CC-PVTZ
    Blend: AUG-CC-PVTZ
  Basis Set: (AUG-CC-PVTZ AUX)
    Blend: AUG-CC-PVTZ-JKFIT
	 Reference Energy          =    -289.7018350726070253 [Eh]
	 Singles Energy            =      -0.0000000000000000 [Eh]
	 Same-Spin Energy          =      -0.3037992832125107 [Eh]
	 Opposite-Spin Energy      =      -1.0936008707753007 [Eh]
	 Correlation Energy        =      -1.3974001539878114 [Eh]
	 Total Energy              =    -291.0992352265948284 [Eh]

	 ================> DF-SCS-MP2 Energies <==================
	-----------------------------------------------------------
	 SCS Same-Spin Scale       =       0.3333333333333333 [-]
	 SCS Opposite-Spin Scale   =       1.2000000000000000 [-]
	 SCS Same-Spin Energy      =      -0.1012664277375036 [Eh]
	 SCS Opposite-Spin Energy  =      -1.3123210449303608 [Eh]
	 SCS Correlation Energy    =      -1.4135874726678643 [Eh]
	 SCS Total Energy          =    -291.1154225452748960 [Eh]
	-----------------------------------------------------------

  Dipole Moment: [D]
     X:     0.8355      Y:    -0.4227      Z:    -0.7441     Total:     1.1960

*** Psi4 exiting successfully. Buy a developer a beer!
