                               Psi4 1.3.2 release

  ==> Input File <==

--------------------------------------------------------------------------
#psi4
#
memory 32 gb

molecule  {
1 1
  N        0.3232623    -0.2022093    -0.4185742
  C       -0.2734970     1.1052870     0.1974480
  C       -0.8318510    -1.2416080    -0.1373660
  C       -1.7487720     1.0080340    -0.1478690
  C       -2.0899640    -0.4391570     0.2222400
  C        1.6014160    -0.6227950     0.2602130
  C        2.7021640     0.3718760    -0.0544870
  H        0.4198120    -0.0821770    -1.3354460
  H        0.2647170     1.9344670    -0.2636010
  H       -0.1049550     1.1121840     1.2781340
  H       -0.5119850    -1.9240980     0.6516280
  H       -0.9170180    -1.8004520    -1.0710850
  H       -1.9040400     1.1951860    -1.2159660
  H       -2.3418250     1.7391150     0.4059550
  H       -2.2892440    -0.5166410     1.2941000
  H       -2.9682270    -0.8151510    -0.3061210
  H        1.4364190    -0.7316030     1.3351050
  H        1.8217380    -1.6082590    -0.1583240
  H        2.8177600     0.5164630    -1.1327800
  H        2.5337300     1.3397110     0.4209800
  H        3.6474560    -0.0228690     0.3252770
units angstrom
no_reorient  #important for SAPT in psi4, default
symmetry c1  #important for SAPT in psi4, default
}

set PROPERTIES_ORIGIN ["COM"]
properties('MP2/aug-cc-pvtz', properties = ['dipole'])
--------------------------------------------------------------------------

    Molecular point group: c1
  Charge       = 1
  Multiplicity = 1
  Basis Set: AUG-CC-PVTZ
    Blend: AUG-CC-PVTZ
  Basis Set: (AUG-CC-PVTZ AUX)
    Blend: AUG-CC-PVTZ-JKFIT

    Orbital Energies [Eh]
    ---------------------

    Doubly Occupied:

       1A    -15.839942     2A    -11.454421     3A    -11.454148
       4A    -11.450388     5A    -11.394507     6A    -11.392878
       7A    -11.378845     8A     -1.485732     9A     -1.259769
      10A     -1.183695    11A     -1.171597    12A     -1.044747
      13A     -1.036145    14A     -0.976977    15A     -0.896817
      16A     -0.849918    17A     -0.825844    18A     -0.786853
      19A     -0.786676    20A     -0.759403    21A     -0.720671
      22A     -0.703218    23A     -0.687262    24A     -0.676831
      25A     -0.667266    26A     -0.661626    27A     -0.655547
      28A     -0.643159

  @DF-RHF Final Energy:  -289.69291723323158

   => Energetics <=

    Nuclear Repulsion Energy =            339.0113182141016068
    One-Electron Energy =               -1051.7187067420870790
    Two-Electron Energy =                 423.0144712947538892
    Total Energy =                       -289.6929172332315829
  Basis Set: (AUG-CC-PVTZ AUX)
    Blend: AUG-CC-PVTZ-RI
    Molecular point group: c1

    Geometry (in Angstrom), charge = 1, multiplicity = 1:

       Center              X                  Y                   Z               Mass
    ------------   -----------------  -----------------  -----------------  -----------------
         N            0.335649774515    -0.199078790202    -0.403096246777    14.003074004430
         C           -0.261109525485     1.108417509798     0.212925953223    12.000000000000
         C           -0.819463525485    -1.238477490202    -0.121888046777    12.000000000000
         C           -1.736384525485     1.011164509798    -0.132391046777    12.000000000000
         C           -2.077576525485    -0.436026490202     0.237717953223    12.000000000000
         C            1.613803474515    -0.619664490202     0.275690953223    12.000000000000
         C            2.714551474515     0.375006509798    -0.039009046777    12.000000000000
         H            0.432199474515    -0.079046490202    -1.319968046777     1.007825032230
         H            0.277104474515     1.937597509798    -0.248123046777     1.007825032230
         H           -0.092567525485     1.115314509798     1.293611953223     1.007825032230
         H           -0.499597525485    -1.920967490202     0.667105953223     1.007825032230
         H           -0.904630525485    -1.797321490202    -1.055607046777     1.007825032230
         H           -1.891652525485     1.198316509798    -1.200488046777     1.007825032230
         H           -2.329437525485     1.742245509798     0.421432953223     1.007825032230
         H           -2.276856525485    -0.513510490202     1.309577953223     1.007825032230
         H           -2.955839525485    -0.812020490202    -0.290643046777     1.007825032230
         H            1.448806474515    -0.728472490202     1.350582953223     1.007825032230
         H            1.834125474515    -1.605128490202    -0.142846046777     1.007825032230
         H            2.830147474515     0.519593509798    -1.117302046777     1.007825032230
         H            2.546117474515     1.342841509798     0.436457953223     1.007825032230
         H            3.659843474515    -0.019738490202     0.340754953223     1.007825032230

  Basis Set: AUG-CC-PVTZ
    Blend: AUG-CC-PVTZ
  Basis Set: (AUG-CC-PVTZ AUX)
    Blend: AUG-CC-PVTZ-JKFIT
	 Reference Energy          =    -289.6929172332315829 [Eh]
	 Singles Energy            =      -0.0000000000000000 [Eh]
	 Same-Spin Energy          =      -0.3023519410879228 [Eh]
	 Opposite-Spin Energy      =      -1.0920595339189803 [Eh]
	 Correlation Energy        =      -1.3944114750069030 [Eh]
	 Total Energy              =    -291.0873287082384877 [Eh]

	 ================> DF-SCS-MP2 Energies <==================
	-----------------------------------------------------------
	 SCS Same-Spin Scale       =       0.3333333333333333 [-]
	 SCS Opposite-Spin Scale   =       1.2000000000000000 [-]
	 SCS Same-Spin Energy      =      -0.1007839803626409 [Eh]
	 SCS Opposite-Spin Energy  =      -1.3104714407027762 [Eh]
	 SCS Correlation Energy    =      -1.4112554210654171 [Eh]
	 SCS Total Energy          =    -291.1041726542969741 [Eh]
	-----------------------------------------------------------

  Dipole Moment: [D]
     X:     0.5823      Y:    -0.4730      Z:    -0.5630     Total:     0.9380

*** Psi4 exiting successfully. Buy a developer a beer!
