                               Psi4 1.4a3.dev225

  ==> Input File <==

--------------------------------------------------------------------------
#psi4
#
memory 32 gb

molecule  {
1 1
  N        0.2769550    -0.2036720    -0.3241330
  C       -0.2734970     1.1052870     0.1974480
  C       -0.8318510    -1.2416080    -0.1373660
  C       -1.7487720     1.0080340    -0.1478690
  C       -2.0899640    -0.4391570     0.2222400
  C        1.5574750    -0.6088900     0.2408264
  C        2.7021640     0.3718760    -0.0544870
  H        0.4198120    -0.0821770    -1.3354460
  H        0.2647170     1.9344670    -0.2636010
  H       -0.1049550     1.1121840     1.2781340
  H       -0.5119850    -1.9240980     0.6516280
  H       -0.9170180    -1.8004520    -1.0710850
  H       -1.9040400     1.1951860    -1.2159660
  H       -2.3418250     1.7391150     0.4059550
  H       -2.2892440    -0.5166410     1.2941000
  H       -2.9682270    -0.8151510    -0.3061210
  H        1.4364190    -0.7316030     1.3351050
  H        1.8217380    -1.6082590    -0.1583240
  H        2.8177600     0.5164630    -1.1327800
  H        2.5337300     1.3397110     0.4209800
  H        3.6474560    -0.0228690     0.3252770
units angstrom
no_reorient  #important for SAPT in psi4, default
symmetry c1  #important for SAPT in psi4, default
}

set PROPERTIES_ORIGIN ["COM"]
properties('MP2/aug-cc-pvtz', properties = ['dipole'])
--------------------------------------------------------------------------

    Molecular point group: c1
  Charge       = 1
  Multiplicity = 1
  Basis Set: AUG-CC-PVTZ
    Blend: AUG-CC-PVTZ
  Basis Set: (AUG-CC-PVTZ AUX)
    Blend: AUG-CC-PVTZ-JKFIT

    Orbital Energies [Eh]
    ---------------------

    Doubly Occupied:

       1A    -15.853448     2A    -11.452246     3A    -11.451475
       4A    -11.449303     5A    -11.394607     6A    -11.392646
       7A    -11.381314     8A     -1.501887     9A     -1.262644
      10A     -1.183839    11A     -1.172119    12A     -1.043361
      13A     -1.026814    14A     -0.983789    15A     -0.905784
      16A     -0.858182    17A     -0.826471    18A     -0.785997
      19A     -0.771458    20A     -0.764257    21A     -0.729986
      22A     -0.695287    23A     -0.686377    24A     -0.682739
      25A     -0.667266    26A     -0.661627    27A     -0.655703
      28A     -0.643888

  @DF-RHF Final Energy:  -289.70421103917698

   => Energetics <=

    Nuclear Repulsion Energy =            340.7604052919045898
    One-Electron Energy =               -1055.1602075148150561
    Two-Electron Energy =                 424.6955911837334838
    Total Energy =                       -289.7042110391769825
  Basis Set: (AUG-CC-PVTZ AUX)
    Blend: AUG-CC-PVTZ-RI
    Molecular point group: c1

    Geometry (in Angstrom), charge = 1, multiplicity = 1:

       Center              X                  Y                   Z               Mass
    ------------   -----------------  -----------------  -----------------  -----------------
         N            0.301086613231    -0.202003620522    -0.319541065584    14.003074004430
         C           -0.249365386769     1.106955379478     0.202039934416    12.000000000000
         C           -0.807719386769    -1.239939620522    -0.132774065584    12.000000000000
         C           -1.724640386769     1.009702379478    -0.143277065584    12.000000000000
         C           -2.065832386769    -0.437488620522     0.226831934416    12.000000000000
         C            1.581606613231    -0.607221620522     0.245418334416    12.000000000000
         C            2.726295613231     0.373544379478    -0.049895065584    12.000000000000
         H            0.443943613231    -0.080508620522    -1.330854065584     1.007825032230
         H            0.288848613231     1.936135379478    -0.259009065584     1.007825032230
         H           -0.080823386769     1.113852379478     1.282725934416     1.007825032230
         H           -0.487853386769    -1.922429620522     0.656219934416     1.007825032230
         H           -0.892886386769    -1.798783620522    -1.066493065584     1.007825032230
         H           -1.879908386769     1.196854379478    -1.211374065584     1.007825032230
         H           -2.317693386769     1.740783379478     0.410546934416     1.007825032230
         H           -2.265112386769    -0.514972620522     1.298691934416     1.007825032230
         H           -2.944095386769    -0.813482620522    -0.301529065584     1.007825032230
         H            1.460550613231    -0.729934620522     1.339696934416     1.007825032230
         H            1.845869613231    -1.606590620522    -0.153732065584     1.007825032230
         H            2.841891613231     0.518131379478    -1.128188065584     1.007825032230
         H            2.557861613231     1.341379379478     0.425571934416     1.007825032230
         H            3.671587613231    -0.021200620522     0.329868934416     1.007825032230

  Basis Set: AUG-CC-PVTZ
    Blend: AUG-CC-PVTZ
  Basis Set: (AUG-CC-PVTZ AUX)
    Blend: AUG-CC-PVTZ-JKFIT
	 Reference Energy          =    -289.7042110391769825 [Eh]
	 Singles Energy            =      -0.0000000000000000 [Eh]
	 Same-Spin Energy          =      -0.3034276032162493 [Eh]
	 Opposite-Spin Energy      =      -1.0927073936879070 [Eh]
	 Correlation Energy        =      -1.3961349969041563 [Eh]
	 Total Energy              =    -291.1003460360811346 [Eh]

	 ================> DF-SCS-MP2 Energies <==================
	-----------------------------------------------------------
	 SCS Same-Spin Scale       =       0.3333333333333333 [-]
	 SCS Opposite-Spin Scale   =       1.2000000000000000 [-]
	 SCS Same-Spin Energy      =      -0.1011425344054164 [Eh]
	 SCS Opposite-Spin Energy  =      -1.3112488724254885 [Eh]
	 SCS Correlation Energy    =      -1.4123914068309049 [Eh]
	 SCS Total Energy          =    -291.1166024460079029 [Eh]
	-----------------------------------------------------------

  Dipole Moment: [D]
     X:     0.6140      Y:    -0.4623      Z:    -0.7206     Total:     1.0536

*** Psi4 exiting successfully. Buy a developer a beer!
