                               Psi4 1.3.2 release

  ==> Input File <==

--------------------------------------------------------------------------
#psi4
#
memory 32 gb

molecule  {
1 1
  N        0.2769550    -0.2036720    -0.3241330
  C       -0.2734970     1.1052870     0.1974480
  C       -0.8318510    -1.2416080    -0.1373660
  C       -1.7487720     1.0080340    -0.1478690
  C       -2.0899640    -0.4391570     0.2222400
  C        1.6014160    -0.6227950     0.2602130
  C        2.7021640     0.3718760    -0.0544870
  H        0.4337011    -0.0703648    -1.4337698
  H        0.2647170     1.9344670    -0.2636010
  H       -0.1049550     1.1121840     1.2781340
  H       -0.5119850    -1.9240980     0.6516280
  H       -0.9170180    -1.8004520    -1.0710850
  H       -1.9040400     1.1951860    -1.2159660
  H       -2.3418250     1.7391150     0.4059550
  H       -2.2892440    -0.5166410     1.2941000
  H       -2.9682270    -0.8151510    -0.3061210
  H        1.4364190    -0.7316030     1.3351050
  H        1.8217380    -1.6082590    -0.1583240
  H        2.8177600     0.5164630    -1.1327800
  H        2.5337300     1.3397110     0.4209800
  H        3.6474560    -0.0228690     0.3252770
units angstrom
no_reorient  #important for SAPT in psi4, default
symmetry c1  #important for SAPT in psi4, default
}

set PROPERTIES_ORIGIN ["COM"]
properties('MP2/aug-cc-pvtz', properties = ['dipole'])
--------------------------------------------------------------------------

    Molecular point group: c1
  Charge       = 1
  Multiplicity = 1
  Basis Set: AUG-CC-PVTZ
    Blend: AUG-CC-PVTZ
  Basis Set: (AUG-CC-PVTZ AUX)
    Blend: AUG-CC-PVTZ-JKFIT

    Orbital Energies [Eh]
    ---------------------

    Doubly Occupied:

       1A    -15.857324     2A    -11.450952     3A    -11.449697
       4A    -11.449068     5A    -11.392670     6A    -11.390766
       7A    -11.381184     8A     -1.480068     9A     -1.257492
      10A     -1.181296    11A     -1.172569    12A     -1.039460
      13A     -1.009880    14A     -0.980391    15A     -0.895904
      16A     -0.852424    17A     -0.822987    18A     -0.783727
      19A     -0.768725    20A     -0.760448    21A     -0.728868
      22A     -0.689446    23A     -0.688916    24A     -0.678273
      25A     -0.670202    26A     -0.662932    27A     -0.656514
      28A     -0.642212

  @DF-RHF Final Energy:  -289.69599063679084

   => Energetics <=

    Nuclear Repulsion Energy =            339.4593895414878375
    One-Electron Energy =               -1052.7219670914910239
    Two-Electron Energy =                 423.5665869132124044
    Total Energy =                       -289.6959906367908388
  Basis Set: (AUG-CC-PVTZ AUX)
    Blend: AUG-CC-PVTZ-RI
    Molecular point group: c1

    Geometry (in Angstrom), charge = 1, multiplicity = 1:

       Center              X                  Y                   Z               Mass
    ------------   -----------------  -----------------  -----------------  -----------------
         N            0.295679804793    -0.200455810044    -0.320875023352    14.003074004430
         C           -0.254772195207     1.108503189956     0.200705976648    12.000000000000
         C           -0.813126195207    -1.238391810044    -0.134108023352    12.000000000000
         C           -1.730047195207     1.011250189956    -0.144611023352    12.000000000000
         C           -2.071239195207    -0.435940810044     0.225497976648    12.000000000000
         C            1.620140804793    -0.619578810044     0.263470976648    12.000000000000
         C            2.720888804793     0.375092189956    -0.051229023352    12.000000000000
         H            0.452425904793    -0.067148610044    -1.430511823352     1.007825032230
         H            0.283441804793     1.937683189956    -0.260343023352     1.007825032230
         H           -0.086230195207     1.115400189956     1.281391976648     1.007825032230
         H           -0.493260195207    -1.920881810044     0.654885976648     1.007825032230
         H           -0.898293195207    -1.797235810044    -1.067827023352     1.007825032230
         H           -1.885315195207     1.198402189956    -1.212708023352     1.007825032230
         H           -2.323100195207     1.742331189956     0.409212976648     1.007825032230
         H           -2.270519195207    -0.513424810044     1.297357976648     1.007825032230
         H           -2.949502195207    -0.811934810044    -0.302863023352     1.007825032230
         H            1.455143804793    -0.728386810044     1.338362976648     1.007825032230
         H            1.840462804793    -1.605042810044    -0.155066023352     1.007825032230
         H            2.836484804793     0.519679189956    -1.129522023352     1.007825032230
         H            2.552454804793     1.342927189956     0.424237976648     1.007825032230
         H            3.666180804793    -0.019652810044     0.328534976648     1.007825032230

  Basis Set: AUG-CC-PVTZ
    Blend: AUG-CC-PVTZ
  Basis Set: (AUG-CC-PVTZ AUX)
    Blend: AUG-CC-PVTZ-JKFIT
	 Reference Energy          =    -289.6959906367908388 [Eh]
	 Singles Energy            =      -0.0000000000000000 [Eh]
	 Same-Spin Energy          =      -0.3040437272506258 [Eh]
	 Opposite-Spin Energy      =      -1.0950006342703582 [Eh]
	 Correlation Energy        =      -1.3990443615209840 [Eh]
	 Total Energy              =    -291.0950349983118031 [Eh]

	 ================> DF-SCS-MP2 Energies <==================
	-----------------------------------------------------------
	 SCS Same-Spin Scale       =       0.3333333333333333 [-]
	 SCS Opposite-Spin Scale   =       1.2000000000000000 [-]
	 SCS Same-Spin Energy      =      -0.1013479090835419 [Eh]
	 SCS Opposite-Spin Energy  =      -1.3140007611244298 [Eh]
	 SCS Correlation Energy    =      -1.4153486702079716 [Eh]
	 SCS Total Energy          =    -291.1113393069987865 [Eh]
	-----------------------------------------------------------

  Dipole Moment: [D]
     X:     0.7495      Y:    -0.4688      Z:    -0.7963     Total:     1.1898

*** Psi4 exiting successfully. Buy a developer a beer!
