                               Psi4 1.3.2 release

  ==> Input File <==

--------------------------------------------------------------------------
#psi4
#
memory 32 gb

molecule  {
1 1
  N        0.2769550    -0.2036720    -0.3241330
  C       -0.2734970     1.1052870     0.1974480
  C       -0.8145305    -1.2574822    -0.1246657
  C       -1.7487720     1.0080340    -0.1478690
  C       -2.0899640    -0.4391570     0.2222400
  C        1.6014160    -0.6227950     0.2602130
  C        2.7021640     0.3718760    -0.0544870
  H        0.4198120    -0.0821770    -1.3354460
  H        0.2647170     1.9344670    -0.2636010
  H       -0.1049550     1.1121840     1.2781340
  H       -0.5119850    -1.9240980     0.6516280
  H       -0.9170180    -1.8004520    -1.0710850
  H       -1.9040400     1.1951860    -1.2159660
  H       -2.3418250     1.7391150     0.4059550
  H       -2.2892440    -0.5166410     1.2941000
  H       -2.9682270    -0.8151510    -0.3061210
  H        1.4364190    -0.7316030     1.3351050
  H        1.8217380    -1.6082590    -0.1583240
  H        2.8177600     0.5164630    -1.1327800
  H        2.5337300     1.3397110     0.4209800
  H        3.6474560    -0.0228690     0.3252770
units angstrom
no_reorient  #important for SAPT in psi4, default
symmetry c1  #important for SAPT in psi4, default
}

set PROPERTIES_ORIGIN ["COM"]
properties('MP2/aug-cc-pvtz', properties = ['dipole'])
--------------------------------------------------------------------------

    Molecular point group: c1
  Charge       = 1
  Multiplicity = 1
  Basis Set: AUG-CC-PVTZ
    Blend: AUG-CC-PVTZ
  Basis Set: (AUG-CC-PVTZ AUX)
    Blend: AUG-CC-PVTZ-JKFIT

    Orbital Energies [Eh]
    ---------------------

    Doubly Occupied:

       1A    -15.850179     2A    -11.451339     3A    -11.449804
       4A    -11.449687     5A    -11.393157     6A    -11.392159
       7A    -11.381417     8A     -1.490623     9A     -1.257359
      10A     -1.183364    11A     -1.174531    12A     -1.040201
      13A     -1.026099    14A     -0.980757    15A     -0.901907
      16A     -0.854137    17A     -0.824409    18A     -0.787809
      19A     -0.774420    20A     -0.762086    21A     -0.728813
      22A     -0.695547    23A     -0.688881    24A     -0.679576
      25A     -0.670642    26A     -0.661869    27A     -0.655944
      28A     -0.643799

  @DF-RHF Final Energy:  -289.70564881408683

   => Energetics <=

    Nuclear Repulsion Energy =            339.8633832153100798
    One-Electron Energy =               -1053.4370313594113213
    Two-Electron Energy =                 423.8679993300144702
    Total Energy =                       -289.7056488140868282
  Basis Set: (AUG-CC-PVTZ AUX)
    Blend: AUG-CC-PVTZ-RI
    Molecular point group: c1

    Geometry (in Angstrom), charge = 1, multiplicity = 1:

       Center              X                  Y                   Z               Mass
    ------------   -----------------  -----------------  -----------------  -----------------
         N            0.293743503368    -0.198434136634    -0.323387161939    14.003074004430
         C           -0.256708496632     1.110524863366     0.198193838061    12.000000000000
         C           -0.797741996632    -1.252244336634    -0.123919861939    12.000000000000
         C           -1.731983496632     1.013271863366    -0.147123161939    12.000000000000
         C           -2.073175496632    -0.433919136634     0.222985838061    12.000000000000
         C            1.618204503368    -0.617557136634     0.260958838061    12.000000000000
         C            2.718952503368     0.377113863366    -0.053741161939    12.000000000000
         H            0.436600503368    -0.076939136634    -1.334700161939     1.007825032230
         H            0.281505503368     1.939704863366    -0.262855161939     1.007825032230
         H           -0.088166496632     1.117421863366     1.278879838061     1.007825032230
         H           -0.495196496632    -1.918860136634     0.652373838061     1.007825032230
         H           -0.900229496632    -1.795214136634    -1.070339161939     1.007825032230
         H           -1.887251496632     1.200423863366    -1.215220161939     1.007825032230
         H           -2.325036496632     1.744352863366     0.406700838061     1.007825032230
         H           -2.272455496632    -0.511403136634     1.294845838061     1.007825032230
         H           -2.951438496632    -0.809913136634    -0.305375161939     1.007825032230
         H            1.453207503368    -0.726365136634     1.335850838061     1.007825032230
         H            1.838526503368    -1.603021136634    -0.157578161939     1.007825032230
         H            2.834548503368     0.521700863366    -1.132034161939     1.007825032230
         H            2.550518503368     1.344948863366     0.421725838061     1.007825032230
         H            3.664244503368    -0.017631136634     0.326022838061     1.007825032230

  Basis Set: AUG-CC-PVTZ
    Blend: AUG-CC-PVTZ
  Basis Set: (AUG-CC-PVTZ AUX)
    Blend: AUG-CC-PVTZ-JKFIT
	 Reference Energy          =    -289.7056488140868282 [Eh]
	 Singles Energy            =      -0.0000000000000000 [Eh]
	 Same-Spin Energy          =      -0.3030926633119560 [Eh]
	 Opposite-Spin Energy      =      -1.0926880344224379 [Eh]
	 Correlation Energy        =      -1.3957806977343938 [Eh]
	 Total Energy              =    -291.1014295118212090 [Eh]

	 ================> DF-SCS-MP2 Energies <==================
	-----------------------------------------------------------
	 SCS Same-Spin Scale       =       0.3333333333333333 [-]
	 SCS Opposite-Spin Scale   =       1.2000000000000000 [-]
	 SCS Same-Spin Energy      =      -0.1010308877706520 [Eh]
	 SCS Opposite-Spin Energy  =      -1.3112256413069254 [Eh]
	 SCS Correlation Energy    =      -1.4122565290775775 [Eh]
	 SCS Total Energy          =    -291.1179053431644093 [Eh]
	-----------------------------------------------------------

  Dipole Moment: [D]
     X:     0.7268      Y:    -0.4741      Z:    -0.7027     Total:     1.1166

*** Psi4 exiting successfully. Buy a developer a beer!
