                               Psi4 1.3.2 release

  ==> Input File <==

--------------------------------------------------------------------------
#psi4
#
memory 32 gb

molecule  {
1 1
  N        0.2769550    -0.2036720    -0.3241330
  C       -0.2734970     1.1052870     0.1974480
  C       -0.8318510    -1.2416080    -0.1373660
  C       -1.7487720     1.0080340    -0.1478690
  C       -2.0899640    -0.4391570     0.2222400
  C        1.7771800    -0.6784152     0.3377592
  C        2.7021640     0.3718760    -0.0544870
  H        0.4198120    -0.0821770    -1.3354460
  H        0.2647170     1.9344670    -0.2636010
  H       -0.1049550     1.1121840     1.2781340
  H       -0.5119850    -1.9240980     0.6516280
  H       -0.9170180    -1.8004520    -1.0710850
  H       -1.9040400     1.1951860    -1.2159660
  H       -2.3418250     1.7391150     0.4059550
  H       -2.2892440    -0.5166410     1.2941000
  H       -2.9682270    -0.8151510    -0.3061210
  H        1.4364190    -0.7316030     1.3351050
  H        1.8217380    -1.6082590    -0.1583240
  H        2.8177600     0.5164630    -1.1327800
  H        2.5337300     1.3397110     0.4209800
  H        3.6474560    -0.0228690     0.3252770
units angstrom
no_reorient  #important for SAPT in psi4, default
symmetry c1  #important for SAPT in psi4, default
}

set PROPERTIES_ORIGIN ["COM"]
properties('MP2/aug-cc-pvtz', properties = ['dipole'])
--------------------------------------------------------------------------

    Molecular point group: c1
  Charge       = 1
  Multiplicity = 1
  Basis Set: AUG-CC-PVTZ
    Blend: AUG-CC-PVTZ
  Basis Set: (AUG-CC-PVTZ AUX)
    Blend: AUG-CC-PVTZ-JKFIT

    Orbital Energies [Eh]
    ---------------------

    Doubly Occupied:

       1A    -15.826835     2A    -11.468632     3A    -11.441024
       4A    -11.440677     5A    -11.387517     6A    -11.385982
       7A    -11.384283     8A     -1.454680     9A     -1.252942
      10A     -1.195217    11A     -1.168303    12A     -1.038216
      13A     -1.013677    14A     -0.970083    15A     -0.888448
      16A     -0.837719    17A     -0.830979    18A     -0.784465
      19A     -0.771592    20A     -0.760009    21A     -0.735020
      22A     -0.713201    23A     -0.688311    24A     -0.683516
      25A     -0.662068    26A     -0.651341    27A     -0.640368
      28A     -0.635429

  @DF-RHF Final Energy:  -289.68025720147591

   => Energetics <=

    Nuclear Repulsion Energy =            337.3260411751611514
    One-Electron Energy =               -1048.5915250343550724
    Two-Electron Energy =                 421.5852266577179535
    Total Energy =                       -289.6802572014759107
  Basis Set: (AUG-CC-PVTZ AUX)
    Blend: AUG-CC-PVTZ-RI
    Molecular point group: c1

    Geometry (in Angstrom), charge = 1, multiplicity = 1:

       Center              X                  Y                   Z               Mass
    ------------   -----------------  -----------------  -----------------  -----------------
         N            0.274751672814    -0.193669982237    -0.331159915917    14.003074004430
         C           -0.275700327186     1.115289017763     0.190421084083    12.000000000000
         C           -0.834054327186    -1.231605982237    -0.144392915917    12.000000000000
         C           -1.750975327186     1.018036017763    -0.154895915917    12.000000000000
         C           -2.092167327186    -0.429154982237     0.215213084083    12.000000000000
         C            1.774976672814    -0.668413182237     0.330732284083    12.000000000000
         C            2.699960672814     0.381878017763    -0.061513915917    12.000000000000
         H            0.417608672814    -0.072174982237    -1.342472915917     1.007825032230
         H            0.262513672814     1.944469017763    -0.270627915917     1.007825032230
         H           -0.107158327186     1.122186017763     1.271107084083     1.007825032230
         H           -0.514188327186    -1.914095982237     0.644601084083     1.007825032230
         H           -0.919221327186    -1.790449982237    -1.078111915917     1.007825032230
         H           -1.906243327186     1.205188017763    -1.222992915917     1.007825032230
         H           -2.344028327186     1.749117017763     0.398928084083     1.007825032230
         H           -2.291447327186    -0.506638982237     1.287073084083     1.007825032230
         H           -2.970430327186    -0.805148982237    -0.313147915917     1.007825032230
         H            1.434215672814    -0.721600982237     1.328078084083     1.007825032230
         H            1.819534672814    -1.598256982237    -0.165350915917     1.007825032230
         H            2.815556672814     0.526465017763    -1.139806915917     1.007825032230
         H            2.531526672814     1.349713017763     0.413953084083     1.007825032230
         H            3.645252672814    -0.012866982237     0.318250084083     1.007825032230

  Basis Set: AUG-CC-PVTZ
    Blend: AUG-CC-PVTZ
  Basis Set: (AUG-CC-PVTZ AUX)
    Blend: AUG-CC-PVTZ-JKFIT
	 Reference Energy          =    -289.6802572014759107 [Eh]
	 Singles Energy            =      -0.0000000000000000 [Eh]
	 Same-Spin Energy          =      -0.3038343400543069 [Eh]
	 Opposite-Spin Energy      =      -1.0949309277050574 [Eh]
	 Correlation Energy        =      -1.3987652677593643 [Eh]
	 Total Energy              =    -291.0790224692352695 [Eh]

	 ================> DF-SCS-MP2 Energies <==================
	-----------------------------------------------------------
	 SCS Same-Spin Scale       =       0.3333333333333333 [-]
	 SCS Opposite-Spin Scale   =       1.2000000000000000 [-]
	 SCS Same-Spin Energy      =      -0.1012781133514356 [Eh]
	 SCS Opposite-Spin Energy  =      -1.3139171132460687 [Eh]
	 SCS Correlation Energy    =      -1.4151952265975043 [Eh]
	 SCS Total Energy          =    -291.0954524280734290 [Eh]
	-----------------------------------------------------------

  Dipole Moment: [D]
     X:     1.3537      Y:    -0.5268      Z:    -0.6108     Total:     1.5758

*** Psi4 exiting successfully. Buy a developer a beer!
