                               Psi4 1.3.2 release

  ==> Input File <==

--------------------------------------------------------------------------
#psi4
#
memory 32 gb

molecule  {
1 1
  N        0.3248773    -0.1891192    -0.3074070
  C       -0.2734970     1.1052870     0.1974480
  C       -0.8318510    -1.2416080    -0.1373660
  C       -1.7487720     1.0080340    -0.1478690
  C       -2.0899640    -0.4391570     0.2222400
  C        1.6014160    -0.6227950     0.2602130
  C        2.7021640     0.3718760    -0.0544870
  H        0.4198120    -0.0821770    -1.3354460
  H        0.2647170     1.9344670    -0.2636010
  H       -0.1049550     1.1121840     1.2781340
  H       -0.5119850    -1.9240980     0.6516280
  H       -0.9170180    -1.8004520    -1.0710850
  H       -1.9040400     1.1951860    -1.2159660
  H       -2.3418250     1.7391150     0.4059550
  H       -2.2892440    -0.5166410     1.2941000
  H       -2.9682270    -0.8151510    -0.3061210
  H        1.4364190    -0.7316030     1.3351050
  H        1.8217380    -1.6082590    -0.1583240
  H        2.8177600     0.5164630    -1.1327800
  H        2.5337300     1.3397110     0.4209800
  H        3.6474560    -0.0228690     0.3252770
units angstrom
no_reorient  #important for SAPT in psi4, default
symmetry c1  #important for SAPT in psi4, default
}

set PROPERTIES_ORIGIN ["COM"]
properties('MP2/aug-cc-pvtz', properties = ['dipole'])
--------------------------------------------------------------------------

    Molecular point group: c1
  Charge       = 1
  Multiplicity = 1
  Basis Set: AUG-CC-PVTZ
    Blend: AUG-CC-PVTZ
  Basis Set: (AUG-CC-PVTZ AUX)
    Blend: AUG-CC-PVTZ-JKFIT

    Orbital Energies [Eh]
    ---------------------

    Doubly Occupied:

       1A    -15.850202     2A    -11.454848     3A    -11.450088
       4A    -11.446936     5A    -11.395111     6A    -11.393334
       7A    -11.379291     8A     -1.490559     9A     -1.263539
      10A     -1.178472    11A     -1.175777    12A     -1.044198
      13A     -1.023378    14A     -0.981820    15A     -0.898196
      16A     -0.855717    17A     -0.827976    18A     -0.783612
      19A     -0.774614    20A     -0.761756    21A     -0.732269
      22A     -0.692214    23A     -0.686254    24A     -0.680184
      25A     -0.670753    26A     -0.663109    27A     -0.656988
      28A     -0.644444

  @DF-RHF Final Energy:  -289.70315240584119

   => Energetics <=

    Nuclear Repulsion Energy =            339.9736272226313645
    One-Electron Energy =               -1053.6422821040698636
    Two-Electron Energy =                 423.9655024755972477
    Total Energy =                       -289.7031524058411946
  Basis Set: (AUG-CC-PVTZ AUX)
    Blend: AUG-CC-PVTZ-RI
    Molecular point group: c1

    Geometry (in Angstrom), charge = 1, multiplicity = 1:

       Center              X                  Y                   Z               Mass
    ------------   -----------------  -----------------  -----------------  -----------------
         N            0.337038879283    -0.187819644490    -0.307478359732    14.003074004430
         C           -0.261335420717     1.106586555510     0.197376640268    12.000000000000
         C           -0.819689420717    -1.240308444490    -0.137437359732    12.000000000000
         C           -1.736610420717     1.009333555510    -0.147940359732    12.000000000000
         C           -2.077802420717    -0.437857444490     0.222168640268    12.000000000000
         C            1.613577579283    -0.621495444490     0.260141640268    12.000000000000
         C            2.714325579283     0.373175555510    -0.054558359732    12.000000000000
         H            0.431973579283    -0.080877444490    -1.335517359732     1.007825032230
         H            0.276878579283     1.935766555510    -0.263672359732     1.007825032230
         H           -0.092793420717     1.113483555510     1.278062640268     1.007825032230
         H           -0.499823420717    -1.922798444490     0.651556640268     1.007825032230
         H           -0.904856420717    -1.799152444490    -1.071156359732     1.007825032230
         H           -1.891878420717     1.196485555510    -1.216037359732     1.007825032230
         H           -2.329663420717     1.740414555510     0.405883640268     1.007825032230
         H           -2.277082420717    -0.515341444490     1.294028640268     1.007825032230
         H           -2.956065420717    -0.813851444490    -0.306192359732     1.007825032230
         H            1.448580579283    -0.730303444490     1.335033640268     1.007825032230
         H            1.833899579283    -1.606959444490    -0.158395359732     1.007825032230
         H            2.829921579283     0.517762555510    -1.132851359732     1.007825032230
         H            2.545891579283     1.341010555510     0.420908640268     1.007825032230
         H            3.659617579283    -0.021569444490     0.325205640268     1.007825032230

  Basis Set: AUG-CC-PVTZ
    Blend: AUG-CC-PVTZ
  Basis Set: (AUG-CC-PVTZ AUX)
    Blend: AUG-CC-PVTZ-JKFIT
	 Reference Energy          =    -289.7031524058411946 [Eh]
	 Singles Energy            =      -0.0000000000000000 [Eh]
	 Same-Spin Energy          =      -0.3034837434320631 [Eh]
	 Opposite-Spin Energy      =      -1.0931711845331644 [Eh]
	 Correlation Energy        =      -1.3966549279652276 [Eh]
	 Total Energy              =    -291.0998073338064387 [Eh]

	 ================> DF-SCS-MP2 Energies <==================
	-----------------------------------------------------------
	 SCS Same-Spin Scale       =       0.3333333333333333 [-]
	 SCS Opposite-Spin Scale   =       1.2000000000000000 [-]
	 SCS Same-Spin Energy      =      -0.1011612478106877 [Eh]
	 SCS Opposite-Spin Energy  =      -1.3118054214397972 [Eh]
	 SCS Correlation Energy    =      -1.4129666692504848 [Eh]
	 SCS Total Energy          =    -291.1161190750916603 [Eh]
	-----------------------------------------------------------

  Dipole Moment: [D]
     X:     0.5693      Y:    -0.5061      Z:    -0.7229     Total:     1.0502

*** Psi4 exiting successfully. Buy a developer a beer!
