                               Psi4 1.3.2 release

  ==> Input File <==

--------------------------------------------------------------------------
#psi4
#
memory 32 gb

molecule  {
1 1
  N        0.2562082    -0.2051699    -0.2758155
  C       -0.2734970     1.1052870     0.1974480
  C       -0.8318510    -1.2416080    -0.1373660
  C       -1.7487720     1.0080340    -0.1478690
  C       -2.0899640    -0.4391570     0.2222400
  C        1.6014160    -0.6227950     0.2602130
  C        2.7021640     0.3718760    -0.0544870
  H        0.4198120    -0.0821770    -1.3354460
  H        0.2647170     1.9344670    -0.2636010
  H       -0.1049550     1.1121840     1.2781340
  H       -0.5119850    -1.9240980     0.6516280
  H       -0.9170180    -1.8004520    -1.0710850
  H       -1.9040400     1.1951860    -1.2159660
  H       -2.3418250     1.7391150     0.4059550
  H       -2.2892440    -0.5166410     1.2941000
  H       -2.9682270    -0.8151510    -0.3061210
  H        1.4364190    -0.7316030     1.3351050
  H        1.8217380    -1.6082590    -0.1583240
  H        2.8177600     0.5164630    -1.1327800
  H        2.5337300     1.3397110     0.4209800
  H        3.6474560    -0.0228690     0.3252770
units angstrom
no_reorient  #important for SAPT in psi4, default
symmetry c1  #important for SAPT in psi4, default
}

set PROPERTIES_ORIGIN ["COM"]
properties('MP2/aug-cc-pvtz', properties = ['dipole'])
--------------------------------------------------------------------------

    Molecular point group: c1
  Charge       = 1
  Multiplicity = 1
  Basis Set: AUG-CC-PVTZ
    Blend: AUG-CC-PVTZ
  Basis Set: (AUG-CC-PVTZ AUX)
    Blend: AUG-CC-PVTZ-JKFIT

    Orbital Energies [Eh]
    ---------------------

    Doubly Occupied:

       1A    -15.854011     2A    -11.452260     3A    -11.449028
       4A    -11.448063     5A    -11.392814     6A    -11.390799
       7A    -11.382872     8A     -1.494321     9A     -1.259292
      10A     -1.185865    11A     -1.175873    12A     -1.042039
      13A     -1.015105    14A     -0.983321    15A     -0.905082
      16A     -0.856010    17A     -0.824844    18A     -0.783475
      19A     -0.769112    20A     -0.763589    21A     -0.733417
      22A     -0.692647    23A     -0.689175    24A     -0.677760
      25A     -0.671600    26A     -0.664170    27A     -0.657444
      28A     -0.642669

  @DF-RHF Final Energy:  -289.70122376355408

   => Energetics <=

    Nuclear Repulsion Energy =            340.5055011076026972
    One-Electron Energy =               -1054.7001363418871733
    Two-Electron Energy =                 424.4934114707304502
    Total Energy =                       -289.7012237635540828
  Basis Set: (AUG-CC-PVTZ AUX)
    Blend: AUG-CC-PVTZ-RI
    Molecular point group: c1

    Geometry (in Angstrom), charge = 1, multiplicity = 1:

       Center              X                  Y                   Z               Mass
    ------------   -----------------  -----------------  -----------------  -----------------
         N            0.277974746632    -0.201625281581    -0.280305664202    14.003074004430
         C           -0.251730453368     1.108831618419     0.192957835798    12.000000000000
         C           -0.810084453368    -1.238063381581    -0.141856164202    12.000000000000
         C           -1.727005453368     1.011578618419    -0.152359164202    12.000000000000
         C           -2.068197453368    -0.435612381581     0.217749835798    12.000000000000
         C            1.623182546632    -0.619250381581     0.255722835798    12.000000000000
         C            2.723930546632     0.375420618419    -0.058977164202    12.000000000000
         H            0.441578546632    -0.078632381581    -1.339936164202     1.007825032230
         H            0.286483546632     1.938011618419    -0.268091164202     1.007825032230
         H           -0.083188453368     1.115728618419     1.273643835798     1.007825032230
         H           -0.490218453368    -1.920553381581     0.647137835798     1.007825032230
         H           -0.895251453368    -1.796907381581    -1.075575164202     1.007825032230
         H           -1.882273453368     1.198730618419    -1.220456164202     1.007825032230
         H           -2.320058453368     1.742659618419     0.401464835798     1.007825032230
         H           -2.267477453368    -0.513096381581     1.289609835798     1.007825032230
         H           -2.946460453368    -0.811606381581    -0.310611164202     1.007825032230
         H            1.458185546632    -0.728058381581     1.330614835798     1.007825032230
         H            1.843504546632    -1.604714381581    -0.162814164202     1.007825032230
         H            2.839526546632     0.520007618419    -1.137270164202     1.007825032230
         H            2.555496546632     1.343255618419     0.416489835798     1.007825032230
         H            3.669222546632    -0.019324381581     0.320786835798     1.007825032230

  Basis Set: AUG-CC-PVTZ
    Blend: AUG-CC-PVTZ
  Basis Set: (AUG-CC-PVTZ AUX)
    Blend: AUG-CC-PVTZ-JKFIT
	 Reference Energy          =    -289.7012237635540828 [Eh]
	 Singles Energy            =      -0.0000000000000000 [Eh]
	 Same-Spin Energy          =      -0.3039222942685678 [Eh]
	 Opposite-Spin Energy      =      -1.0937930055850862 [Eh]
	 Correlation Energy        =      -1.3977152998536539 [Eh]
	 Total Energy              =    -291.0989390634077267 [Eh]

	 ================> DF-SCS-MP2 Energies <==================
	-----------------------------------------------------------
	 SCS Same-Spin Scale       =       0.3333333333333333 [-]
	 SCS Opposite-Spin Scale   =       1.2000000000000000 [-]
	 SCS Same-Spin Energy      =      -0.1013074314228559 [Eh]
	 SCS Opposite-Spin Energy  =      -1.3125516067021035 [Eh]
	 SCS Correlation Energy    =      -1.4138590381249594 [Eh]
	 SCS Total Energy          =    -291.1150828016790229 [Eh]
	-----------------------------------------------------------

  Dipole Moment: [D]
     X:     0.7881      Y:    -0.4749      Z:    -0.7669     Total:     1.1978

*** Psi4 exiting successfully. Buy a developer a beer!
