                               Psi4 1.3.2 release

  ==> Input File <==

--------------------------------------------------------------------------
#psi4
#
memory 32 gb

molecule  {
1 1
  N        0.2769550    -0.2036720    -0.3241330
  C       -0.4067324     1.0264409     0.2306747
  C       -0.8318510    -1.2416080    -0.1373660
  C       -1.7487720     1.0080340    -0.1478690
  C       -2.0899640    -0.4391570     0.2222400
  C        1.6014160    -0.6227950     0.2602130
  C        2.7021640     0.3718760    -0.0544870
  H        0.4198120    -0.0821770    -1.3354460
  H        0.2647170     1.9344670    -0.2636010
  H       -0.1049550     1.1121840     1.2781340
  H       -0.5119850    -1.9240980     0.6516280
  H       -0.9170180    -1.8004520    -1.0710850
  H       -1.9040400     1.1951860    -1.2159660
  H       -2.3418250     1.7391150     0.4059550
  H       -2.2892440    -0.5166410     1.2941000
  H       -2.9682270    -0.8151510    -0.3061210
  H        1.4364190    -0.7316030     1.3351050
  H        1.8217380    -1.6082590    -0.1583240
  H        2.8177600     0.5164630    -1.1327800
  H        2.5337300     1.3397110     0.4209800
  H        3.6474560    -0.0228690     0.3252770
units angstrom
no_reorient  #important for SAPT in psi4, default
symmetry c1  #important for SAPT in psi4, default
}

set PROPERTIES_ORIGIN ["COM"]
properties('MP2/aug-cc-pvtz', properties = ['dipole'])
--------------------------------------------------------------------------

    Molecular point group: c1
  Charge       = 1
  Multiplicity = 1
  Basis Set: AUG-CC-PVTZ
    Blend: AUG-CC-PVTZ
  Basis Set: (AUG-CC-PVTZ AUX)
    Blend: AUG-CC-PVTZ-JKFIT

    Orbital Energies [Eh]
    ---------------------

    Doubly Occupied:

       1A    -15.849315     2A    -11.457049     3A    -11.453248
       4A    -11.449460     5A    -11.392709     6A    -11.387947
       7A    -11.381134     8A     -1.494254     9A     -1.279789
      10A     -1.190138    11A     -1.172319    12A     -1.039753
      13A     -1.023552    14A     -0.988178    15A     -0.891351
      16A     -0.861086    17A     -0.833655    18A     -0.786772
      19A     -0.775912    20A     -0.761174    21A     -0.730641
      22A     -0.697441    23A     -0.688809    24A     -0.685160
      25A     -0.672787    26A     -0.663925    27A     -0.651870
      28A     -0.625380

  @DF-RHF Final Energy:  -289.67577586209472

   => Energetics <=

    Nuclear Repulsion Energy =            341.4744638797434959
    One-Electron Energy =               -1056.5308617895129828
    Two-Electron Energy =                 425.3806220476747058
    Total Energy =                       -289.6757758620947243
  Basis Set: (AUG-CC-PVTZ AUX)
    Blend: AUG-CC-PVTZ-RI
    Molecular point group: c1

    Geometry (in Angstrom), charge = 1, multiplicity = 1:

       Center              X                  Y                   Z               Mass
    ------------   -----------------  -----------------  -----------------  -----------------
         N            0.311789886727    -0.190886009671    -0.325847558930    14.003074004430
         C           -0.371897513273     1.039226890329     0.228960141070    12.000000000000
         C           -0.797016113273    -1.228822009671    -0.139080558930    12.000000000000
         C           -1.713937113273     1.020819990329    -0.149583558930    12.000000000000
         C           -2.055129113273    -0.426371009671     0.220525441070    12.000000000000
         C            1.636250886727    -0.610009009671     0.258498441070    12.000000000000
         C            2.736998886727     0.384661990329    -0.056201558930    12.000000000000
         H            0.454646886727    -0.069391009671    -1.337160558930     1.007825032230
         H            0.299551886727     1.947252990329    -0.265315558930     1.007825032230
         H           -0.070120113273     1.124969990329     1.276419441070     1.007825032230
         H           -0.477150113273    -1.911312009671     0.649913441070     1.007825032230
         H           -0.882183113273    -1.787666009671    -1.072799558930     1.007825032230
         H           -1.869205113273     1.207971990329    -1.217680558930     1.007825032230
         H           -2.306990113273     1.751900990329     0.404240441070     1.007825032230
         H           -2.254409113273    -0.503855009671     1.292385441070     1.007825032230
         H           -2.933392113273    -0.802365009671    -0.307835558930     1.007825032230
         H            1.471253886727    -0.718817009671     1.333390441070     1.007825032230
         H            1.856572886727    -1.595473009671    -0.160038558930     1.007825032230
         H            2.852594886727     0.529248990329    -1.134494558930     1.007825032230
         H            2.568564886727     1.352496990329     0.419265441070     1.007825032230
         H            3.682290886727    -0.010083009671     0.323562441070     1.007825032230

  Basis Set: AUG-CC-PVTZ
    Blend: AUG-CC-PVTZ
  Basis Set: (AUG-CC-PVTZ AUX)
    Blend: AUG-CC-PVTZ-JKFIT
	 Reference Energy          =    -289.6757758620947243 [Eh]
	 Singles Energy            =      -0.0000000000000000 [Eh]
	 Same-Spin Energy          =      -0.3052624364770257 [Eh]
	 Opposite-Spin Energy      =      -1.0952944739154700 [Eh]
	 Correlation Energy        =      -1.4005569103924955 [Eh]
	 Total Energy              =    -291.0763327724872056 [Eh]

	 ================> DF-SCS-MP2 Energies <==================
	-----------------------------------------------------------
	 SCS Same-Spin Scale       =       0.3333333333333333 [-]
	 SCS Opposite-Spin Scale   =       1.2000000000000000 [-]
	 SCS Same-Spin Energy      =      -0.1017541454923419 [Eh]
	 SCS Opposite-Spin Energy  =      -1.3143533686985640 [Eh]
	 SCS Correlation Energy    =      -1.4161075141909059 [Eh]
	 SCS Total Energy          =    -291.0918833762856366 [Eh]
	-----------------------------------------------------------

  Dipole Moment: [D]
     X:     0.6655      Y:    -0.4806      Z:    -0.6711     Total:     1.0603

*** Psi4 exiting successfully. Buy a developer a beer!
