                               Psi4 1.3.2 release

  ==> Input File <==

--------------------------------------------------------------------------
#psi4
#
memory 32 gb

molecule  {
1 1
  N        0.2769550    -0.2036720    -0.3241330
  C       -0.2734970     1.1052870     0.1974480
  C       -0.8977042    -1.1749993    -0.1886972
  C       -1.7487720     1.0080340    -0.1478690
  C       -2.0899640    -0.4391570     0.2222400
  C        1.6014160    -0.6227950     0.2602130
  C        2.7021640     0.3718760    -0.0544870
  H        0.4198120    -0.0821770    -1.3354460
  H        0.2647170     1.9344670    -0.2636010
  H       -0.1049550     1.1121840     1.2781340
  H       -0.5119850    -1.9240980     0.6516280
  H       -0.9170180    -1.8004520    -1.0710850
  H       -1.9040400     1.1951860    -1.2159660
  H       -2.3418250     1.7391150     0.4059550
  H       -2.2892440    -0.5166410     1.2941000
  H       -2.9682270    -0.8151510    -0.3061210
  H        1.4364190    -0.7316030     1.3351050
  H        1.8217380    -1.6082590    -0.1583240
  H        2.8177600     0.5164630    -1.1327800
  H        2.5337300     1.3397110     0.4209800
  H        3.6474560    -0.0228690     0.3252770
units angstrom
no_reorient  #important for SAPT in psi4, default
symmetry c1  #important for SAPT in psi4, default
}

set PROPERTIES_ORIGIN ["COM"]
properties('MP2/aug-cc-pvtz', properties = ['dipole'])
--------------------------------------------------------------------------

    Molecular point group: c1
  Charge       = 1
  Multiplicity = 1
  Basis Set: AUG-CC-PVTZ
    Blend: AUG-CC-PVTZ
  Basis Set: (AUG-CC-PVTZ AUX)
    Blend: AUG-CC-PVTZ-JKFIT

    Orbital Energies [Eh]
    ---------------------

    Doubly Occupied:

       1A    -15.849494     2A    -11.454851     3A    -11.452161
       4A    -11.449586     5A    -11.394177     6A    -11.388276
       7A    -11.382369     8A     -1.492266     9A     -1.268568
      10A     -1.182215    11A     -1.180842    12A     -1.040793
      13A     -1.020253    14A     -0.982763    15A     -0.905092
      16A     -0.853975    17A     -0.827824    18A     -0.780877
      19A     -0.772020    20A     -0.760828    21A     -0.733599
      22A     -0.696593    23A     -0.688044    24A     -0.680360
      25A     -0.671235    26A     -0.667433    27A     -0.659634
      28A     -0.631015

  @DF-RHF Final Energy:  -289.69258522692832

   => Energetics <=

    Nuclear Repulsion Energy =            340.7631457357323939
    One-Electron Energy =               -1055.1771730859061336
    Two-Electron Energy =                 424.7214421232453674
    Total Energy =                       -289.6925852269283155
  Basis Set: (AUG-CC-PVTZ AUX)
    Blend: AUG-CC-PVTZ-RI
    Molecular point group: c1

    Geometry (in Angstrom), charge = 1, multiplicity = 1:

       Center              X                  Y                   Z               Mass
    ------------   -----------------  -----------------  -----------------  -----------------
         N            0.303713119143    -0.208320949665    -0.315712026019    14.003074004430
         C           -0.246738880857     1.100638050335     0.205868973981    12.000000000000
         C           -0.870946080857    -1.179648249665    -0.180276226019    12.000000000000
         C           -1.722013880857     1.003385050335    -0.139448026019    12.000000000000
         C           -2.063205880857    -0.443805949665     0.230660973981    12.000000000000
         C            1.628174119143    -0.627443949665     0.268633973981    12.000000000000
         C            2.728922119143     0.367227050335    -0.046066026019    12.000000000000
         H            0.446570119143    -0.086825949665    -1.327025026019     1.007825032230
         H            0.291475119143     1.929818050335    -0.255180026019     1.007825032230
         H           -0.078196880857     1.107535050335     1.286554973981     1.007825032230
         H           -0.485226880857    -1.928746949665     0.660048973981     1.007825032230
         H           -0.890259880857    -1.805100949665    -1.062664026019     1.007825032230
         H           -1.877281880857     1.190537050335    -1.207545026019     1.007825032230
         H           -2.315066880857     1.734466050335     0.414375973981     1.007825032230
         H           -2.262485880857    -0.521289949665     1.302520973981     1.007825032230
         H           -2.941468880857    -0.819799949665    -0.297700026019     1.007825032230
         H            1.463177119143    -0.736251949665     1.343525973981     1.007825032230
         H            1.848496119143    -1.612907949665    -0.149903026019     1.007825032230
         H            2.844518119143     0.511814050335    -1.124359026019     1.007825032230
         H            2.560488119143     1.335062050335     0.429400973981     1.007825032230
         H            3.674214119143    -0.027517949665     0.333697973981     1.007825032230

  Basis Set: AUG-CC-PVTZ
    Blend: AUG-CC-PVTZ
  Basis Set: (AUG-CC-PVTZ AUX)
    Blend: AUG-CC-PVTZ-JKFIT
	 Reference Energy          =    -289.6925852269283155 [Eh]
	 Singles Energy            =      -0.0000000000000000 [Eh]
	 Same-Spin Energy          =      -0.3043367623948016 [Eh]
	 Opposite-Spin Energy      =      -1.0940394402709452 [Eh]
	 Correlation Energy        =      -1.3983762026657467 [Eh]
	 Total Energy              =    -291.0909614295940742 [Eh]

	 ================> DF-SCS-MP2 Energies <==================
	-----------------------------------------------------------
	 SCS Same-Spin Scale       =       0.3333333333333333 [-]
	 SCS Opposite-Spin Scale   =       1.2000000000000000 [-]
	 SCS Same-Spin Energy      =      -0.1014455874649338 [Eh]
	 SCS Opposite-Spin Energy  =      -1.3128473283251343 [Eh]
	 SCS Correlation Energy    =      -1.4142929157900681 [Eh]
	 SCS Total Energy          =    -291.1068781427183580 [Eh]
	-----------------------------------------------------------

  Dipole Moment: [D]
     X:     0.7242      Y:    -0.4570      Z:    -0.7156     Total:     1.1160

*** Psi4 exiting successfully. Buy a developer a beer!
