                               Psi4 1.3.2 release

  ==> Input File <==

--------------------------------------------------------------------------
#psi4
#
memory 32 gb

molecule  {
1 1
  N        0.2993154    -0.2026847    -0.3717386
  C       -0.2734970     1.1052870     0.1974480
  C       -0.8318510    -1.2416080    -0.1373660
  C       -1.7487720     1.0080340    -0.1478690
  C       -2.0899640    -0.4391570     0.2222400
  C        1.6014160    -0.6227950     0.2602130
  C        2.7021640     0.3718760    -0.0544870
  H        0.4198120    -0.0821770    -1.3354460
  H        0.2647170     1.9344670    -0.2636010
  H       -0.1049550     1.1121840     1.2781340
  H       -0.5119850    -1.9240980     0.6516280
  H       -0.9170180    -1.8004520    -1.0710850
  H       -1.9040400     1.1951860    -1.2159660
  H       -2.3418250     1.7391150     0.4059550
  H       -2.2892440    -0.5166410     1.2941000
  H       -2.9682270    -0.8151510    -0.3061210
  H        1.4364190    -0.7316030     1.3351050
  H        1.8217380    -1.6082590    -0.1583240
  H        2.8177600     0.5164630    -1.1327800
  H        2.5337300     1.3397110     0.4209800
  H        3.6474560    -0.0228690     0.3252770
units angstrom
no_reorient  #important for SAPT in psi4, default
symmetry c1  #important for SAPT in psi4, default
}

set PROPERTIES_ORIGIN ["COM"]
properties('MP2/aug-cc-pvtz', properties = ['dipole'])
--------------------------------------------------------------------------

    Molecular point group: c1
  Charge       = 1
  Multiplicity = 1
  Basis Set: AUG-CC-PVTZ
    Blend: AUG-CC-PVTZ
  Basis Set: (AUG-CC-PVTZ AUX)
    Blend: AUG-CC-PVTZ-JKFIT

    Orbital Energies [Eh]
    ---------------------

    Doubly Occupied:

       1A    -15.845272     2A    -11.452266     3A    -11.451749
       4A    -11.450845     5A    -11.393798     6A    -11.392029
       7A    -11.380258     8A     -1.487910     9A     -1.259381
      10A     -1.182355    11A     -1.174174    12A     -1.038778
      13A     -1.034183    14A     -0.979081    15A     -0.899686
      16A     -0.851719    17A     -0.825256    18A     -0.785872
      19A     -0.780775    20A     -0.760415    21A     -0.725191
      22A     -0.698620    23A     -0.687884    24A     -0.679292
      25A     -0.669215    26A     -0.662915    27A     -0.656586
      28A     -0.643203

  @DF-RHF Final Energy:  -289.70377304137747

   => Energetics <=

    Nuclear Repulsion Energy =            339.5317221749231180
    One-Electron Energy =               -1052.7735711727621037
    Two-Electron Energy =                 423.5380759564615687
    Total Energy =                       -289.7037730413774739
  Basis Set: (AUG-CC-PVTZ AUX)
    Blend: AUG-CC-PVTZ-RI
    Molecular point group: c1

    Geometry (in Angstrom), charge = 1, multiplicity = 1:

       Center              X                  Y                   Z               Mass
    ------------   -----------------  -----------------  -----------------  -----------------
         N            0.315052404254    -0.199487694479    -0.362811692425    14.003074004430
         C           -0.257759995746     1.108484005521     0.206374907575    12.000000000000
         C           -0.816113995746    -1.238410994479    -0.128439092425    12.000000000000
         C           -1.733034995746     1.011231005521    -0.138942092425    12.000000000000
         C           -2.074226995746    -0.435959994479     0.231166907575    12.000000000000
         C            1.617153004254    -0.619597994479     0.269139907575    12.000000000000
         C            2.717901004254     0.375073005521    -0.045560092425    12.000000000000
         H            0.435549004254    -0.078979994479    -1.326519092425     1.007825032230
         H            0.280454004254     1.937664005521    -0.254674092425     1.007825032230
         H           -0.089217995746     1.115381005521     1.287060907575     1.007825032230
         H           -0.496247995746    -1.920900994479     0.660554907575     1.007825032230
         H           -0.901280995746    -1.797254994479    -1.062158092425     1.007825032230
         H           -1.888302995746     1.198383005521    -1.207039092425     1.007825032230
         H           -2.326087995746     1.742312005521     0.414881907575     1.007825032230
         H           -2.273506995746    -0.513443994479     1.303026907575     1.007825032230
         H           -2.952489995746    -0.811953994479    -0.297194092425     1.007825032230
         H            1.452156004254    -0.728405994479     1.344031907575     1.007825032230
         H            1.837475004254    -1.605061994479    -0.149397092425     1.007825032230
         H            2.833497004254     0.519660005521    -1.123853092425     1.007825032230
         H            2.549467004254     1.342908005521     0.429906907575     1.007825032230
         H            3.663193004254    -0.019671994479     0.334203907575     1.007825032230

  Basis Set: AUG-CC-PVTZ
    Blend: AUG-CC-PVTZ
  Basis Set: (AUG-CC-PVTZ AUX)
    Blend: AUG-CC-PVTZ-JKFIT
	 Reference Energy          =    -289.7037730413774739 [Eh]
	 Singles Energy            =      -0.0000000000000000 [Eh]
	 Same-Spin Energy          =      -0.3027163006807658 [Eh]
	 Opposite-Spin Energy      =      -1.0921791738650755 [Eh]
	 Correlation Energy        =      -1.3948954745458413 [Eh]
	 Total Energy              =    -291.0986685159232934 [Eh]

	 ================> DF-SCS-MP2 Energies <==================
	-----------------------------------------------------------
	 SCS Same-Spin Scale       =       0.3333333333333333 [-]
	 SCS Opposite-Spin Scale   =       1.2000000000000000 [-]
	 SCS Same-Spin Energy      =      -0.1009054335602552 [Eh]
	 SCS Opposite-Spin Energy  =      -1.3106150086380906 [Eh]
	 SCS Correlation Energy    =      -1.4115204421983458 [Eh]
	 SCS Total Energy          =    -291.1152934835758401 [Eh]
	-----------------------------------------------------------

  Dipole Moment: [D]
     X:     0.6597      Y:    -0.4749      Z:    -0.6361     Total:     1.0321

*** Psi4 exiting successfully. Buy a developer a beer!
