                               Psi4 1.3.2 release

  ==> Input File <==

--------------------------------------------------------------------------
#psi4
#
memory 32 gb

molecule  {
1 1
  N        0.2769550    -0.2036720    -0.3241330
  C       -0.1877320     1.1127330     0.2585861
  C       -0.8318510    -1.2416080    -0.1373660
  C       -1.7487720     1.0080340    -0.1478690
  C       -2.0899640    -0.4391570     0.2222400
  C        1.6014160    -0.6227950     0.2602130
  C        2.7021640     0.3718760    -0.0544870
  H        0.4198120    -0.0821770    -1.3354460
  H        0.2647170     1.9344670    -0.2636010
  H       -0.1049550     1.1121840     1.2781340
  H       -0.5119850    -1.9240980     0.6516280
  H       -0.9170180    -1.8004520    -1.0710850
  H       -1.9040400     1.1951860    -1.2159660
  H       -2.3418250     1.7391150     0.4059550
  H       -2.2892440    -0.5166410     1.2941000
  H       -2.9682270    -0.8151510    -0.3061210
  H        1.4364190    -0.7316030     1.3351050
  H        1.8217380    -1.6082590    -0.1583240
  H        2.8177600     0.5164630    -1.1327800
  H        2.5337300     1.3397110     0.4209800
  H        3.6474560    -0.0228690     0.3252770
units angstrom
no_reorient  #important for SAPT in psi4, default
symmetry c1  #important for SAPT in psi4, default
}

set PROPERTIES_ORIGIN ["COM"]
properties('MP2/aug-cc-pvtz', properties = ['dipole'])
--------------------------------------------------------------------------

    Molecular point group: c1
  Charge       = 1
  Multiplicity = 1
  Basis Set: AUG-CC-PVTZ
    Blend: AUG-CC-PVTZ
  Basis Set: (AUG-CC-PVTZ AUX)
    Blend: AUG-CC-PVTZ-JKFIT

    Orbital Energies [Eh]
    ---------------------

    Doubly Occupied:

       1A    -15.851208     2A    -11.450857     3A    -11.450210
       4A    -11.446633     5A    -11.397340     6A    -11.390588
       7A    -11.381388     8A     -1.489903     9A     -1.250962
      10A     -1.178862    11A     -1.175591    12A     -1.041718
      13A     -1.030704    14A     -0.976059    15A     -0.903751
      16A     -0.850256    17A     -0.829521    18A     -0.793767
      19A     -0.774313    20A     -0.762353    21A     -0.729363
      22A     -0.706540    23A     -0.687902    24A     -0.677349
      25A     -0.669628    26A     -0.658053    27A     -0.646693
      28A     -0.637594

  @DF-RHF Final Energy:  -289.69556156380776

   => Energetics <=

    Nuclear Repulsion Energy =            339.4165591136123226
    One-Electron Energy =               -1052.5460243966253984
    Two-Electron Energy =                 423.4339037192053752
    Total Energy =                       -289.6955615638077575
  Basis Set: (AUG-CC-PVTZ AUX)
    Blend: AUG-CC-PVTZ-RI
    Molecular point group: c1

    Geometry (in Angstrom), charge = 1, multiplicity = 1:

       Center              X                  Y                   Z               Mass
    ------------   -----------------  -----------------  -----------------  -----------------
         N            0.285539403191    -0.201229412470    -0.329193158966    14.003074004430
         C           -0.179147596809     1.115175587530     0.253525941034    12.000000000000
         C           -0.823266596809    -1.239165412470    -0.142426158966    12.000000000000
         C           -1.740187596809     1.010476587530    -0.152929158966    12.000000000000
         C           -2.081379596809    -0.436714412470     0.217179841034    12.000000000000
         C            1.610000403191    -0.620352412470     0.255152841034    12.000000000000
         C            2.710748403191     0.374318587530    -0.059547158966    12.000000000000
         H            0.428396403191    -0.079734412470    -1.340506158966     1.007825032230
         H            0.273301403191     1.936909587530    -0.268661158966     1.007825032230
         H           -0.096370596809     1.114626587530     1.273073841034     1.007825032230
         H           -0.503400596809    -1.921655412470     0.646567841034     1.007825032230
         H           -0.908433596809    -1.798009412470    -1.076145158966     1.007825032230
         H           -1.895455596809     1.197628587530    -1.221026158966     1.007825032230
         H           -2.333240596809     1.741557587530     0.400894841034     1.007825032230
         H           -2.280659596809    -0.514198412470     1.289039841034     1.007825032230
         H           -2.959642596809    -0.812708412470    -0.311181158966     1.007825032230
         H            1.445003403191    -0.729160412470     1.330044841034     1.007825032230
         H            1.830322403191    -1.605816412470    -0.163384158966     1.007825032230
         H            2.826344403191     0.518905587530    -1.137840158966     1.007825032230
         H            2.542314403191     1.342153587530     0.415919841034     1.007825032230
         H            3.656040403191    -0.020426412470     0.320216841034     1.007825032230

  Basis Set: AUG-CC-PVTZ
    Blend: AUG-CC-PVTZ
  Basis Set: (AUG-CC-PVTZ AUX)
    Blend: AUG-CC-PVTZ-JKFIT
	 Reference Energy          =    -289.6955615638077575 [Eh]
	 Singles Energy            =      -0.0000000000000000 [Eh]
	 Same-Spin Energy          =      -0.3030043613923151 [Eh]
	 Opposite-Spin Energy      =      -1.0931247436634468 [Eh]
	 Correlation Energy        =      -1.3961291050557618 [Eh]
	 Total Energy              =    -291.0916906688635208 [Eh]

	 ================> DF-SCS-MP2 Energies <==================
	-----------------------------------------------------------
	 SCS Same-Spin Scale       =       0.3333333333333333 [-]
	 SCS Opposite-Spin Scale   =       1.2000000000000000 [-]
	 SCS Same-Spin Energy      =      -0.1010014537974384 [Eh]
	 SCS Opposite-Spin Energy  =      -1.3117496923961360 [Eh]
	 SCS Correlation Energy    =      -1.4127511461935744 [Eh]
	 SCS Total Energy          =    -291.1083127100013144 [Eh]
	-----------------------------------------------------------

  Dipole Moment: [D]
     X:     0.7105      Y:    -0.4851      Z:    -0.7198     Total:     1.1217

*** Psi4 exiting successfully. Buy a developer a beer!
