                               Psi4 1.3.2 release

  ==> Input File <==

--------------------------------------------------------------------------
#psi4
#
memory 32 gb

molecule  {
1 1
  N        0.2769550    -0.2036720    -0.3241330
  C       -0.1439740     1.1140521     0.2881086
  C       -0.8318510    -1.2416080    -0.1373660
  C       -1.7487720     1.0080340    -0.1478690
  C       -2.0899640    -0.4391570     0.2222400
  C        1.6014160    -0.6227950     0.2602130
  C        2.7021640     0.3718760    -0.0544870
  H        0.4198120    -0.0821770    -1.3354460
  H        0.2647170     1.9344670    -0.2636010
  H       -0.1049550     1.1121840     1.2781340
  H       -0.5119850    -1.9240980     0.6516280
  H       -0.9170180    -1.8004520    -1.0710850
  H       -1.9040400     1.1951860    -1.2159660
  H       -2.3418250     1.7391150     0.4059550
  H       -2.2892440    -0.5166410     1.2941000
  H       -2.9682270    -0.8151510    -0.3061210
  H        1.4364190    -0.7316030     1.3351050
  H        1.8217380    -1.6082590    -0.1583240
  H        2.8177600     0.5164630    -1.1327800
  H        2.5337300     1.3397110     0.4209800
  H        3.6474560    -0.0228690     0.3252770
units angstrom
no_reorient  #important for SAPT in psi4, default
symmetry c1  #important for SAPT in psi4, default
}

set PROPERTIES_ORIGIN ["COM"]
properties('MP2/aug-cc-pvtz', properties = ['dipole'])
--------------------------------------------------------------------------

    Molecular point group: c1
  Charge       = 1
  Multiplicity = 1
  Basis Set: AUG-CC-PVTZ
    Blend: AUG-CC-PVTZ
  Basis Set: (AUG-CC-PVTZ AUX)
    Blend: AUG-CC-PVTZ-JKFIT

    Orbital Energies [Eh]
    ---------------------

    Doubly Occupied:

       1A    -15.852078     2A    -11.451145     3A    -11.449707
       4A    -11.445957     5A    -11.399318     6A    -11.390442
       7A    -11.381274     8A     -1.489740     9A     -1.248093
      10A     -1.177405    11A     -1.175451    12A     -1.043697
      13A     -1.032591    14A     -0.973936    15A     -0.903985
      16A     -0.849121    17A     -0.834029    18A     -0.797876
      19A     -0.774296    20A     -0.762634    21A     -0.729554
      22A     -0.711452    23A     -0.687366    24A     -0.676922
      25A     -0.669040    26A     -0.657771    27A     -0.645669
      28A     -0.624143

  @DF-RHF Final Energy:  -289.68230989410137

   => Energetics <=

    Nuclear Repulsion Energy =            339.1511511466914612
    One-Electron Energy =               -1051.9975352053158986
    Two-Electron Energy =                 423.1640741645230150
    Total Energy =                       -289.6823098941013654
  Basis Set: (AUG-CC-PVTZ AUX)
    Blend: AUG-CC-PVTZ-RI
    Molecular point group: c1

    Geometry (in Angstrom), charge = 1, multiplicity = 1:

       Center              X                  Y                   Z               Mass
    ------------   -----------------  -----------------  -----------------  -----------------
         N            0.280294350404    -0.201387526395    -0.332731873508    14.003074004430
         C           -0.140634649596     1.116336573605     0.279509726492    12.000000000000
         C           -0.828511649596    -1.239323526395    -0.145964873508    12.000000000000
         C           -1.745432649596     1.010318473605    -0.156467873508    12.000000000000
         C           -2.086624649596    -0.436872526395     0.213641126492    12.000000000000
         C            1.604755350404    -0.620510526395     0.251614126492    12.000000000000
         C            2.705503350404     0.374160473605    -0.063085873508    12.000000000000
         H            0.423151350404    -0.079892526395    -1.344044873508     1.007825032230
         H            0.268056350404     1.936751473605    -0.272199873508     1.007825032230
         H           -0.101615649596     1.114468473605     1.269535126492     1.007825032230
         H           -0.508645649596    -1.921813526395     0.643029126492     1.007825032230
         H           -0.913678649596    -1.798167526395    -1.079683873508     1.007825032230
         H           -1.900700649596     1.197470473605    -1.224564873508     1.007825032230
         H           -2.338485649596     1.741399473605     0.397356126492     1.007825032230
         H           -2.285904649596    -0.514356526395     1.285501126492     1.007825032230
         H           -2.964887649596    -0.812866526395    -0.314719873508     1.007825032230
         H            1.439758350404    -0.729318526395     1.326506126492     1.007825032230
         H            1.825077350404    -1.605974526395    -0.166922873508     1.007825032230
         H            2.821099350404     0.518747473605    -1.141378873508     1.007825032230
         H            2.537069350404     1.341995473605     0.412381126492     1.007825032230
         H            3.650795350404    -0.020584526395     0.316678126492     1.007825032230

  Basis Set: AUG-CC-PVTZ
    Blend: AUG-CC-PVTZ
  Basis Set: (AUG-CC-PVTZ AUX)
    Blend: AUG-CC-PVTZ-JKFIT
	 Reference Energy          =    -289.6823098941013654 [Eh]
	 Singles Energy            =      -0.0000000000000000 [Eh]
	 Same-Spin Energy          =      -0.3032260347056123 [Eh]
	 Opposite-Spin Energy      =      -1.0939378372676734 [Eh]
	 Correlation Energy        =      -1.3971638719732855 [Eh]
	 Total Energy              =    -291.0794737660746705 [Eh]

	 ================> DF-SCS-MP2 Energies <==================
	-----------------------------------------------------------
	 SCS Same-Spin Scale       =       0.3333333333333333 [-]
	 SCS Opposite-Spin Scale   =       1.2000000000000000 [-]
	 SCS Same-Spin Energy      =      -0.1010753449018708 [Eh]
	 SCS Opposite-Spin Energy  =      -1.3127254047212080 [Eh]
	 SCS Correlation Energy    =      -1.4138007496230789 [Eh]
	 SCS Total Energy          =    -291.0961106437244439 [Eh]
	-----------------------------------------------------------

  Dipole Moment: [D]
     X:     0.6893      Y:    -0.4948      Z:    -0.7350     Total:     1.1226

*** Psi4 exiting successfully. Buy a developer a beer!
