                               Psi4 1.3.2 release

  ==> Input File <==

--------------------------------------------------------------------------
#psi4
#
memory 32 gb

molecule  {
1 1
  N        0.2769550    -0.2036720    -0.3241330
  C       -0.2734970     1.1052870     0.1974480
  C       -0.8654735    -1.2089160    -0.1629334
  C       -1.7487720     1.0080340    -0.1478690
  C       -2.0899640    -0.4391570     0.2222400
  C        1.6014160    -0.6227950     0.2602130
  C        2.7021640     0.3718760    -0.0544870
  H        0.4198120    -0.0821770    -1.3354460
  H        0.2647170     1.9344670    -0.2636010
  H       -0.1049550     1.1121840     1.2781340
  H       -0.5119850    -1.9240980     0.6516280
  H       -0.9170180    -1.8004520    -1.0710850
  H       -1.9040400     1.1951860    -1.2159660
  H       -2.3418250     1.7391150     0.4059550
  H       -2.2892440    -0.5166410     1.2941000
  H       -2.9682270    -0.8151510    -0.3061210
  H        1.4364190    -0.7316030     1.3351050
  H        1.8217380    -1.6082590    -0.1583240
  H        2.8177600     0.5164630    -1.1327800
  H        2.5337300     1.3397110     0.4209800
  H        3.6474560    -0.0228690     0.3252770
units angstrom
no_reorient  #important for SAPT in psi4, default
symmetry c1  #important for SAPT in psi4, default
}

set PROPERTIES_ORIGIN ["COM"]
properties('MP2/aug-cc-pvtz', properties = ['dipole'])
--------------------------------------------------------------------------

    Molecular point group: c1
  Charge       = 1
  Multiplicity = 1
  Basis Set: AUG-CC-PVTZ
    Blend: AUG-CC-PVTZ
  Basis Set: (AUG-CC-PVTZ AUX)
    Blend: AUG-CC-PVTZ-JKFIT

    Orbital Energies [Eh]
    ---------------------

    Doubly Occupied:

       1A    -15.849619     2A    -11.452387     3A    -11.451788
       4A    -11.449596     5A    -11.393605     6A    -11.389727
       7A    -11.381979     8A     -1.491445     9A     -1.263520
      10A     -1.182620    11A     -1.178142    12A     -1.040426
      13A     -1.022191    14A     -0.982082    15A     -0.903745
      16A     -0.853556    17A     -0.826266    18A     -0.780940
      19A     -0.774078    20A     -0.761339    21A     -0.731418
      22A     -0.693440    23A     -0.689039    24A     -0.680056
      25A     -0.671855    26A     -0.666386    27A     -0.658594
      28A     -0.638825

  @DF-RHF Final Energy:  -289.70234923101344

   => Energetics <=

    Nuclear Repulsion Energy =            340.3880888682325576
    One-Electron Energy =               -1054.4635429812215079
    Two-Electron Energy =                 424.3731048819755074
    Total Energy =                       -289.7023492310134429
  Basis Set: (AUG-CC-PVTZ AUX)
    Blend: AUG-CC-PVTZ-RI
    Molecular point group: c1

    Geometry (in Angstrom), charge = 1, multiplicity = 1:

       Center              X                  Y                   Z               Mass
    ------------   -----------------  -----------------  -----------------  -----------------
         N            0.299849786200    -0.204255524328    -0.318800203975    14.003074004430
         C           -0.250602213800     1.104703475672     0.202780796025    12.000000000000
         C           -0.842578713800    -1.209499524328    -0.157600603975    12.000000000000
         C           -1.725877213800     1.007450475672    -0.142536203975    12.000000000000
         C           -2.067069213800    -0.439740524328     0.227572796025    12.000000000000
         C            1.624310786200    -0.623378524328     0.265545796025    12.000000000000
         C            2.725058786200     0.371292475672    -0.049154203975    12.000000000000
         H            0.442706786200    -0.082760524328    -1.330113203975     1.007825032230
         H            0.287611786200     1.933883475672    -0.258268203975     1.007825032230
         H           -0.082060213800     1.111600475672     1.283466796025     1.007825032230
         H           -0.489090213800    -1.924681524328     0.656960796025     1.007825032230
         H           -0.894123213800    -1.801035524328    -1.065752203975     1.007825032230
         H           -1.881145213800     1.194602475672    -1.210633203975     1.007825032230
         H           -2.318930213800     1.738531475672     0.411287796025     1.007825032230
         H           -2.266349213800    -0.517224524328     1.299432796025     1.007825032230
         H           -2.945332213800    -0.815734524328    -0.300788203975     1.007825032230
         H            1.459313786200    -0.732186524328     1.340437796025     1.007825032230
         H            1.844632786200    -1.608842524328    -0.152991203975     1.007825032230
         H            2.840654786200     0.515879475672    -1.127447203975     1.007825032230
         H            2.556624786200     1.339127475672     0.426312796025     1.007825032230
         H            3.670350786200    -0.023452524328     0.330609796025     1.007825032230

  Basis Set: AUG-CC-PVTZ
    Blend: AUG-CC-PVTZ
  Basis Set: (AUG-CC-PVTZ AUX)
    Blend: AUG-CC-PVTZ-JKFIT
	 Reference Energy          =    -289.7023492310134429 [Eh]
	 Singles Energy            =      -0.0000000000000000 [Eh]
	 Same-Spin Energy          =      -0.3036917650020035 [Eh]
	 Opposite-Spin Energy      =      -1.0932154775184744 [Eh]
	 Correlation Energy        =      -1.3969072425204778 [Eh]
	 Total Energy              =    -291.0992564735338988 [Eh]

	 ================> DF-SCS-MP2 Energies <==================
	-----------------------------------------------------------
	 SCS Same-Spin Scale       =       0.3333333333333333 [-]
	 SCS Opposite-Spin Scale   =       1.2000000000000000 [-]
	 SCS Same-Spin Energy      =      -0.1012305883340012 [Eh]
	 SCS Opposite-Spin Energy  =      -1.3118585730221692 [Eh]
	 SCS Correlation Energy    =      -1.4130891613561705 [Eh]
	 SCS Total Energy          =    -291.1154383923696400 [Eh]
	-----------------------------------------------------------

  Dipole Moment: [D]
     X:     0.7284      Y:    -0.4709      Z:    -0.7090     Total:     1.1202

*** Psi4 exiting successfully. Buy a developer a beer!
