                               Psi4 1.3.2 release

  ==> Input File <==

--------------------------------------------------------------------------
#psi4
#
memory 32 gb

molecule  {
1 1
  N        0.2769550    -0.2036720    -0.3241330
  C       -0.2734970     1.1052870     0.1974480
  C       -0.8318510    -1.2416080    -0.1373660
  C       -1.7487720     1.0080340    -0.1478690
  C       -2.0899640    -0.4391570     0.2222400
  C        1.6014160    -0.6227950     0.2602130
  C        2.7021640     0.3718760    -0.0544870
  H        0.4059229    -0.0939892    -1.2371222
  H        0.2647170     1.9344670    -0.2636010
  H       -0.1049550     1.1121840     1.2781340
  H       -0.5119850    -1.9240980     0.6516280
  H       -0.9170180    -1.8004520    -1.0710850
  H       -1.9040400     1.1951860    -1.2159660
  H       -2.3418250     1.7391150     0.4059550
  H       -2.2892440    -0.5166410     1.2941000
  H       -2.9682270    -0.8151510    -0.3061210
  H        1.4364190    -0.7316030     1.3351050
  H        1.8217380    -1.6082590    -0.1583240
  H        2.8177600     0.5164630    -1.1327800
  H        2.5337300     1.3397110     0.4209800
  H        3.6474560    -0.0228690     0.3252770
units angstrom
no_reorient  #important for SAPT in psi4, default
symmetry c1  #important for SAPT in psi4, default
}

set PROPERTIES_ORIGIN ["COM"]
properties('MP2/aug-cc-pvtz', properties = ['dipole'])
--------------------------------------------------------------------------

    Molecular point group: c1
  Charge       = 1
  Multiplicity = 1
  Basis Set: AUG-CC-PVTZ
    Blend: AUG-CC-PVTZ
  Basis Set: (AUG-CC-PVTZ AUX)
    Blend: AUG-CC-PVTZ-JKFIT

    Orbital Energies [Eh]
    ---------------------

    Doubly Occupied:

       1A    -15.840998     2A    -11.452057     3A    -11.451274
       4A    -11.450420     5A    -11.393773     6A    -11.391904
       7A    -11.381979     8A     -1.505697     9A     -1.261401
      10A     -1.186323    11A     -1.178822    12A     -1.043156
      13A     -1.040157    14A     -0.982062    15A     -0.908235
      16A     -0.855126    17A     -0.826918    18A     -0.785906
      19A     -0.780073    20A     -0.762994    21A     -0.730302
      22A     -0.697536    23A     -0.690101    24A     -0.680998
      25A     -0.671804    26A     -0.664431    27A     -0.657731
      28A     -0.643702

  @DF-RHF Final Energy:  -289.70103970468546

   => Energetics <=

    Nuclear Repulsion Energy =            340.6784159851550839
    One-Electron Energy =               -1054.9271543440700043
    Two-Electron Energy =                 424.5476986542294640
    Total Energy =                       -289.7010397046854564
  Basis Set: (AUG-CC-PVTZ AUX)
    Blend: AUG-CC-PVTZ-RI
    Molecular point group: c1

    Geometry (in Angstrom), charge = 1, multiplicity = 1:

       Center              X                  Y                   Z               Mass
    ------------   -----------------  -----------------  -----------------  -----------------
         N            0.295959445502    -0.200217985276    -0.322854657538    14.003074004430
         C           -0.254492554498     1.108741014724     0.198726342462    12.000000000000
         C           -0.812846554498    -1.238153985276    -0.136087657538    12.000000000000
         C           -1.729767554498     1.011488014724    -0.146590657538    12.000000000000
         C           -2.070959554498    -0.435702985276     0.223518342462    12.000000000000
         C            1.620420445502    -0.619340985276     0.261491342462    12.000000000000
         C            2.721168445502     0.375330014724    -0.053208657538    12.000000000000
         H            0.424927345502    -0.090535185276    -1.235843857538     1.007825032230
         H            0.283721445502     1.937921014724    -0.262322657538     1.007825032230
         H           -0.085950554498     1.115638014724     1.279412342462     1.007825032230
         H           -0.492980554498    -1.920643985276     0.652906342462     1.007825032230
         H           -0.898013554498    -1.796997985276    -1.069806657538     1.007825032230
         H           -1.885035554498     1.198640014724    -1.214687657538     1.007825032230
         H           -2.322820554498     1.742569014724     0.407233342462     1.007825032230
         H           -2.270239554498    -0.513186985276     1.295378342462     1.007825032230
         H           -2.949222554498    -0.811696985276    -0.304842657538     1.007825032230
         H            1.455423445502    -0.728148985276     1.336383342462     1.007825032230
         H            1.840742445502    -1.604804985276    -0.157045657538     1.007825032230
         H            2.836764445502     0.519917014724    -1.131501657538     1.007825032230
         H            2.552734445502     1.343165014724     0.422258342462     1.007825032230
         H            3.666460445502    -0.019414985276     0.326555342462     1.007825032230

  Basis Set: AUG-CC-PVTZ
    Blend: AUG-CC-PVTZ
  Basis Set: (AUG-CC-PVTZ AUX)
    Blend: AUG-CC-PVTZ-JKFIT
	 Reference Energy          =    -289.7010397046854564 [Eh]
	 Singles Energy            =      -0.0000000000000000 [Eh]
	 Same-Spin Energy          =      -0.3024914484373286 [Eh]
	 Opposite-Spin Energy      =      -1.0908080333908063 [Eh]
	 Correlation Energy        =      -1.3932994818281350 [Eh]
	 Total Energy              =    -291.0943391865135936 [Eh]

	 ================> DF-SCS-MP2 Energies <==================
	-----------------------------------------------------------
	 SCS Same-Spin Scale       =       0.3333333333333333 [-]
	 SCS Opposite-Spin Scale   =       1.2000000000000000 [-]
	 SCS Same-Spin Energy      =      -0.1008304828124429 [Eh]
	 SCS Opposite-Spin Energy  =      -1.3089696400689677 [Eh]
	 SCS Correlation Energy    =      -1.4098001228814105 [Eh]
	 SCS Total Energy          =    -291.1108398275668492 [Eh]
	-----------------------------------------------------------

  Dipole Moment: [D]
     X:     0.7070      Y:    -0.4826      Z:    -0.6105     Total:     1.0514

*** Psi4 exiting successfully. Buy a developer a beer!
