                               Psi4 1.3.2 release

  ==> Input File <==

--------------------------------------------------------------------------
#psi4
#
memory 32 gb

molecule  {
1 1
  N        0.2769550    -0.2036720    -0.3241330
  C       -0.2522911     1.1077483     0.2129826
  C       -0.8318510    -1.2416080    -0.1373660
  C       -1.7487720     1.0080340    -0.1478690
  C       -2.0899640    -0.4391570     0.2222400
  C        1.6014160    -0.6227950     0.2602130
  C        2.7021640     0.3718760    -0.0544870
  H        0.4198120    -0.0821770    -1.3354460
  H        0.2647170     1.9344670    -0.2636010
  H       -0.1049550     1.1121840     1.2781340
  H       -0.5119850    -1.9240980     0.6516280
  H       -0.9170180    -1.8004520    -1.0710850
  H       -1.9040400     1.1951860    -1.2159660
  H       -2.3418250     1.7391150     0.4059550
  H       -2.2892440    -0.5166410     1.2941000
  H       -2.9682270    -0.8151510    -0.3061210
  H        1.4364190    -0.7316030     1.3351050
  H        1.8217380    -1.6082590    -0.1583240
  H        2.8177600     0.5164630    -1.1327800
  H        2.5337300     1.3397110     0.4209800
  H        3.6474560    -0.0228690     0.3252770
units angstrom
no_reorient  #important for SAPT in psi4, default
symmetry c1  #important for SAPT in psi4, default
}

set PROPERTIES_ORIGIN ["COM"]
properties('MP2/aug-cc-pvtz', properties = ['dipole'])
--------------------------------------------------------------------------

    Molecular point group: c1
  Charge       = 1
  Multiplicity = 1
  Basis Set: AUG-CC-PVTZ
    Blend: AUG-CC-PVTZ
  Basis Set: (AUG-CC-PVTZ AUX)
    Blend: AUG-CC-PVTZ-JKFIT

    Orbital Energies [Eh]
    ---------------------

    Doubly Occupied:

       1A    -15.850194     2A    -11.451126     3A    -11.450532
       4A    -11.448734     5A    -11.394275     6A    -11.391098
       7A    -11.381548     8A     -1.490528     9A     -1.256804
      10A     -1.181891    11A     -1.175650    12A     -1.040346
      13A     -1.026379    14A     -0.979841    15A     -0.902890
      16A     -0.852769    17A     -0.825566    18A     -0.786904
      19A     -0.774466    20A     -0.761909    21A     -0.729345
      22A     -0.696918    23A     -0.689040    24A     -0.678858
      25A     -0.670646    26A     -0.660792    27A     -0.656265
      28A     -0.643264

  @DF-RHF Final Energy:  -289.70565875604643

   => Energetics <=

    Nuclear Repulsion Energy =            339.8673981832839672
    One-Electron Energy =               -1053.4489572415552630
    Two-Electron Energy =                 423.8759003022248635
    Total Energy =                       -289.7056587560464322
  Basis Set: (AUG-CC-PVTZ AUX)
    Blend: AUG-CC-PVTZ-RI
    Molecular point group: c1

    Geometry (in Angstrom), charge = 1, multiplicity = 1:

       Center              X                  Y                   Z               Mass
    ------------   -----------------  -----------------  -----------------  -----------------
         N            0.293277779887    -0.200631921391    -0.323726895316    14.003074004430
         C           -0.235968320113     1.110788378609     0.213388704684    12.000000000000
         C           -0.815528220113    -1.238567921391    -0.136959895316    12.000000000000
         C           -1.732449220113     1.011074078609    -0.147462895316    12.000000000000
         C           -2.073641220113    -0.436116921391     0.222646104684    12.000000000000
         C            1.617738779887    -0.619754921391     0.260619104684    12.000000000000
         C            2.718486779887     0.374916078609    -0.054080895316    12.000000000000
         H            0.436134779887    -0.079136921391    -1.335039895316     1.007825032230
         H            0.281039779887     1.937507078609    -0.263194895316     1.007825032230
         H           -0.088632220113     1.115224078609     1.278540104684     1.007825032230
         H           -0.495662220113    -1.921057921391     0.652034104684     1.007825032230
         H           -0.900695220113    -1.797411921391    -1.070678895316     1.007825032230
         H           -1.887717220113     1.198226078609    -1.215559895316     1.007825032230
         H           -2.325502220113     1.742155078609     0.406361104684     1.007825032230
         H           -2.272921220113    -0.513600921391     1.294506104684     1.007825032230
         H           -2.951904220113    -0.812110921391    -0.305714895316     1.007825032230
         H            1.452741779887    -0.728562921391     1.335511104684     1.007825032230
         H            1.838060779887    -1.605218921391    -0.157917895316     1.007825032230
         H            2.834082779887     0.519503078609    -1.132373895316     1.007825032230
         H            2.550052779887     1.342751078609     0.421386104684     1.007825032230
         H            3.663778779887    -0.019828921391     0.325683104684     1.007825032230

  Basis Set: AUG-CC-PVTZ
    Blend: AUG-CC-PVTZ
  Basis Set: (AUG-CC-PVTZ AUX)
    Blend: AUG-CC-PVTZ-JKFIT
	 Reference Energy          =    -289.7056587560464322 [Eh]
	 Singles Energy            =      -0.0000000000000000 [Eh]
	 Same-Spin Energy          =      -0.3030971941915697 [Eh]
	 Opposite-Spin Energy      =      -1.0926991510121469 [Eh]
	 Correlation Energy        =      -1.3957963452037165 [Eh]
	 Total Energy              =    -291.1014551012501670 [Eh]

	 ================> DF-SCS-MP2 Energies <==================
	-----------------------------------------------------------
	 SCS Same-Spin Scale       =       0.3333333333333333 [-]
	 SCS Opposite-Spin Scale   =       1.2000000000000000 [-]
	 SCS Same-Spin Energy      =      -0.1010323980638566 [Eh]
	 SCS Opposite-Spin Energy  =      -1.3112389812145762 [Eh]
	 SCS Correlation Energy    =      -1.4122713792784327 [Eh]
	 SCS Total Energy          =    -291.1179301353248547 [Eh]
	-----------------------------------------------------------

  Dipole Moment: [D]
     X:     0.7269      Y:    -0.4766      Z:    -0.7062     Total:     1.1199

*** Psi4 exiting successfully. Buy a developer a beer!
