                               Psi4 1.3.2 release

  ==> Input File <==

--------------------------------------------------------------------------
#psi4
#
memory 32 gb

molecule  {
1 1
  N        0.2769550    -0.2036720    -0.3241330
  C       -0.1812299     1.1499307     0.1720970
  C       -0.8318510    -1.2416080    -0.1373660
  C       -1.7487720     1.0080340    -0.1478690
  C       -2.0899640    -0.4391570     0.2222400
  C        1.6014160    -0.6227950     0.2602130
  C        2.7021640     0.3718760    -0.0544870
  H        0.4198120    -0.0821770    -1.3354460
  H        0.2647170     1.9344670    -0.2636010
  H       -0.1049550     1.1121840     1.2781340
  H       -0.5119850    -1.9240980     0.6516280
  H       -0.9170180    -1.8004520    -1.0710850
  H       -1.9040400     1.1951860    -1.2159660
  H       -2.3418250     1.7391150     0.4059550
  H       -2.2892440    -0.5166410     1.2941000
  H       -2.9682270    -0.8151510    -0.3061210
  H        1.4364190    -0.7316030     1.3351050
  H        1.8217380    -1.6082590    -0.1583240
  H        2.8177600     0.5164630    -1.1327800
  H        2.5337300     1.3397110     0.4209800
  H        3.6474560    -0.0228690     0.3252770
units angstrom
no_reorient  #important for SAPT in psi4, default
symmetry c1  #important for SAPT in psi4, default
}

set PROPERTIES_ORIGIN ["COM"]
properties('MP2/aug-cc-pvtz', properties = ['dipole'])
--------------------------------------------------------------------------

    Molecular point group: c1
  Charge       = 1
  Multiplicity = 1
  Basis Set: AUG-CC-PVTZ
    Blend: AUG-CC-PVTZ
  Basis Set: (AUG-CC-PVTZ AUX)
    Blend: AUG-CC-PVTZ-JKFIT

    Orbital Energies [Eh]
    ---------------------

    Doubly Occupied:

       1A    -15.851280     2A    -11.452122     3A    -11.450439
       4A    -11.447507     5A    -11.397172     6A    -11.391765
       7A    -11.381724     8A     -1.489854     9A     -1.250860
      10A     -1.180539    11A     -1.176926    12A     -1.041808
      13A     -1.025598    14A     -0.977632    15A     -0.914084
      16A     -0.850105    17A     -0.820304    18A     -0.783671
      19A     -0.774670    20A     -0.773336    21A     -0.731810
      22A     -0.697566    23A     -0.689025    24A     -0.674909
      25A     -0.670613    26A     -0.659262    27A     -0.654564
      28A     -0.635935

  @DF-RHF Final Energy:  -289.69369509888759

   => Energetics <=

    Nuclear Repulsion Energy =            339.2363052413258515
    One-Electron Energy =               -1052.1698412372372786
    Two-Electron Energy =                 423.2398408970237824
    Total Energy =                       -289.6936950988875878
  Basis Set: (AUG-CC-PVTZ AUX)
    Blend: AUG-CC-PVTZ-RI
    Molecular point group: c1

    Geometry (in Angstrom), charge = 1, multiplicity = 1:

       Center              X                  Y                   Z               Mass
    ------------   -----------------  -----------------  -----------------  -----------------
         N            0.284760028957    -0.205688114881    -0.318826142762    14.003074004430
         C           -0.173424871043     1.147914585119     0.177403857238    12.000000000000
         C           -0.824045971043    -1.243624114881    -0.132059142762    12.000000000000
         C           -1.740966971043     1.006017885119    -0.142562142762    12.000000000000
         C           -2.082158971043    -0.441173114881     0.227546857238    12.000000000000
         C            1.609221028957    -0.624811114881     0.265519857238    12.000000000000
         C            2.709969028957     0.369859885119    -0.049180142762    12.000000000000
         H            0.427617028957    -0.084193114881    -1.330139142762     1.007825032230
         H            0.272522028957     1.932450885119    -0.258294142762     1.007825032230
         H           -0.097149971043     1.110167885119     1.283440857238     1.007825032230
         H           -0.504179971043    -1.926114114881     0.656934857238     1.007825032230
         H           -0.909212971043    -1.802468114881    -1.065778142762     1.007825032230
         H           -1.896234971043     1.193169885119    -1.210659142762     1.007825032230
         H           -2.334019971043     1.737098885119     0.411261857238     1.007825032230
         H           -2.281438971043    -0.518657114881     1.299406857238     1.007825032230
         H           -2.960421971043    -0.817167114881    -0.300814142762     1.007825032230
         H            1.444224028957    -0.733619114881     1.340411857238     1.007825032230
         H            1.829543028957    -1.610275114881    -0.153017142762     1.007825032230
         H            2.825565028957     0.514446885119    -1.127473142762     1.007825032230
         H            2.541535028957     1.337694885119     0.426286857238     1.007825032230
         H            3.655261028957    -0.024885114881     0.330583857238     1.007825032230

  Basis Set: AUG-CC-PVTZ
    Blend: AUG-CC-PVTZ
  Basis Set: (AUG-CC-PVTZ AUX)
    Blend: AUG-CC-PVTZ-JKFIT
	 Reference Energy          =    -289.6936950988875878 [Eh]
	 Singles Energy            =      -0.0000000000000000 [Eh]
	 Same-Spin Energy          =      -0.3030005877074577 [Eh]
	 Opposite-Spin Energy      =      -1.0931546426092038 [Eh]
	 Correlation Energy        =      -1.3961552303166616 [Eh]
	 Total Energy              =    -291.0898503292042392 [Eh]

	 ================> DF-SCS-MP2 Energies <==================
	-----------------------------------------------------------
	 SCS Same-Spin Scale       =       0.3333333333333333 [-]
	 SCS Opposite-Spin Scale   =       1.2000000000000000 [-]
	 SCS Same-Spin Energy      =      -0.1010001959024859 [Eh]
	 SCS Opposite-Spin Energy  =      -1.3117855711310444 [Eh]
	 SCS Correlation Energy    =      -1.4127857670335304 [Eh]
	 SCS Total Energy          =    -291.1064808659211280 [Eh]
	-----------------------------------------------------------

  Dipole Moment: [D]
     X:     0.7103      Y:    -0.5219      Z:    -0.7223     Total:     1.1396

*** Psi4 exiting successfully. Buy a developer a beer!
