                               Psi4 1.4a3.dev225

  ==> Input File <==

--------------------------------------------------------------------------
#psi4
#
memory 32 gb

molecule  {
1 1
  N        0.2769550    -0.2036720    -0.3241330
  C       -0.2734970     1.1052870     0.1974480
  C       -0.8318510    -1.2416080    -0.1373660
  C       -1.7487720     1.0080340    -0.1478690
  C       -2.0899640    -0.4391570     0.2222400
  C        1.6014160    -0.6227950     0.2602130
  C        2.7021640     0.3718760    -0.0544870
  H        0.4170342    -0.0845394    -1.3157812
  H        0.2647170     1.9344670    -0.2636010
  H       -0.1049550     1.1121840     1.2781340
  H       -0.5119850    -1.9240980     0.6516280
  H       -0.9170180    -1.8004520    -1.0710850
  H       -1.9040400     1.1951860    -1.2159660
  H       -2.3418250     1.7391150     0.4059550
  H       -2.2892440    -0.5166410     1.2941000
  H       -2.9682270    -0.8151510    -0.3061210
  H        1.4364190    -0.7316030     1.3351050
  H        1.8217380    -1.6082590    -0.1583240
  H        2.8177600     0.5164630    -1.1327800
  H        2.5337300     1.3397110     0.4209800
  H        3.6474560    -0.0228690     0.3252770
units angstrom
no_reorient  #important for SAPT in psi4, default
symmetry c1  #important for SAPT in psi4, default
}

set PROPERTIES_ORIGIN ["COM"]
properties('MP2/aug-cc-pvtz', properties = ['dipole'])
--------------------------------------------------------------------------

    Molecular point group: c1
  Charge       = 1
  Multiplicity = 1
  Basis Set: AUG-CC-PVTZ
    Blend: AUG-CC-PVTZ
  Basis Set: (AUG-CC-PVTZ AUX)
    Blend: AUG-CC-PVTZ-JKFIT

    Orbital Energies [Eh]
    ---------------------

    Doubly Occupied:

       1A    -15.848272     2A    -11.451584     3A    -11.450614
       4A    -11.449846     5A    -11.393346     6A    -11.391451
       7A    -11.381680     8A     -1.493445     9A     -1.259626
      10A     -1.183583    11A     -1.176313    12A     -1.040376
      13A     -1.028009    14A     -0.981387    15A     -0.903705
      16A     -0.854038    17A     -0.825333    18A     -0.785032
      19A     -0.775677    20A     -0.762131    21A     -0.729705
      22A     -0.694488    23A     -0.689632    24A     -0.680094
      25A     -0.671248    26A     -0.663826    27A     -0.657256
      28A     -0.643154

  @DF-RHF Final Energy:  -289.70667154172565

   => Energetics <=

    Nuclear Repulsion Energy =            340.1554633029374486
    One-Electron Energy =               -1053.9945667708873316
    Two-Electron Energy =                 424.1324319262241715
    Total Energy =                       -289.7066715417256546
  Basis Set: (AUG-CC-PVTZ AUX)
    Blend: AUG-CC-PVTZ-RI
    Molecular point group: c1

    Geometry (in Angstrom), charge = 1, multiplicity = 1:

       Center              X                  Y                   Z               Mass
    ------------   -----------------  -----------------  -----------------  -----------------
         N            0.295847589017    -0.200313115586    -0.322062804266    14.003074004430
         C           -0.254604410983     1.108645884414     0.199518195734    12.000000000000
         C           -0.812958410983    -1.238249115586    -0.135295804266    12.000000000000
         C           -1.729879410983     1.011392884414    -0.145798804266    12.000000000000
         C           -2.071071410983    -0.435798115586     0.224310195734    12.000000000000
         C            1.620308589017    -0.619436115586     0.262283195734    12.000000000000
         C            2.721056589017     0.375234884414    -0.052416804266    12.000000000000
         H            0.435926789017    -0.081180515586    -1.313711004266     1.007825032230
         H            0.283609589017     1.937825884414    -0.261530804266     1.007825032230
         H           -0.086062410983     1.115542884414     1.280204195734     1.007825032230
         H           -0.493092410983    -1.920739115586     0.653698195734     1.007825032230
         H           -0.898125410983    -1.797093115586    -1.069014804266     1.007825032230
         H           -1.885147410983     1.198544884414    -1.213895804266     1.007825032230
         H           -2.322932410983     1.742473884414     0.408025195734     1.007825032230
         H           -2.270351410983    -0.513282115586     1.296170195734     1.007825032230
         H           -2.949334410983    -0.811792115586    -0.304050804266     1.007825032230
         H            1.455311589017    -0.728244115586     1.337175195734     1.007825032230
         H            1.840630589017    -1.604900115586    -0.156253804266     1.007825032230
         H            2.836652589017     0.519821884414    -1.130709804266     1.007825032230
         H            2.552622589017     1.343069884414     0.423050195734     1.007825032230
         H            3.666348589017    -0.019510115586     0.327347195734     1.007825032230

  Basis Set: AUG-CC-PVTZ
    Blend: AUG-CC-PVTZ
  Basis Set: (AUG-CC-PVTZ AUX)
    Blend: AUG-CC-PVTZ-JKFIT
	 Reference Energy          =    -289.7066715417256546 [Eh]
	 Singles Energy            =      -0.0000000000000000 [Eh]
	 Same-Spin Energy          =      -0.3030871807629631 [Eh]
	 Opposite-Spin Energy      =      -1.0923486394019501 [Eh]
	 Correlation Energy        =      -1.3954358201649133 [Eh]
	 Total Energy              =    -291.1021073618905461 [Eh]

	 ================> DF-SCS-MP2 Energies <==================
	-----------------------------------------------------------
	 SCS Same-Spin Scale       =       0.3333333333333333 [-]
	 SCS Opposite-Spin Scale   =       1.2000000000000000 [-]
	 SCS Same-Spin Energy      =      -0.1010290602543210 [Eh]
	 SCS Opposite-Spin Energy  =      -1.3108183672823401 [Eh]
	 SCS Correlation Energy    =      -1.4118474275366613 [Eh]
	 SCS Total Energy          =    -291.1185189692623112 [Eh]
	-----------------------------------------------------------

  Dipole Moment: [D]
     X:     0.7241      Y:    -0.4769      Z:    -0.6856     Total:     1.1053

*** Psi4 exiting successfully. Buy a developer a beer!
