                               Psi4 1.3.2 release

  ==> Input File <==

--------------------------------------------------------------------------
#psi4
#
memory 32 gb

molecule  {
1 1
  N        0.2769550    -0.2036720    -0.3241330
  C       -0.2734970     1.1052870     0.1974480
  C       -0.7230500    -1.3319450    -0.0621523
  C       -1.7487720     1.0080340    -0.1478690
  C       -2.0899640    -0.4391570     0.2222400
  C        1.6014160    -0.6227950     0.2602130
  C        2.7021640     0.3718760    -0.0544870
  H        0.4198120    -0.0821770    -1.3354460
  H        0.2647170     1.9344670    -0.2636010
  H       -0.1049550     1.1121840     1.2781340
  H       -0.5119850    -1.9240980     0.6516280
  H       -0.9170180    -1.8004520    -1.0710850
  H       -1.9040400     1.1951860    -1.2159660
  H       -2.3418250     1.7391150     0.4059550
  H       -2.2892440    -0.5166410     1.2941000
  H       -2.9682270    -0.8151510    -0.3061210
  H        1.4364190    -0.7316030     1.3351050
  H        1.8217380    -1.6082590    -0.1583240
  H        2.8177600     0.5164630    -1.1327800
  H        2.5337300     1.3397110     0.4209800
  H        3.6474560    -0.0228690     0.3252770
units angstrom
no_reorient  #important for SAPT in psi4, default
symmetry c1  #important for SAPT in psi4, default
}

set PROPERTIES_ORIGIN ["COM"]
properties('MP2/aug-cc-pvtz', properties = ['dipole'])
--------------------------------------------------------------------------

    Molecular point group: c1
  Charge       = 1
  Multiplicity = 1
  Basis Set: AUG-CC-PVTZ
    Blend: AUG-CC-PVTZ
  Basis Set: (AUG-CC-PVTZ AUX)
    Blend: AUG-CC-PVTZ-JKFIT

    Orbital Energies [Eh]
    ---------------------

    Doubly Occupied:

       1A    -15.852187     2A    -11.450977     3A    -11.450635
       4A    -11.447884     5A    -11.397084     6A    -11.392985
       7A    -11.380579     8A     -1.490288     9A     -1.250473
      10A     -1.185076    11A     -1.170673    12A     -1.043389
      13A     -1.032550    14A     -0.978604    15A     -0.900897
      16A     -0.858882    17A     -0.825332    18A     -0.803288
      19A     -0.774225    20A     -0.761335    21A     -0.726773
      22A     -0.704607    23A     -0.686542    24A     -0.676708
      25A     -0.669846    26A     -0.658029    27A     -0.651324
      28A     -0.628006

  @DF-RHF Final Energy:  -289.67602597981551

   => Energetics <=

    Nuclear Repulsion Energy =            339.1125546728251834
    One-Electron Energy =               -1051.8788053907935591
    Two-Electron Energy =                 423.0902247381529264
    Total Energy =                       -289.6760259798155062
  Basis Set: (AUG-CC-PVTZ AUX)
    Blend: AUG-CC-PVTZ-RI
    Molecular point group: c1

    Geometry (in Angstrom), charge = 1, multiplicity = 1:

       Center              X                  Y                   Z               Mass
    ------------   -----------------  -----------------  -----------------  -----------------
         N            0.282778192989    -0.189508652912    -0.330880330798    14.003074004430
         C           -0.267673807011     1.119450347088     0.190700669202    12.000000000000
         C           -0.717226807011    -1.317781652912    -0.068899630798    12.000000000000
         C           -1.742948807011     1.022197347088    -0.154616330798    12.000000000000
         C           -2.084140807011    -0.424993652912     0.215492669202    12.000000000000
         C            1.607239192989    -0.608631652912     0.253465669202    12.000000000000
         C            2.707987192989     0.386039347088    -0.061234330798    12.000000000000
         H            0.425635192989    -0.068013652912    -1.342193330798     1.007825032230
         H            0.270540192989     1.948630347088    -0.270348330798     1.007825032230
         H           -0.099131807011     1.126347347088     1.271386669202     1.007825032230
         H           -0.506161807011    -1.909934652912     0.644880669202     1.007825032230
         H           -0.911194807011    -1.786288652912    -1.077832330798     1.007825032230
         H           -1.898216807011     1.209349347088    -1.222713330798     1.007825032230
         H           -2.336001807011     1.753278347088     0.399207669202     1.007825032230
         H           -2.283420807011    -0.502477652912     1.287352669202     1.007825032230
         H           -2.962403807011    -0.800987652912    -0.312868330798     1.007825032230
         H            1.442242192989    -0.717439652912     1.328357669202     1.007825032230
         H            1.827561192989    -1.594095652912    -0.165071330798     1.007825032230
         H            2.823583192989     0.530626347088    -1.139527330798     1.007825032230
         H            2.539553192989     1.353874347088     0.414232669202     1.007825032230
         H            3.653279192989    -0.008705652912     0.318529669202     1.007825032230

  Basis Set: AUG-CC-PVTZ
    Blend: AUG-CC-PVTZ
  Basis Set: (AUG-CC-PVTZ AUX)
    Blend: AUG-CC-PVTZ-JKFIT
	 Reference Energy          =    -289.6760259798155062 [Eh]
	 Singles Energy            =      -0.0000000000000000 [Eh]
	 Same-Spin Energy          =      -0.3030928123108158 [Eh]
	 Opposite-Spin Energy      =      -1.0938085511015450 [Eh]
	 Correlation Energy        =      -1.3969013634123608 [Eh]
	 Total Energy              =    -291.0729273432278887 [Eh]

	 ================> DF-SCS-MP2 Energies <==================
	-----------------------------------------------------------
	 SCS Same-Spin Scale       =       0.3333333333333333 [-]
	 SCS Opposite-Spin Scale   =       1.2000000000000000 [-]
	 SCS Same-Spin Energy      =      -0.1010309374369386 [Eh]
	 SCS Opposite-Spin Energy  =      -1.3125702613218539 [Eh]
	 SCS Correlation Energy    =      -1.4136011987587924 [Eh]
	 SCS Total Energy          =    -291.0896271785742897 [Eh]
	-----------------------------------------------------------

  Dipole Moment: [D]
     X:     0.7058      Y:    -0.4270      Z:    -0.7038     Total:     1.0843

*** Psi4 exiting successfully. Buy a developer a beer!
