                               Psi4 1.3.2 release

  ==> Input File <==

--------------------------------------------------------------------------
#psi4
#
memory 32 gb

molecule  {
1 1
  N        0.3487664    -0.2022463    -0.4645829
  C       -0.2734970     1.1052870     0.1974480
  C       -0.8318510    -1.2416080    -0.1373660
  C       -1.7487720     1.0080340    -0.1478690
  C       -2.0899640    -0.4391570     0.2222400
  C        1.6014160    -0.6227950     0.2602130
  C        2.7021640     0.3718760    -0.0544870
  H        0.4198120    -0.0821770    -1.3354460
  H        0.2647170     1.9344670    -0.2636010
  H       -0.1049550     1.1121840     1.2781340
  H       -0.5119850    -1.9240980     0.6516280
  H       -0.9170180    -1.8004520    -1.0710850
  H       -1.9040400     1.1951860    -1.2159660
  H       -2.3418250     1.7391150     0.4059550
  H       -2.2892440    -0.5166410     1.2941000
  H       -2.9682270    -0.8151510    -0.3061210
  H        1.4364190    -0.7316030     1.3351050
  H        1.8217380    -1.6082590    -0.1583240
  H        2.8177600     0.5164630    -1.1327800
  H        2.5337300     1.3397110     0.4209800
  H        3.6474560    -0.0228690     0.3252770
units angstrom
no_reorient  #important for SAPT in psi4, default
symmetry c1  #important for SAPT in psi4, default
}

set PROPERTIES_ORIGIN ["COM"]
properties('MP2/aug-cc-pvtz', properties = ['dipole'])
--------------------------------------------------------------------------

    Molecular point group: c1
  Charge       = 1
  Multiplicity = 1
  Basis Set: AUG-CC-PVTZ
    Blend: AUG-CC-PVTZ
  Basis Set: (AUG-CC-PVTZ AUX)
    Blend: AUG-CC-PVTZ-JKFIT

    Orbital Energies [Eh]
    ---------------------

    Doubly Occupied:

       1A    -15.833928     2A    -11.456871     3A    -11.456858
       4A    -11.450116     5A    -11.395364     6A    -11.393880
       7A    -11.377365     8A     -1.484499     9A     -1.260419
      10A     -1.186409    11A     -1.168818    12A     -1.053588
      13A     -1.034613    14A     -0.974965    15A     -0.893999
      16A     -0.848395    17A     -0.826743    18A     -0.792173
      19A     -0.787274    20A     -0.758689    21A     -0.716267
      22A     -0.707044    23A     -0.686937    24A     -0.674433
      25A     -0.665644    26A     -0.659453    27A     -0.653736
      28A     -0.642569

  @DF-RHF Final Energy:  -289.67232636109719

   => Energetics <=

    Nuclear Repulsion Energy =            338.4799192254535569
    One-Electron Energy =               -1050.6223925295794288
    Two-Electron Energy =                 422.4701469430286238
    Total Energy =                       -289.6723263610971912
  Basis Set: (AUG-CC-PVTZ AUX)
    Blend: AUG-CC-PVTZ-RI
    Molecular point group: c1

    Geometry (in Angstrom), charge = 1, multiplicity = 1:

       Center              X                  Y                   Z               Mass
    ------------   -----------------  -----------------  -----------------  -----------------
         N            0.357586534215    -0.199110614893    -0.442669562284    14.003074004430
         C           -0.264676865785     1.108422685107     0.219361337716    12.000000000000
         C           -0.823030865785    -1.238472314893    -0.115452662284    12.000000000000
         C           -1.739951865785     1.011169685107    -0.125955662284    12.000000000000
         C           -2.081143865785    -0.436021314893     0.244153337716    12.000000000000
         C            1.610236134215    -0.619659314893     0.282126337716    12.000000000000
         C            2.710984134215     0.375011685107    -0.032573662284    12.000000000000
         H            0.428632134215    -0.079041314893    -1.313532662284     1.007825032230
         H            0.273537134215     1.937602685107    -0.241687662284     1.007825032230
         H           -0.096134865785     1.115319685107     1.300047337716     1.007825032230
         H           -0.503164865785    -1.920962314893     0.673541337716     1.007825032230
         H           -0.908197865785    -1.797316314893    -1.049171662284     1.007825032230
         H           -1.895219865785     1.198321685107    -1.194052662284     1.007825032230
         H           -2.333004865785     1.742250685107     0.427868337716     1.007825032230
         H           -2.280423865785    -0.513505314893     1.316013337716     1.007825032230
         H           -2.959406865785    -0.812015314893    -0.284207662284     1.007825032230
         H            1.445239134215    -0.728467314893     1.357018337716     1.007825032230
         H            1.830558134215    -1.605123314893    -0.136410662284     1.007825032230
         H            2.826580134215     0.519598685107    -1.110866662284     1.007825032230
         H            2.542550134215     1.342846685107     0.442893337716     1.007825032230
         H            3.656276134215    -0.019733314893     0.347190337716     1.007825032230

  Basis Set: AUG-CC-PVTZ
    Blend: AUG-CC-PVTZ
  Basis Set: (AUG-CC-PVTZ AUX)
    Blend: AUG-CC-PVTZ-JKFIT
	 Reference Energy          =    -289.6723263610971912 [Eh]
	 Singles Energy            =      -0.0000000000000000 [Eh]
	 Same-Spin Energy          =      -0.3021600013670895 [Eh]
	 Opposite-Spin Energy      =      -1.0924320920694841 [Eh]
	 Correlation Energy        =      -1.3945920934365736 [Eh]
	 Total Energy              =    -291.0669184545337771 [Eh]

	 ================> DF-SCS-MP2 Energies <==================
	-----------------------------------------------------------
	 SCS Same-Spin Scale       =       0.3333333333333333 [-]
	 SCS Opposite-Spin Scale   =       1.2000000000000000 [-]
	 SCS Same-Spin Energy      =      -0.1007200004556965 [Eh]
	 SCS Opposite-Spin Energy  =      -1.3109185104833809 [Eh]
	 SCS Correlation Energy    =      -1.4116385109390774 [Eh]
	 SCS Total Energy          =    -291.0839648720362902 [Eh]
	-----------------------------------------------------------

  Dipole Moment: [D]
     X:     0.4970      Y:    -0.4698      Z:    -0.4852     Total:     0.8386

*** Psi4 exiting successfully. Buy a developer a beer!
