                               Psi4 1.3.2 release

  ==> Input File <==

--------------------------------------------------------------------------
#psi4
#
memory 32 gb

molecule  {
1 1
  N        0.2769550    -0.2036720    -0.3241330
  C       -0.2734970     1.1052870     0.1974480
  C       -0.7968776    -1.2730354    -0.1120262
  C       -1.7487720     1.0080340    -0.1478690
  C       -2.0899640    -0.4391570     0.2222400
  C        1.6014160    -0.6227950     0.2602130
  C        2.7021640     0.3718760    -0.0544870
  H        0.4198120    -0.0821770    -1.3354460
  H        0.2647170     1.9344670    -0.2636010
  H       -0.1049550     1.1121840     1.2781340
  H       -0.5119850    -1.9240980     0.6516280
  H       -0.9170180    -1.8004520    -1.0710850
  H       -1.9040400     1.1951860    -1.2159660
  H       -2.3418250     1.7391150     0.4059550
  H       -2.2892440    -0.5166410     1.2941000
  H       -2.9682270    -0.8151510    -0.3061210
  H        1.4364190    -0.7316030     1.3351050
  H        1.8217380    -1.6082590    -0.1583240
  H        2.8177600     0.5164630    -1.1327800
  H        2.5337300     1.3397110     0.4209800
  H        3.6474560    -0.0228690     0.3252770
units angstrom
no_reorient  #important for SAPT in psi4, default
symmetry c1  #important for SAPT in psi4, default
}

set PROPERTIES_ORIGIN ["COM"]
properties('MP2/aug-cc-pvtz', properties = ['dipole'])
--------------------------------------------------------------------------

    Molecular point group: c1
  Charge       = 1
  Multiplicity = 1
  Basis Set: AUG-CC-PVTZ
    Blend: AUG-CC-PVTZ
  Basis Set: (AUG-CC-PVTZ AUX)
    Blend: AUG-CC-PVTZ-JKFIT

    Orbital Energies [Eh]
    ---------------------

    Doubly Occupied:

       1A    -15.850471     2A    -11.451224     3A    -11.449923
       4A    -11.449053     5A    -11.393386     6A    -11.392748
       7A    -11.381238     8A     -1.490455     9A     -1.255661
      10A     -1.183649    11A     -1.173507    12A     -1.040308
      13A     -1.027573    14A     -0.980292    15A     -0.901415
      16A     -0.854696    17A     -0.824021    18A     -0.791157
      19A     -0.774294    20A     -0.762178    21A     -0.728190
      22A     -0.697645    23A     -0.688257    24A     -0.679193
      25A     -0.670306    26A     -0.660364    27A     -0.654329
      28A     -0.643499

  @DF-RHF Final Energy:  -289.70343751998712

   => Energetics <=

    Nuclear Repulsion Energy =            339.7000405274308719
    One-Electron Energy =               -1053.1088924811151628
    Two-Electron Energy =                 423.7054144336971149
    Total Energy =                       -289.7034375199871192
  Basis Set: (AUG-CC-PVTZ AUX)
    Blend: AUG-CC-PVTZ-RI
    Molecular point group: c1

    Geometry (in Angstrom), charge = 1, multiplicity = 1:

       Center              X                  Y                   Z               Mass
    ------------   -----------------  -----------------  -----------------  -----------------
         N            0.291627538462    -0.196569852274    -0.324902195640    14.003074004430
         C           -0.258824461538     1.112389147726     0.196678804360    12.000000000000
         C           -0.782205061538    -1.265933252274    -0.112795395640    12.000000000000
         C           -1.734099461538     1.015136147726    -0.148638195640    12.000000000000
         C           -2.075291461538    -0.432054852274     0.221470804360    12.000000000000
         C            1.616088538462    -0.615692852274     0.259443804360    12.000000000000
         C            2.716836538462     0.378978147726    -0.055256195640    12.000000000000
         H            0.434484538462    -0.075074852274    -1.336215195640     1.007825032230
         H            0.279389538462     1.941569147726    -0.264370195640     1.007825032230
         H           -0.090282461538     1.119286147726     1.277364804360     1.007825032230
         H           -0.497312461538    -1.916995852274     0.650858804360     1.007825032230
         H           -0.902345461538    -1.793349852274    -1.071854195640     1.007825032230
         H           -1.889367461538     1.202288147726    -1.216735195640     1.007825032230
         H           -2.327152461538     1.746217147726     0.405185804360     1.007825032230
         H           -2.274571461538    -0.509538852274     1.293330804360     1.007825032230
         H           -2.953554461538    -0.808048852274    -0.306890195640     1.007825032230
         H            1.451091538462    -0.724500852274     1.334335804360     1.007825032230
         H            1.836410538462    -1.601156852274    -0.159093195640     1.007825032230
         H            2.832432538462     0.523565147726    -1.133549195640     1.007825032230
         H            2.548402538462     1.346813147726     0.420210804360     1.007825032230
         H            3.662128538462    -0.015766852274     0.324507804360     1.007825032230

  Basis Set: AUG-CC-PVTZ
    Blend: AUG-CC-PVTZ
  Basis Set: (AUG-CC-PVTZ AUX)
    Blend: AUG-CC-PVTZ-JKFIT
	 Reference Energy          =    -289.7034375199871192 [Eh]
	 Singles Energy            =      -0.0000000000000000 [Eh]
	 Same-Spin Energy          =      -0.3029921406885795 [Eh]
	 Opposite-Spin Energy      =      -1.0927068711251380 [Eh]
	 Correlation Energy        =      -1.3956990118137176 [Eh]
	 Total Energy              =    -291.0991365318008093 [Eh]

	 ================> DF-SCS-MP2 Energies <==================
	-----------------------------------------------------------
	 SCS Same-Spin Scale       =       0.3333333333333333 [-]
	 SCS Opposite-Spin Scale   =       1.2000000000000000 [-]
	 SCS Same-Spin Energy      =      -0.1009973802295265 [Eh]
	 SCS Opposite-Spin Energy  =      -1.3112482453501655 [Eh]
	 SCS Correlation Energy    =      -1.4122456255796920 [Eh]
	 SCS Total Energy          =    -291.1156831455668339 [Eh]
	-----------------------------------------------------------

  Dipole Moment: [D]
     X:     0.7244      Y:    -0.4701      Z:    -0.7017     Total:     1.1127

*** Psi4 exiting successfully. Buy a developer a beer!
