                               Psi4 1.3.2 release

  ==> Input File <==

--------------------------------------------------------------------------
#psi4
#
memory 32 gb

molecule  {
1 1
  N        0.2769550    -0.2036720    -0.3241330
  C       -0.3969891     1.0821807     0.1010728
  C       -0.8318510    -1.2416080    -0.1373660
  C       -1.7487720     1.0080340    -0.1478690
  C       -2.0899640    -0.4391570     0.2222400
  C        1.6014160    -0.6227950     0.2602130
  C        2.7021640     0.3718760    -0.0544870
  H        0.4198120    -0.0821770    -1.3354460
  H        0.2647170     1.9344670    -0.2636010
  H       -0.1049550     1.1121840     1.2781340
  H       -0.5119850    -1.9240980     0.6516280
  H       -0.9170180    -1.8004520    -1.0710850
  H       -1.9040400     1.1951860    -1.2159660
  H       -2.3418250     1.7391150     0.4059550
  H       -2.2892440    -0.5166410     1.2941000
  H       -2.9682270    -0.8151510    -0.3061210
  H        1.4364190    -0.7316030     1.3351050
  H        1.8217380    -1.6082590    -0.1583240
  H        2.8177600     0.5164630    -1.1327800
  H        2.5337300     1.3397110     0.4209800
  H        3.6474560    -0.0228690     0.3252770
units angstrom
no_reorient  #important for SAPT in psi4, default
symmetry c1  #important for SAPT in psi4, default
}

set PROPERTIES_ORIGIN ["COM"]
properties('MP2/aug-cc-pvtz', properties = ['dipole'])
--------------------------------------------------------------------------

    Molecular point group: c1
  Charge       = 1
  Multiplicity = 1
  Basis Set: AUG-CC-PVTZ
    Blend: AUG-CC-PVTZ
  Basis Set: (AUG-CC-PVTZ AUX)
    Blend: AUG-CC-PVTZ-JKFIT

    Orbital Energies [Eh]
    ---------------------

    Doubly Occupied:

       1A    -15.849352     2A    -11.458023     3A    -11.453885
       4A    -11.450398     5A    -11.394027     6A    -11.386729
       7A    -11.381871     8A     -1.493977     9A     -1.280138
      10A     -1.191805    11A     -1.175761    12A     -1.041130
      13A     -1.015171    14A     -0.988946    15A     -0.898857
      16A     -0.861213    17A     -0.826045    18A     -0.779540
      19A     -0.772849    20A     -0.765901    21A     -0.737707
      22A     -0.699626    23A     -0.689216    24A     -0.680117
      25A     -0.672775    26A     -0.659051    27A     -0.656496
      28A     -0.627444

  @DF-RHF Final Energy:  -289.67488732789889

   => Energetics <=

    Nuclear Repulsion Energy =            341.1955387690721295
    One-Electron Energy =               -1055.9647550770362159
    Two-Electron Energy =                 425.0943289800652565
    Total Energy =                       -289.6748873278988867
  Basis Set: (AUG-CC-PVTZ AUX)
    Blend: AUG-CC-PVTZ-RI
    Molecular point group: c1

    Geometry (in Angstrom), charge = 1, multiplicity = 1:

       Center              X                  Y                   Z               Mass
    ------------   -----------------  -----------------  -----------------  -----------------
         N            0.310622006046    -0.197567260948    -0.310312826837    14.003074004430
         C           -0.363322093954     1.088285439052     0.114892973163    12.000000000000
         C           -0.798183993954    -1.235503260948    -0.123545826837    12.000000000000
         C           -1.715104993954     1.014138739052    -0.134048826837    12.000000000000
         C           -2.056296993954    -0.433052260948     0.236060173163    12.000000000000
         C            1.635083006046    -0.616690260948     0.274033173163    12.000000000000
         C            2.735831006046     0.377980739052    -0.040666826837    12.000000000000
         H            0.453479006046    -0.076072260948    -1.321625826837     1.007825032230
         H            0.298384006046     1.940571739052    -0.249780826837     1.007825032230
         H           -0.071287993954     1.118288739052     1.291954173163     1.007825032230
         H           -0.478317993954    -1.917993260948     0.665448173163     1.007825032230
         H           -0.883350993954    -1.794347260948    -1.057264826837     1.007825032230
         H           -1.870372993954     1.201290739052    -1.202145826837     1.007825032230
         H           -2.308157993954     1.745219739052     0.419775173163     1.007825032230
         H           -2.255576993954    -0.510536260948     1.307920173163     1.007825032230
         H           -2.934559993954    -0.809046260948    -0.292300826837     1.007825032230
         H            1.470086006046    -0.725498260948     1.348925173163     1.007825032230
         H            1.855405006046    -1.602154260948    -0.144503826837     1.007825032230
         H            2.851427006046     0.522567739052    -1.118959826837     1.007825032230
         H            2.567397006046     1.345815739052     0.434800173163     1.007825032230
         H            3.681123006046    -0.016764260948     0.339097173163     1.007825032230

  Basis Set: AUG-CC-PVTZ
    Blend: AUG-CC-PVTZ
  Basis Set: (AUG-CC-PVTZ AUX)
    Blend: AUG-CC-PVTZ-JKFIT
	 Reference Energy          =    -289.6748873278988867 [Eh]
	 Singles Energy            =      -0.0000000000000000 [Eh]
	 Same-Spin Energy          =      -0.3053455984692587 [Eh]
	 Opposite-Spin Energy      =      -1.0954053131936545 [Eh]
	 Correlation Energy        =      -1.4007509116629133 [Eh]
	 Total Energy              =    -291.0756382395617834 [Eh]

	 ================> DF-SCS-MP2 Energies <==================
	-----------------------------------------------------------
	 SCS Same-Spin Scale       =       0.3333333333333333 [-]
	 SCS Opposite-Spin Scale   =       1.2000000000000000 [-]
	 SCS Same-Spin Energy      =      -0.1017818661564196 [Eh]
	 SCS Opposite-Spin Energy  =      -1.3144863758323855 [Eh]
	 SCS Correlation Energy    =      -1.4162682419888051 [Eh]
	 SCS Total Energy          =    -291.0911555698876896 [Eh]
	-----------------------------------------------------------

  Dipole Moment: [D]
     X:     0.6874      Y:    -0.4909      Z:    -0.7227     Total:     1.1116

*** Psi4 exiting successfully. Buy a developer a beer!
