                               Psi4 1.3.2 release

  ==> Input File <==

--------------------------------------------------------------------------
#psi4
#
memory 32 gb

molecule  {
1 1
  N        0.2552800    -0.2470558    -0.3037543
  C       -0.2734970     1.1052870     0.1974480
  C       -0.8318510    -1.2416080    -0.1373660
  C       -1.7487720     1.0080340    -0.1478690
  C       -2.0899640    -0.4391570     0.2222400
  C        1.6014160    -0.6227950     0.2602130
  C        2.7021640     0.3718760    -0.0544870
  H        0.4198120    -0.0821770    -1.3354460
  H        0.2647170     1.9344670    -0.2636010
  H       -0.1049550     1.1121840     1.2781340
  H       -0.5119850    -1.9240980     0.6516280
  H       -0.9170180    -1.8004520    -1.0710850
  H       -1.9040400     1.1951860    -1.2159660
  H       -2.3418250     1.7391150     0.4059550
  H       -2.2892440    -0.5166410     1.2941000
  H       -2.9682270    -0.8151510    -0.3061210
  H        1.4364190    -0.7316030     1.3351050
  H        1.8217380    -1.6082590    -0.1583240
  H        2.8177600     0.5164630    -1.1327800
  H        2.5337300     1.3397110     0.4209800
  H        3.6474560    -0.0228690     0.3252770
units angstrom
no_reorient  #important for SAPT in psi4, default
symmetry c1  #important for SAPT in psi4, default
}

set PROPERTIES_ORIGIN ["COM"]
properties('MP2/aug-cc-pvtz', properties = ['dipole'])
--------------------------------------------------------------------------

    Molecular point group: c1
  Charge       = 1
  Multiplicity = 1
  Basis Set: AUG-CC-PVTZ
    Blend: AUG-CC-PVTZ
  Basis Set: (AUG-CC-PVTZ AUX)
    Blend: AUG-CC-PVTZ-JKFIT

    Orbital Energies [Eh]
    ---------------------

    Doubly Occupied:

       1A    -15.852143     2A    -11.452114     3A    -11.451788
       4A    -11.446112     5A    -11.393127     6A    -11.390807
       7A    -11.383459     8A     -1.492600     9A     -1.259025
      10A     -1.188642    11A     -1.172049    12A     -1.042134
      13A     -1.018982    14A     -0.982371    15A     -0.904846
      16A     -0.853869    17A     -0.823283    18A     -0.784636
      19A     -0.770606    20A     -0.767032    21A     -0.727002
      22A     -0.697779    23A     -0.688281    24A     -0.679646
      25A     -0.669477    26A     -0.663746    27A     -0.657471
      28A     -0.642281

  @DF-RHF Final Energy:  -289.70241336426841

   => Energetics <=

    Nuclear Repulsion Energy =            340.2072288548187089
    One-Electron Energy =               -1054.1086691890998281
    Two-Electron Energy =                 424.1990269700127101
    Total Energy =                       -289.7024133642684092
  Basis Set: (AUG-CC-PVTZ AUX)
    Blend: AUG-CC-PVTZ-RI
    Molecular point group: c1

    Geometry (in Angstrom), charge = 1, multiplicity = 1:

       Center              X                  Y                   Z               Mass
    ------------   -----------------  -----------------  -----------------  -----------------
         N            0.277176376944    -0.237652466352    -0.304336574601    14.003074004430
         C           -0.251600623056     1.114690333648     0.196865725399    12.000000000000
         C           -0.809954623056    -1.232204666352    -0.137948274601    12.000000000000
         C           -1.726875623056     1.017437333648    -0.148451274601    12.000000000000
         C           -2.068067623056    -0.429753666352     0.221657725399    12.000000000000
         C            1.623312376944    -0.613391666352     0.259630725399    12.000000000000
         C            2.724060376944     0.381279333648    -0.055069274601    12.000000000000
         H            0.441708376944    -0.072773666352    -1.336028274601     1.007825032230
         H            0.286613376944     1.943870333648    -0.264183274601     1.007825032230
         H           -0.083058623056     1.121587333648     1.277551725399     1.007825032230
         H           -0.490088623056    -1.914694666352     0.651045725399     1.007825032230
         H           -0.895121623056    -1.791048666352    -1.071667274601     1.007825032230
         H           -1.882143623056     1.204589333648    -1.216548274601     1.007825032230
         H           -2.319928623056     1.748518333648     0.405372725399     1.007825032230
         H           -2.267347623056    -0.507237666352     1.293517725399     1.007825032230
         H           -2.946330623056    -0.805747666352    -0.306703274601     1.007825032230
         H            1.458315376944    -0.722199666352     1.334522725399     1.007825032230
         H            1.843634376944    -1.598855666352    -0.158906274601     1.007825032230
         H            2.839656376944     0.525866333648    -1.133362274601     1.007825032230
         H            2.555626376944     1.349114333648     0.420397725399     1.007825032230
         H            3.669352376944    -0.013465666352     0.324694725399     1.007825032230

  Basis Set: AUG-CC-PVTZ
    Blend: AUG-CC-PVTZ
  Basis Set: (AUG-CC-PVTZ AUX)
    Blend: AUG-CC-PVTZ-JKFIT
	 Reference Energy          =    -289.7024133642684092 [Eh]
	 Singles Energy            =      -0.0000000000000000 [Eh]
	 Same-Spin Energy          =      -0.3036853811266847 [Eh]
	 Opposite-Spin Energy      =      -1.0934384352003952 [Eh]
	 Correlation Energy        =      -1.3971238163270798 [Eh]
	 Total Energy              =    -291.0995371805954619 [Eh]

	 ================> DF-SCS-MP2 Energies <==================
	-----------------------------------------------------------
	 SCS Same-Spin Scale       =       0.3333333333333333 [-]
	 SCS Opposite-Spin Scale   =       1.2000000000000000 [-]
	 SCS Same-Spin Energy      =      -0.1012284603755616 [Eh]
	 SCS Opposite-Spin Energy  =      -1.3121261222404741 [Eh]
	 SCS Correlation Energy    =      -1.4133545826160356 [Eh]
	 SCS Total Energy          =    -291.1157679468844321 [Eh]
	-----------------------------------------------------------

  Dipole Moment: [D]
     X:     0.7927      Y:    -0.3847      Z:    -0.7290     Total:     1.1436

*** Psi4 exiting successfully. Buy a developer a beer!
