                               Psi4 1.3.2 release

  ==> Input File <==

--------------------------------------------------------------------------
#psi4
#
memory 32 gb

molecule  {
1 1
  N        0.2769550    -0.2036720    -0.3241330
  C       -0.2750542     1.0842747     0.2458643
  C       -0.8318510    -1.2416080    -0.1373660
  C       -1.7487720     1.0080340    -0.1478690
  C       -2.0899640    -0.4391570     0.2222400
  C        1.6014160    -0.6227950     0.2602130
  C        2.7021640     0.3718760    -0.0544870
  H        0.4198120    -0.0821770    -1.3354460
  H        0.2647170     1.9344670    -0.2636010
  H       -0.1049550     1.1121840     1.2781340
  H       -0.5119850    -1.9240980     0.6516280
  H       -0.9170180    -1.8004520    -1.0710850
  H       -1.9040400     1.1951860    -1.2159660
  H       -2.3418250     1.7391150     0.4059550
  H       -2.2892440    -0.5166410     1.2941000
  H       -2.9682270    -0.8151510    -0.3061210
  H        1.4364190    -0.7316030     1.3351050
  H        1.8217380    -1.6082590    -0.1583240
  H        2.8177600     0.5164630    -1.1327800
  H        2.5337300     1.3397110     0.4209800
  H        3.6474560    -0.0228690     0.3252770
units angstrom
no_reorient  #important for SAPT in psi4, default
symmetry c1  #important for SAPT in psi4, default
}

set PROPERTIES_ORIGIN ["COM"]
properties('MP2/aug-cc-pvtz', properties = ['dipole'])
--------------------------------------------------------------------------

    Molecular point group: c1
  Charge       = 1
  Multiplicity = 1
  Basis Set: AUG-CC-PVTZ
    Blend: AUG-CC-PVTZ
  Basis Set: (AUG-CC-PVTZ AUX)
    Blend: AUG-CC-PVTZ-JKFIT

    Orbital Energies [Eh]
    ---------------------

    Doubly Occupied:

       1A    -15.850135     2A    -11.451304     3A    -11.449970
       4A    -11.449458     5A    -11.393788     6A    -11.390790
       7A    -11.381377     8A     -1.490984     9A     -1.259101
      10A     -1.182682    11A     -1.174477    12A     -1.040198
      13A     -1.028505    14A     -0.980262    15A     -0.898690
      16A     -0.854071    17A     -0.829054    18A     -0.789831
      19A     -0.774850    20A     -0.757431    21A     -0.727499
      22A     -0.700378    23A     -0.687748    24A     -0.681365
      25A     -0.670471    26A     -0.660893    27A     -0.652076
      28A     -0.644149

  @DF-RHF Final Energy:  -289.70263379862968

   => Energetics <=

    Nuclear Repulsion Energy =            340.1202728373100967
    One-Electron Energy =               -1053.9427384105247256
    Two-Electron Energy =                 424.1198317745850090
    Total Energy =                       -289.7026337986296767
  Basis Set: (AUG-CC-PVTZ AUX)
    Blend: AUG-CC-PVTZ-RI
    Molecular point group: c1

    Geometry (in Angstrom), charge = 1, multiplicity = 1:

       Center              X                  Y                   Z               Mass
    ------------   -----------------  -----------------  -----------------  -----------------
         N            0.296006278930    -0.197818258264    -0.327668260375    14.003074004430
         C           -0.256002921070     1.090128441736     0.242329039625    12.000000000000
         C           -0.812799721070    -1.235754258264    -0.140901260375    12.000000000000
         C           -1.729720721070     1.013887741736    -0.151404260375    12.000000000000
         C           -2.070912721070    -0.433303258264     0.218704739625    12.000000000000
         C            1.620467278930    -0.616941258264     0.256677739625    12.000000000000
         C            2.721215278930     0.377729741736    -0.058022260375    12.000000000000
         H            0.438863278930    -0.076323258264    -1.338981260375     1.007825032230
         H            0.283768278930     1.940320741736    -0.267136260375     1.007825032230
         H           -0.085903721070     1.118037741736     1.274598739625     1.007825032230
         H           -0.492933721070    -1.918244258264     0.648092739625     1.007825032230
         H           -0.897966721070    -1.794598258264    -1.074620260375     1.007825032230
         H           -1.884988721070     1.201039741736    -1.219501260375     1.007825032230
         H           -2.322773721070     1.744968741736     0.402419739625     1.007825032230
         H           -2.270192721070    -0.510787258264     1.290564739625     1.007825032230
         H           -2.949175721070    -0.809297258264    -0.309656260375     1.007825032230
         H            1.455470278930    -0.725749258264     1.331569739625     1.007825032230
         H            1.840789278930    -1.602405258264    -0.161859260375     1.007825032230
         H            2.836811278930     0.522316741736    -1.136315260375     1.007825032230
         H            2.552781278930     1.345564741736     0.417444739625     1.007825032230
         H            3.666507278930    -0.017015258264     0.321741739625     1.007825032230

  Basis Set: AUG-CC-PVTZ
    Blend: AUG-CC-PVTZ
  Basis Set: (AUG-CC-PVTZ AUX)
    Blend: AUG-CC-PVTZ-JKFIT
	 Reference Energy          =    -289.7026337986296767 [Eh]
	 Singles Energy            =      -0.0000000000000000 [Eh]
	 Same-Spin Energy          =      -0.3032781305685183 [Eh]
	 Opposite-Spin Energy      =      -1.0929195432180006 [Eh]
	 Correlation Energy        =      -1.3961976737865189 [Eh]
	 Total Energy              =    -291.0988314724161796 [Eh]

	 ================> DF-SCS-MP2 Energies <==================
	-----------------------------------------------------------
	 SCS Same-Spin Scale       =       0.3333333333333333 [-]
	 SCS Opposite-Spin Scale   =       1.2000000000000000 [-]
	 SCS Same-Spin Energy      =      -0.1010927101895061 [Eh]
	 SCS Opposite-Spin Energy  =      -1.3115034518616007 [Eh]
	 SCS Correlation Energy    =      -1.4125961620511067 [Eh]
	 SCS Total Energy          =    -291.1152299606807787 [Eh]
	-----------------------------------------------------------

  Dipole Moment: [D]
     X:     0.7235      Y:    -0.4655      Z:    -0.7005     Total:     1.1095

*** Psi4 exiting successfully. Buy a developer a beer!
