                               Psi4 1.3.2 release

  ==> Input File <==

--------------------------------------------------------------------------
#psi4
#
memory 32 gb

molecule  {
1 1
  N        0.3002437    -0.1607988    -0.3437998
  C       -0.2734970     1.1052870     0.1974480
  C       -0.8318510    -1.2416080    -0.1373660
  C       -1.7487720     1.0080340    -0.1478690
  C       -2.0899640    -0.4391570     0.2222400
  C        1.6014160    -0.6227950     0.2602130
  C        2.7021640     0.3718760    -0.0544870
  H        0.4198120    -0.0821770    -1.3354460
  H        0.2647170     1.9344670    -0.2636010
  H       -0.1049550     1.1121840     1.2781340
  H       -0.5119850    -1.9240980     0.6516280
  H       -0.9170180    -1.8004520    -1.0710850
  H       -1.9040400     1.1951860    -1.2159660
  H       -2.3418250     1.7391150     0.4059550
  H       -2.2892440    -0.5166410     1.2941000
  H       -2.9682270    -0.8151510    -0.3061210
  H        1.4364190    -0.7316030     1.3351050
  H        1.8217380    -1.6082590    -0.1583240
  H        2.8177600     0.5164630    -1.1327800
  H        2.5337300     1.3397110     0.4209800
  H        3.6474560    -0.0228690     0.3252770
units angstrom
no_reorient  #important for SAPT in psi4, default
symmetry c1  #important for SAPT in psi4, default
}

set PROPERTIES_ORIGIN ["COM"]
properties('MP2/aug-cc-pvtz', properties = ['dipole'])
--------------------------------------------------------------------------

    Molecular point group: c1
  Charge       = 1
  Multiplicity = 1
  Basis Set: AUG-CC-PVTZ
    Blend: AUG-CC-PVTZ
  Basis Set: (AUG-CC-PVTZ AUX)
    Blend: AUG-CC-PVTZ-JKFIT

    Orbital Energies [Eh]
    ---------------------

    Doubly Occupied:

       1A    -15.847184     2A    -11.454772     3A    -11.451268
       4A    -11.447610     5A    -11.393468     6A    -11.392034
       7A    -11.379730     8A     -1.489738     9A     -1.259517
      10A     -1.179261    11A     -1.177977    12A     -1.038991
      13A     -1.029853    14A     -0.980380    15A     -0.899654
      16A     -0.853971    17A     -0.827080    18A     -0.785711
      19A     -0.777765    20A     -0.757142    21A     -0.732140
      22A     -0.695492    23A     -0.688238    24A     -0.675657
      25A     -0.671321    26A     -0.663023    27A     -0.656477
      28A     -0.643580

  @DF-RHF Final Energy:  -289.70415259229742

   => Energetics <=

    Nuclear Repulsion Energy =            339.8486110772718121
    One-Electron Energy =               -1053.4074538996924275
    Two-Electron Energy =                 423.8546902301231967
    Total Energy =                       -289.7041525922974188
  Basis Set: (AUG-CC-PVTZ AUX)
    Blend: AUG-CC-PVTZ-RI
    Molecular point group: c1

    Geometry (in Angstrom), charge = 1, multiplicity = 1:

       Center              X                  Y                   Z               Mass
    ------------   -----------------  -----------------  -----------------  -----------------
         N            0.315850859954    -0.163460509707    -0.338780782026    14.003074004430
         C           -0.257889840046     1.102625290293     0.202467017974    12.000000000000
         C           -0.816243840046    -1.244269709707    -0.132346982026    12.000000000000
         C           -1.733164840046     1.005372290293    -0.142849982026    12.000000000000
         C           -2.074356840046    -0.441818709707     0.227259017974    12.000000000000
         C            1.617023159954    -0.625456709707     0.265232017974    12.000000000000
         C            2.717771159954     0.369214290293    -0.049467982026    12.000000000000
         H            0.435419159954    -0.084838709707    -1.330426982026     1.007825032230
         H            0.280324159954     1.931805290293    -0.258581982026     1.007825032230
         H           -0.089347840046     1.109522290293     1.283153017974     1.007825032230
         H           -0.496377840046    -1.926759709707     0.656647017974     1.007825032230
         H           -0.901410840046    -1.803113709707    -1.066065982026     1.007825032230
         H           -1.888432840046     1.192524290293    -1.210946982026     1.007825032230
         H           -2.326217840046     1.736453290293     0.410974017974     1.007825032230
         H           -2.273636840046    -0.519302709707     1.299119017974     1.007825032230
         H           -2.952619840046    -0.817812709707    -0.301101982026     1.007825032230
         H            1.452026159954    -0.734264709707     1.340124017974     1.007825032230
         H            1.837345159954    -1.610920709707    -0.153304982026     1.007825032230
         H            2.833367159954     0.513801290293    -1.127760982026     1.007825032230
         H            2.549337159954     1.337049290293     0.425999017974     1.007825032230
         H            3.663063159954    -0.025530709707     0.330296017974     1.007825032230

  Basis Set: AUG-CC-PVTZ
    Blend: AUG-CC-PVTZ
  Basis Set: (AUG-CC-PVTZ AUX)
    Blend: AUG-CC-PVTZ-JKFIT
	 Reference Energy          =    -289.7041525922974188 [Eh]
	 Singles Energy            =      -0.0000000000000000 [Eh]
	 Same-Spin Energy          =      -0.3030592989913554 [Eh]
	 Opposite-Spin Energy      =      -1.0925886327727019 [Eh]
	 Correlation Energy        =      -1.3956479317640573 [Eh]
	 Total Energy              =    -291.0998005240614930 [Eh]

	 ================> DF-SCS-MP2 Energies <==================
	-----------------------------------------------------------
	 SCS Same-Spin Scale       =       0.3333333333333333 [-]
	 SCS Opposite-Spin Scale   =       1.2000000000000000 [-]
	 SCS Same-Spin Energy      =      -0.1010197663304518 [Eh]
	 SCS Opposite-Spin Energy  =      -1.3111063593272423 [Eh]
	 SCS Correlation Energy    =      -1.4121261256576940 [Eh]
	 SCS Total Energy          =    -291.1162787179551401 [Eh]
	-----------------------------------------------------------

  Dipole Moment: [D]
     X:     0.6567      Y:    -0.5639      Z:    -0.6773     Total:     1.0991

*** Psi4 exiting successfully. Buy a developer a beer!
