                               Psi4 1.3.2 release

  ==> Input File <==

--------------------------------------------------------------------------
#psi4
#
memory 32 gb

molecule  {
1 1
  N        0.2883994    -0.1821683    -0.3340569
  C       -0.2734970     1.1052870     0.1974480
  C       -0.8318510    -1.2416080    -0.1373660
  C       -1.7487720     1.0080340    -0.1478690
  C       -2.0899640    -0.4391570     0.2222400
  C        1.6014160    -0.6227950     0.2602130
  C        2.7021640     0.3718760    -0.0544870
  H        0.4198120    -0.0821770    -1.3354460
  H        0.2647170     1.9344670    -0.2636010
  H       -0.1049550     1.1121840     1.2781340
  H       -0.5119850    -1.9240980     0.6516280
  H       -0.9170180    -1.8004520    -1.0710850
  H       -1.9040400     1.1951860    -1.2159660
  H       -2.3418250     1.7391150     0.4059550
  H       -2.2892440    -0.5166410     1.2941000
  H       -2.9682270    -0.8151510    -0.3061210
  H        1.4364190    -0.7316030     1.3351050
  H        1.8217380    -1.6082590    -0.1583240
  H        2.8177600     0.5164630    -1.1327800
  H        2.5337300     1.3397110     0.4209800
  H        3.6474560    -0.0228690     0.3252770
units angstrom
no_reorient  #important for SAPT in psi4, default
symmetry c1  #important for SAPT in psi4, default
}

set PROPERTIES_ORIGIN ["COM"]
properties('MP2/aug-cc-pvtz', properties = ['dipole'])
--------------------------------------------------------------------------

    Molecular point group: c1
  Charge       = 1
  Multiplicity = 1
  Basis Set: AUG-CC-PVTZ
    Blend: AUG-CC-PVTZ
  Basis Set: (AUG-CC-PVTZ AUX)
    Blend: AUG-CC-PVTZ-JKFIT

    Orbital Energies [Eh]
    ---------------------

    Doubly Occupied:

       1A    -15.848625     2A    -11.452618     3A    -11.451357
       4A    -11.448620     5A    -11.393336     6A    -11.391664
       7A    -11.380667     8A     -1.490226     9A     -1.259364
      10A     -1.180604    11A     -1.177336    12A     -1.039472
      13A     -1.027390    14A     -0.980755    15A     -0.901122
      16A     -0.853834    17A     -0.825950    18A     -0.785160
      19A     -0.776257    20A     -0.759433    21A     -0.730888
      22A     -0.694343    23A     -0.688710    24A     -0.678135
      25A     -0.671418    26A     -0.663482    27A     -0.656873
      28A     -0.643310

  @DF-RHF Final Energy:  -289.70584149731133

   => Energetics <=

    Nuclear Repulsion Energy =            339.9420641102073546
    One-Electron Energy =               -1053.5939109621315311
    Two-Electron Energy =                 423.9460053546127938
    Total Energy =                       -289.7058414973113258
  Basis Set: (AUG-CC-PVTZ AUX)
    Blend: AUG-CC-PVTZ-RI
    Molecular point group: c1

    Geometry (in Angstrom), charge = 1, multiplicity = 1:

       Center              X                  Y                   Z               Mass
    ------------   -----------------  -----------------  -----------------  -----------------
         N            0.305663260199    -0.181840989176    -0.330400652710    14.003074004430
         C           -0.256233139801     1.105614310824     0.201104247290    12.000000000000
         C           -0.814587139801    -1.241280689176    -0.133709752710    12.000000000000
         C           -1.731508139801     1.008361310824    -0.144212752710    12.000000000000
         C           -2.072700139801    -0.438829689176     0.225896247290    12.000000000000
         C            1.618679860199    -0.622467689176     0.263869247290    12.000000000000
         C            2.719427860199     0.372203310824    -0.050830752710    12.000000000000
         H            0.437075860199    -0.081849689176    -1.331789752710     1.007825032230
         H            0.281980860199     1.934794310824    -0.259944752710     1.007825032230
         H           -0.087691139801     1.112511310824     1.281790247290     1.007825032230
         H           -0.494721139801    -1.923770689176     0.655284247290     1.007825032230
         H           -0.899754139801    -1.800124689176    -1.067428752710     1.007825032230
         H           -1.886776139801     1.195513310824    -1.212309752710     1.007825032230
         H           -2.324561139801     1.739442310824     0.409611247290     1.007825032230
         H           -2.271980139801    -0.516313689176     1.297756247290     1.007825032230
         H           -2.950963139801    -0.814823689176    -0.302464752710     1.007825032230
         H            1.453682860199    -0.731275689176     1.338761247290     1.007825032230
         H            1.839001860199    -1.607931689176    -0.154667752710     1.007825032230
         H            2.835023860199     0.516790310824    -1.129123752710     1.007825032230
         H            2.550993860199     1.340038310824     0.424636247290     1.007825032230
         H            3.664719860199    -0.022541689176     0.328933247290     1.007825032230

  Basis Set: AUG-CC-PVTZ
    Blend: AUG-CC-PVTZ
  Basis Set: (AUG-CC-PVTZ AUX)
    Blend: AUG-CC-PVTZ-JKFIT
	 Reference Energy          =    -289.7058414973113258 [Eh]
	 Singles Energy            =      -0.0000000000000000 [Eh]
	 Same-Spin Energy          =      -0.3031191006477625 [Eh]
	 Opposite-Spin Energy      =      -1.0926167076803490 [Eh]
	 Correlation Energy        =      -1.3957358083281115 [Eh]
	 Total Energy              =    -291.1015773056394096 [Eh]

	 ================> DF-SCS-MP2 Energies <==================
	-----------------------------------------------------------
	 SCS Same-Spin Scale       =       0.3333333333333333 [-]
	 SCS Opposite-Spin Scale   =       1.2000000000000000 [-]
	 SCS Same-Spin Energy      =      -0.1010397002159208 [Eh]
	 SCS Opposite-Spin Energy  =      -1.3111400492164187 [Eh]
	 SCS Correlation Energy    =      -1.4121797494323396 [Eh]
	 SCS Total Energy          =    -291.1180212467436377 [Eh]
	-----------------------------------------------------------

  Dipole Moment: [D]
     X:     0.6934      Y:    -0.5201      Z:    -0.6910     Total:     1.1085

*** Psi4 exiting successfully. Buy a developer a beer!
