                               Psi4 1.3.2 release

  ==> Input File <==

--------------------------------------------------------------------------
#psi4
#
memory 32 gb

molecule  {
1 1
  N        0.2769550    -0.2036720    -0.3241330
  C       -0.2734970     1.1052870     0.1974480
  C       -0.8318510    -1.2416080    -0.1373660
  C       -1.7487720     1.0080340    -0.1478690
  C       -2.0899640    -0.4391570     0.2222400
  C        1.6593088    -0.6144193     0.1137093
  C        2.7021640     0.3718760    -0.0544870
  H        0.4198120    -0.0821770    -1.3354460
  H        0.2647170     1.9344670    -0.2636010
  H       -0.1049550     1.1121840     1.2781340
  H       -0.5119850    -1.9240980     0.6516280
  H       -0.9170180    -1.8004520    -1.0710850
  H       -1.9040400     1.1951860    -1.2159660
  H       -2.3418250     1.7391150     0.4059550
  H       -2.2892440    -0.5166410     1.2941000
  H       -2.9682270    -0.8151510    -0.3061210
  H        1.4364190    -0.7316030     1.3351050
  H        1.8217380    -1.6082590    -0.1583240
  H        2.8177600     0.5164630    -1.1327800
  H        2.5337300     1.3397110     0.4209800
  H        3.6474560    -0.0228690     0.3252770
units angstrom
no_reorient  #important for SAPT in psi4, default
symmetry c1  #important for SAPT in psi4, default
}

set PROPERTIES_ORIGIN ["COM"]
properties('MP2/aug-cc-pvtz', properties = ['dipole'])
--------------------------------------------------------------------------

    Molecular point group: c1
  Charge       = 1
  Multiplicity = 1
  Basis Set: AUG-CC-PVTZ
    Blend: AUG-CC-PVTZ
  Basis Set: (AUG-CC-PVTZ AUX)
    Blend: AUG-CC-PVTZ-JKFIT

    Orbital Energies [Eh]
    ---------------------

    Doubly Occupied:

       1A    -15.851077     2A    -11.458160     3A    -11.451847
       4A    -11.450754     5A    -11.393988     6A    -11.392212
       7A    -11.380686     8A     -1.491965     9A     -1.265162
      10A     -1.192620    11A     -1.178743    12A     -1.044003
      13A     -1.015487    14A     -0.981903    15A     -0.904413
      16A     -0.859800    17A     -0.824375    18A     -0.784885
      19A     -0.773741    20A     -0.761620    21A     -0.734657
      22A     -0.709057    23A     -0.692662    24A     -0.680181
      25A     -0.669702    26A     -0.659221    27A     -0.643845
      28A     -0.630132

  @DF-RHF Final Energy:  -289.67950113179245

   => Energetics <=

    Nuclear Repulsion Energy =            340.1734237266430796
    One-Electron Energy =               -1053.9520546022431517
    Two-Electron Energy =                 424.0991297438076799
    Total Energy =                       -289.6795011317924491
  Basis Set: (AUG-CC-PVTZ AUX)
    Blend: AUG-CC-PVTZ-RI
    Molecular point group: c1

    Geometry (in Angstrom), charge = 1, multiplicity = 1:

       Center              X                  Y                   Z               Mass
    ------------   -----------------  -----------------  -----------------  -----------------
         N            0.288880304519    -0.201340850963    -0.304304174050    14.003074004430
         C           -0.261571695481     1.107618149037     0.217276825950    12.000000000000
         C           -0.819925695481    -1.239276850963    -0.117537174050    12.000000000000
         C           -1.736846695481     1.010365149037    -0.128040174050    12.000000000000
         C           -2.078038695481    -0.436825850963     0.242068825950    12.000000000000
         C            1.671234104519    -0.612088150963     0.133538125950    12.000000000000
         C            2.714089304519     0.374207149037    -0.034658174050    12.000000000000
         H            0.431737304519    -0.079845850963    -1.315617174050     1.007825032230
         H            0.276642304519     1.936798149037    -0.243772174050     1.007825032230
         H           -0.093029695481     1.114515149037     1.297962825950     1.007825032230
         H           -0.500059695481    -1.921766850963     0.671456825950     1.007825032230
         H           -0.905092695481    -1.798120850963    -1.051256174050     1.007825032230
         H           -1.892114695481     1.197517149037    -1.196137174050     1.007825032230
         H           -2.329899695481     1.741446149037     0.425783825950     1.007825032230
         H           -2.277318695481    -0.514309850963     1.313928825950     1.007825032230
         H           -2.956301695481    -0.812819850963    -0.286292174050     1.007825032230
         H            1.448344304519    -0.729271850963     1.354933825950     1.007825032230
         H            1.833663304519    -1.605927850963    -0.138495174050     1.007825032230
         H            2.829685304519     0.518794149037    -1.112951174050     1.007825032230
         H            2.545655304519     1.342042149037     0.440808825950     1.007825032230
         H            3.659381304519    -0.020537850963     0.345105825950     1.007825032230

  Basis Set: AUG-CC-PVTZ
    Blend: AUG-CC-PVTZ
  Basis Set: (AUG-CC-PVTZ AUX)
    Blend: AUG-CC-PVTZ-JKFIT
	 Reference Energy          =    -289.6795011317924491 [Eh]
	 Singles Energy            =      -0.0000000000000000 [Eh]
	 Same-Spin Energy          =      -0.3045386374745060 [Eh]
	 Opposite-Spin Energy      =      -1.0947602026912144 [Eh]
	 Correlation Energy        =      -1.3992988401657205 [Eh]
	 Total Energy              =    -291.0787999719581762 [Eh]

	 ================> DF-SCS-MP2 Energies <==================
	-----------------------------------------------------------
	 SCS Same-Spin Scale       =       0.3333333333333333 [-]
	 SCS Opposite-Spin Scale   =       1.2000000000000000 [-]
	 SCS Same-Spin Energy      =      -0.1015128791581687 [Eh]
	 SCS Opposite-Spin Energy  =      -1.3137122432294572 [Eh]
	 SCS Correlation Energy    =      -1.4152251223876260 [Eh]
	 SCS Total Energy          =    -291.0947262541801024 [Eh]
	-----------------------------------------------------------

  Dipole Moment: [D]
     X:     0.7452      Y:    -0.4345      Z:    -0.7538     Total:     1.1456

*** Psi4 exiting successfully. Buy a developer a beer!
