                               Psi4 1.3.2 release

  ==> Input File <==

--------------------------------------------------------------------------
#psi4
#
memory 32 gb

molecule  {
1 1
  N        0.2527387    -0.2103514    -0.3322589
  C       -0.2734970     1.1052870     0.1974480
  C       -0.8318510    -1.2416080    -0.1373660
  C       -1.7487720     1.0080340    -0.1478690
  C       -2.0899640    -0.4391570     0.2222400
  C        1.6014160    -0.6227950     0.2602130
  C        2.7021640     0.3718760    -0.0544870
  H        0.4198120    -0.0821770    -1.3354460
  H        0.2647170     1.9344670    -0.2636010
  H       -0.1049550     1.1121840     1.2781340
  H       -0.5119850    -1.9240980     0.6516280
  H       -0.9170180    -1.8004520    -1.0710850
  H       -1.9040400     1.1951860    -1.2159660
  H       -2.3418250     1.7391150     0.4059550
  H       -2.2892440    -0.5166410     1.2941000
  H       -2.9682270    -0.8151510    -0.3061210
  H        1.4364190    -0.7316030     1.3351050
  H        1.8217380    -1.6082590    -0.1583240
  H        2.8177600     0.5164630    -1.1327800
  H        2.5337300     1.3397110     0.4209800
  H        3.6474560    -0.0228690     0.3252770
units angstrom
no_reorient  #important for SAPT in psi4, default
symmetry c1  #important for SAPT in psi4, default
}

set PROPERTIES_ORIGIN ["COM"]
properties('MP2/aug-cc-pvtz', properties = ['dipole'])
--------------------------------------------------------------------------

    Molecular point group: c1
  Charge       = 1
  Multiplicity = 1
  Basis Set: AUG-CC-PVTZ
    Blend: AUG-CC-PVTZ
  Basis Set: (AUG-CC-PVTZ AUX)
    Blend: AUG-CC-PVTZ-JKFIT

    Orbital Energies [Eh]
    ---------------------

    Doubly Occupied:

       1A    -15.849591     2A    -11.453760     3A    -11.449546
       4A    -11.448247     5A    -11.392303     6A    -11.390337
       7A    -11.382763     8A     -1.491416     9A     -1.257113
      10A     -1.185473    11A     -1.175658    12A     -1.038351
      13A     -1.025126    14A     -0.980980    15A     -0.904599
      16A     -0.853071    17A     -0.823404    18A     -0.785978
      19A     -0.774236    20A     -0.762054    21A     -0.728546
      22A     -0.696001    23A     -0.690561    24A     -0.678240
      25A     -0.670530    26A     -0.663535    27A     -0.656928
      28A     -0.642262

  @DF-RHF Final Energy:  -289.70556388552319

   => Energetics <=

    Nuclear Repulsion Energy =            340.0760567528828915
    One-Electron Energy =               -1053.8620237248458125
    Two-Electron Energy =                 424.0804030864397305
    Total Energy =                       -289.7055638855231905
  Basis Set: (AUG-CC-PVTZ AUX)
    Blend: AUG-CC-PVTZ-RI
    Molecular point group: c1

    Geometry (in Angstrom), charge = 1, multiplicity = 1:

       Center              X                  Y                   Z               Mass
    ------------   -----------------  -----------------  -----------------  -----------------
         N            0.274990536729    -0.206082028550    -0.328854144739    14.003074004430
         C           -0.251245163271     1.109556371450     0.200852755261    12.000000000000
         C           -0.809599163271    -1.237338628550    -0.133961244739    12.000000000000
         C           -1.726520163271     1.012303371450    -0.144464244739    12.000000000000
         C           -2.067712163271    -0.434887628550     0.225644755261    12.000000000000
         C            1.623667836729    -0.618525628550     0.263617755261    12.000000000000
         C            2.724415836729     0.376145371450    -0.051082244739    12.000000000000
         H            0.442063836729    -0.077907628550    -1.332041244739     1.007825032230
         H            0.286968836729     1.938736371450    -0.260196244739     1.007825032230
         H           -0.082703163271     1.116453371450     1.281538755261     1.007825032230
         H           -0.489733163271    -1.919828628550     0.655032755261     1.007825032230
         H           -0.894766163271    -1.796182628550    -1.067680244739     1.007825032230
         H           -1.881788163271     1.199455371450    -1.212561244739     1.007825032230
         H           -2.319573163271     1.743384371450     0.409359755261     1.007825032230
         H           -2.266992163271    -0.512371628550     1.297504755261     1.007825032230
         H           -2.945975163271    -0.810881628550    -0.302716244739     1.007825032230
         H            1.458670836729    -0.727333628550     1.338509755261     1.007825032230
         H            1.843989836729    -1.603989628550    -0.154919244739     1.007825032230
         H            2.840011836729     0.520732371450    -1.129375244739     1.007825032230
         H            2.555981836729     1.343980371450     0.424384755261     1.007825032230
         H            3.669707836729    -0.018599628550     0.328681755261     1.007825032230

  Basis Set: AUG-CC-PVTZ
    Blend: AUG-CC-PVTZ
  Basis Set: (AUG-CC-PVTZ AUX)
    Blend: AUG-CC-PVTZ-JKFIT
	 Reference Energy          =    -289.7055638855231905 [Eh]
	 Singles Energy            =      -0.0000000000000000 [Eh]
	 Same-Spin Energy          =      -0.3032412317355748 [Eh]
	 Opposite-Spin Energy      =      -1.0927664683010567 [Eh]
	 Correlation Energy        =      -1.3960077000366315 [Eh]
	 Total Energy              =    -291.1015715855598387 [Eh]

	 ================> DF-SCS-MP2 Energies <==================
	-----------------------------------------------------------
	 SCS Same-Spin Scale       =       0.3333333333333333 [-]
	 SCS Opposite-Spin Scale   =       1.2000000000000000 [-]
	 SCS Same-Spin Energy      =      -0.1010804105785249 [Eh]
	 SCS Opposite-Spin Energy  =      -1.3113197619612680 [Eh]
	 SCS Correlation Energy    =      -1.4124001725397930 [Eh]
	 SCS Total Energy          =    -291.1179640580629666 [Eh]
	-----------------------------------------------------------

  Dipole Moment: [D]
     X:     0.8096      Y:    -0.4610      Z:    -0.6950     Total:     1.1623

*** Psi4 exiting successfully. Buy a developer a beer!
