                               Psi4 1.3.2 release

  ==> Input File <==

--------------------------------------------------------------------------
#psi4
#
memory 32 gb

molecule  {
1 1
  N        0.2769550    -0.2036720    -0.3241330
  C       -0.2734970     1.1052870     0.1974480
  C       -0.8318510    -1.2416080    -0.1373660
  C       -1.7487720     1.0080340    -0.1478690
  C       -2.0899640    -0.4391570     0.2222400
  C        1.4256520    -0.5671748     0.1826668
  C        2.7021640     0.3718760    -0.0544870
  H        0.4198120    -0.0821770    -1.3354460
  H        0.2647170     1.9344670    -0.2636010
  H       -0.1049550     1.1121840     1.2781340
  H       -0.5119850    -1.9240980     0.6516280
  H       -0.9170180    -1.8004520    -1.0710850
  H       -1.9040400     1.1951860    -1.2159660
  H       -2.3418250     1.7391150     0.4059550
  H       -2.2892440    -0.5166410     1.2941000
  H       -2.9682270    -0.8151510    -0.3061210
  H        1.4364190    -0.7316030     1.3351050
  H        1.8217380    -1.6082590    -0.1583240
  H        2.8177600     0.5164630    -1.1327800
  H        2.5337300     1.3397110     0.4209800
  H        3.6474560    -0.0228690     0.3252770
units angstrom
no_reorient  #important for SAPT in psi4, default
symmetry c1  #important for SAPT in psi4, default
}

set PROPERTIES_ORIGIN ["COM"]
properties('MP2/aug-cc-pvtz', properties = ['dipole'])
--------------------------------------------------------------------------

    Molecular point group: c1
  Charge       = 1
  Multiplicity = 1
  Basis Set: AUG-CC-PVTZ
    Blend: AUG-CC-PVTZ
  Basis Set: (AUG-CC-PVTZ AUX)
    Blend: AUG-CC-PVTZ-JKFIT

    Orbital Energies [Eh]
    ---------------------

    Doubly Occupied:

       1A    -15.858766     2A    -11.456687     3A    -11.455986
       4A    -11.447424     5A    -11.397972     6A    -11.395799
       7A    -11.382676     8A     -1.543957     9A     -1.275640
      10A     -1.190224    11A     -1.156533    12A     -1.057621
      13A     -1.035691    14A     -0.991352    15A     -0.915792
      16A     -0.869337    17A     -0.834536    18A     -0.791223
      19A     -0.773060    20A     -0.765061    21A     -0.727557
      22A     -0.701493    23A     -0.698372    24A     -0.679245
      25A     -0.663873    26A     -0.649436    27A     -0.640049
      28A     -0.625673

  @DF-RHF Final Energy:  -289.66391780880838

   => Energetics <=

    Nuclear Repulsion Energy =            343.1621022223300201
    One-Electron Energy =               -1059.6899723733347400
    Two-Electron Energy =                 426.8639523421962849
    Total Energy =                       -289.6639178088083781
  Basis Set: (AUG-CC-PVTZ AUX)
    Blend: AUG-CC-PVTZ-RI
    Molecular point group: c1

    Geometry (in Angstrom), charge = 1, multiplicity = 1:

       Center              X                  Y                   Z               Mass
    ------------   -----------------  -----------------  -----------------  -----------------
         N            0.316887577481    -0.207003813083    -0.312569764973    14.003074004430
         C           -0.233564422519     1.101955186917     0.209011235027    12.000000000000
         C           -0.791918422519    -1.244939813083    -0.125802764973    12.000000000000
         C           -1.708839422519     1.004702186917    -0.136305764973    12.000000000000
         C           -2.050031422519    -0.442488813083     0.233803235027    12.000000000000
         C            1.465584577481    -0.570506613083     0.194230035027    12.000000000000
         C            2.742096577481     0.368544186917    -0.042923764973    12.000000000000
         H            0.459744577481    -0.085508813083    -1.323882764973     1.007825032230
         H            0.304649577481     1.931135186917    -0.252037764973     1.007825032230
         H           -0.065022422519     1.108852186917     1.289697235027     1.007825032230
         H           -0.472052422519    -1.927429813083     0.663191235027     1.007825032230
         H           -0.877085422519    -1.803783813083    -1.059521764973     1.007825032230
         H           -1.864107422519     1.191854186917    -1.204402764973     1.007825032230
         H           -2.301892422519     1.735783186917     0.417518235027     1.007825032230
         H           -2.249311422519    -0.519972813083     1.305663235027     1.007825032230
         H           -2.928294422519    -0.818482813083    -0.294557764973     1.007825032230
         H            1.476351577481    -0.734934813083     1.346668235027     1.007825032230
         H            1.861670577481    -1.611590813083    -0.146760764973     1.007825032230
         H            2.857692577481     0.513131186917    -1.121216764973     1.007825032230
         H            2.573662577481     1.336379186917     0.432543235027     1.007825032230
         H            3.687388577481    -0.026200813083     0.336840235027     1.007825032230

  Basis Set: AUG-CC-PVTZ
    Blend: AUG-CC-PVTZ
  Basis Set: (AUG-CC-PVTZ AUX)
    Blend: AUG-CC-PVTZ-JKFIT
	 Reference Energy          =    -289.6639178088083781 [Eh]
	 Singles Energy            =      -0.0000000000000000 [Eh]
	 Same-Spin Energy          =      -0.3052148778631956 [Eh]
	 Opposite-Spin Energy      =      -1.0945166456183508 [Eh]
	 Correlation Energy        =      -1.3997315234815464 [Eh]
	 Total Energy              =    -291.0636493322899128 [Eh]

	 ================> DF-SCS-MP2 Energies <==================
	-----------------------------------------------------------
	 SCS Same-Spin Scale       =       0.3333333333333333 [-]
	 SCS Opposite-Spin Scale   =       1.2000000000000000 [-]
	 SCS Same-Spin Energy      =      -0.1017382926210652 [Eh]
	 SCS Opposite-Spin Energy  =      -1.3134199747420210 [Eh]
	 SCS Correlation Energy    =      -1.4151582673630863 [Eh]
	 SCS Total Energy          =    -291.0790760761714751 [Eh]
	-----------------------------------------------------------

  Dipole Moment: [D]
     X:     0.3615      Y:    -0.4180      Z:    -0.7567     Total:     0.9370

*** Psi4 exiting successfully. Buy a developer a beer!
