                               Psi4 1.3.2 release

  ==> Input File <==

--------------------------------------------------------------------------
#psi4
#
memory 32 gb

molecule  {
1 1
  N        0.2769550    -0.2036720    -0.3241330
  C       -0.2506643     1.1170548     0.1913439
  C       -0.8318510    -1.2416080    -0.1373660
  C       -1.7487720     1.0080340    -0.1478690
  C       -2.0899640    -0.4391570     0.2222400
  C        1.6014160    -0.6227950     0.2602130
  C        2.7021640     0.3718760    -0.0544870
  H        0.4198120    -0.0821770    -1.3354460
  H        0.2647170     1.9344670    -0.2636010
  H       -0.1049550     1.1121840     1.2781340
  H       -0.5119850    -1.9240980     0.6516280
  H       -0.9170180    -1.8004520    -1.0710850
  H       -1.9040400     1.1951860    -1.2159660
  H       -2.3418250     1.7391150     0.4059550
  H       -2.2892440    -0.5166410     1.2941000
  H       -2.9682270    -0.8151510    -0.3061210
  H        1.4364190    -0.7316030     1.3351050
  H        1.8217380    -1.6082590    -0.1583240
  H        2.8177600     0.5164630    -1.1327800
  H        2.5337300     1.3397110     0.4209800
  H        3.6474560    -0.0228690     0.3252770
units angstrom
no_reorient  #important for SAPT in psi4, default
symmetry c1  #important for SAPT in psi4, default
}

set PROPERTIES_ORIGIN ["COM"]
properties('MP2/aug-cc-pvtz', properties = ['dipole'])
--------------------------------------------------------------------------

    Molecular point group: c1
  Charge       = 1
  Multiplicity = 1
  Basis Set: AUG-CC-PVTZ
    Blend: AUG-CC-PVTZ
  Basis Set: (AUG-CC-PVTZ AUX)
    Blend: AUG-CC-PVTZ-JKFIT

    Orbital Energies [Eh]
    ---------------------

    Doubly Occupied:

       1A    -15.850202     2A    -11.451200     3A    -11.450805
       4A    -11.448961     5A    -11.394190     6A    -11.391377
       7A    -11.381641     8A     -1.490510     9A     -1.256774
      10A     -1.182116    11A     -1.176197    12A     -1.040481
      13A     -1.024889    14A     -0.980229    15A     -0.905084
      16A     -0.852733    17A     -0.823700    18A     -0.784549
      19A     -0.774355    20A     -0.764311    21A     -0.730098
      22A     -0.694816    23A     -0.689338    24A     -0.677594
      25A     -0.670875    26A     -0.662387    27A     -0.658029
      28A     -0.642343

  @DF-RHF Final Energy:  -289.70558492777536

   => Energetics <=

    Nuclear Repulsion Energy =            339.8209217175231629
    One-Electron Energy =               -1053.3534476639038076
    Two-Electron Energy =                 423.8269410186053392
    Total Energy =                       -289.7055849277753623
  Basis Set: (AUG-CC-PVTZ AUX)
    Blend: AUG-CC-PVTZ-RI
    Molecular point group: c1

    Geometry (in Angstrom), charge = 1, multiplicity = 1:

       Center              X                  Y                   Z               Mass
    ------------   -----------------  -----------------  -----------------  -----------------
         N            0.293082783500    -0.201747445038    -0.321133172482    14.003074004430
         C           -0.234536516500     1.118979354962     0.194343727518    12.000000000000
         C           -0.815723216500    -1.239683445038    -0.134366172482    12.000000000000
         C           -1.732644216500     1.009958554962    -0.144869172482    12.000000000000
         C           -2.073836216500    -0.437232445038     0.225239827518    12.000000000000
         C            1.617543783500    -0.620870445038     0.263212827518    12.000000000000
         C            2.718291783500     0.373800554962    -0.051487172482    12.000000000000
         H            0.435939783500    -0.080252445038    -1.332446172482     1.007825032230
         H            0.280844783500     1.936391554962    -0.260601172482     1.007825032230
         H           -0.088827216500     1.114108554962     1.281133827518     1.007825032230
         H           -0.495857216500    -1.922173445038     0.654627827518     1.007825032230
         H           -0.900890216500    -1.798527445038    -1.068085172482     1.007825032230
         H           -1.887912216500     1.197110554962    -1.212966172482     1.007825032230
         H           -2.325697216500     1.741039554962     0.408954827518     1.007825032230
         H           -2.273116216500    -0.514716445038     1.297099827518     1.007825032230
         H           -2.952099216500    -0.813226445038    -0.303121172482     1.007825032230
         H            1.452546783500    -0.729678445038     1.338104827518     1.007825032230
         H            1.837865783500    -1.606334445038    -0.155324172482     1.007825032230
         H            2.833887783500     0.518387554962    -1.129780172482     1.007825032230
         H            2.549857783500     1.341635554962     0.423979827518     1.007825032230
         H            3.663583783500    -0.020944445038     0.328276827518     1.007825032230

  Basis Set: AUG-CC-PVTZ
    Blend: AUG-CC-PVTZ
  Basis Set: (AUG-CC-PVTZ AUX)
    Blend: AUG-CC-PVTZ-JKFIT
	 Reference Energy          =    -289.7055849277753623 [Eh]
	 Singles Energy            =      -0.0000000000000000 [Eh]
	 Same-Spin Energy          =      -0.3031003737888852 [Eh]
	 Opposite-Spin Energy      =      -1.0927038640355189 [Eh]
	 Correlation Energy        =      -1.3958042378244042 [Eh]
	 Total Energy              =    -291.1013891655997554 [Eh]

	 ================> DF-SCS-MP2 Energies <==================
	-----------------------------------------------------------
	 SCS Same-Spin Scale       =       0.3333333333333333 [-]
	 SCS Opposite-Spin Scale   =       1.2000000000000000 [-]
	 SCS Same-Spin Energy      =      -0.1010334579296284 [Eh]
	 SCS Opposite-Spin Energy  =      -1.3112446368426227 [Eh]
	 SCS Correlation Energy    =      -1.4122780947722511 [Eh]
	 SCS Total Energy          =    -291.1178630225476240 [Eh]
	-----------------------------------------------------------

  Dipole Moment: [D]
     X:     0.7278      Y:    -0.4836      Z:    -0.7089     Total:     1.1252

*** Psi4 exiting successfully. Buy a developer a beer!
