                               Psi4 1.3.2 release

  ==> Input File <==

--------------------------------------------------------------------------
#psi4
#
memory 32 gb

molecule  {
1 1
  N        0.2283621    -0.2166300    -0.3402235
  C       -0.2734970     1.1052870     0.1974480
  C       -0.8318510    -1.2416080    -0.1373660
  C       -1.7487720     1.0080340    -0.1478690
  C       -2.0899640    -0.4391570     0.2222400
  C        1.6014160    -0.6227950     0.2602130
  C        2.7021640     0.3718760    -0.0544870
  H        0.4198120    -0.0821770    -1.3354460
  H        0.2647170     1.9344670    -0.2636010
  H       -0.1049550     1.1121840     1.2781340
  H       -0.5119850    -1.9240980     0.6516280
  H       -0.9170180    -1.8004520    -1.0710850
  H       -1.9040400     1.1951860    -1.2159660
  H       -2.3418250     1.7391150     0.4059550
  H       -2.2892440    -0.5166410     1.2941000
  H       -2.9682270    -0.8151510    -0.3061210
  H        1.4364190    -0.7316030     1.3351050
  H        1.8217380    -1.6082590    -0.1583240
  H        2.8177600     0.5164630    -1.1327800
  H        2.5337300     1.3397110     0.4209800
  H        3.6474560    -0.0228690     0.3252770
units angstrom
no_reorient  #important for SAPT in psi4, default
symmetry c1  #important for SAPT in psi4, default
}

set PROPERTIES_ORIGIN ["COM"]
properties('MP2/aug-cc-pvtz', properties = ['dipole'])
--------------------------------------------------------------------------

    Molecular point group: c1
  Charge       = 1
  Multiplicity = 1
  Basis Set: AUG-CC-PVTZ
    Blend: AUG-CC-PVTZ
  Basis Set: (AUG-CC-PVTZ AUX)
    Blend: AUG-CC-PVTZ-JKFIT

    Orbital Energies [Eh]
    ---------------------

    Doubly Occupied:

       1A    -15.849100     2A    -11.456057     3A    -11.449394
       4A    -11.446041     5A    -11.391376     6A    -11.389337
       7A    -11.383930     8A     -1.492258     9A     -1.255029
      10A     -1.187872    11A     -1.175712    12A     -1.036608
      13A     -1.025422    14A     -0.980774    15A     -0.906689
      16A     -0.852539    17A     -0.821918    18A     -0.787442
      19A     -0.773859    20A     -0.762215    21A     -0.727925
      22A     -0.698710    23A     -0.690758    24A     -0.677178
      25A     -0.668791    26A     -0.663243    27A     -0.656594
      28A     -0.641489

  @DF-RHF Final Energy:  -289.70360224721327

   => Energetics <=

    Nuclear Repulsion Energy =            340.1285594297390844
    One-Electron Energy =               -1053.9678033843899811
    Two-Electron Energy =                 424.1356417074376282
    Total Energy =                       -289.7036022472132686
  Basis Set: (AUG-CC-PVTZ AUX)
    Blend: AUG-CC-PVTZ-RI
    Molecular point group: c1

    Geometry (in Angstrom), charge = 1, multiplicity = 1:

       Center              X                  Y                   Z               Mass
    ------------   -----------------  -----------------  -----------------  -----------------
         N            0.254023569986    -0.211482420623    -0.335704710582    14.003074004430
         C           -0.247835530014     1.110434579377     0.201966789418    12.000000000000
         C           -0.806189530014    -1.236460420623    -0.132847210582    12.000000000000
         C           -1.723110530014     1.013181579377    -0.143350210582    12.000000000000
         C           -2.064302530014    -0.434009420623     0.226758789418    12.000000000000
         C            1.627077469986    -0.617647420623     0.264731789418    12.000000000000
         C            2.727825469986     0.377023579377    -0.049968210582    12.000000000000
         H            0.445473469986    -0.077029420623    -1.330927210582     1.007825032230
         H            0.290378469986     1.939614579377    -0.259082210582     1.007825032230
         H           -0.079293530014     1.117331579377     1.282652789418     1.007825032230
         H           -0.486323530014    -1.918950420623     0.656146789418     1.007825032230
         H           -0.891356530014    -1.795304420623    -1.066566210582     1.007825032230
         H           -1.878378530014     1.200333579377    -1.211447210582     1.007825032230
         H           -2.316163530014     1.744262579377     0.410473789418     1.007825032230
         H           -2.263582530014    -0.511493420623     1.298618789418     1.007825032230
         H           -2.942565530014    -0.810003420623    -0.301602210582     1.007825032230
         H            1.462080469986    -0.726455420623     1.339623789418     1.007825032230
         H            1.847399469986    -1.603111420623    -0.153805210582     1.007825032230
         H            2.843421469986     0.521610579377    -1.128261210582     1.007825032230
         H            2.559391469986     1.344858579377     0.425498789418     1.007825032230
         H            3.673117469986    -0.017721420623     0.329795789418     1.007825032230

  Basis Set: AUG-CC-PVTZ
    Blend: AUG-CC-PVTZ
  Basis Set: (AUG-CC-PVTZ AUX)
    Blend: AUG-CC-PVTZ-JKFIT
	 Reference Energy          =    -289.7036022472132686 [Eh]
	 Singles Energy            =      -0.0000000000000000 [Eh]
	 Same-Spin Energy          =      -0.3033187552067654 [Eh]
	 Opposite-Spin Energy      =      -1.0928974642687523 [Eh]
	 Correlation Energy        =      -1.3962162194755177 [Eh]
	 Total Energy              =    -291.0998184666887596 [Eh]

	 ================> DF-SCS-MP2 Energies <==================
	-----------------------------------------------------------
	 SCS Same-Spin Scale       =       0.3333333333333333 [-]
	 SCS Opposite-Spin Scale   =       1.2000000000000000 [-]
	 SCS Same-Spin Energy      =      -0.1011062517355885 [Eh]
	 SCS Opposite-Spin Energy  =      -1.3114769571225027 [Eh]
	 SCS Correlation Energy    =      -1.4125832088580912 [Eh]
	 SCS Total Energy          =    -291.1161854560713778 [Eh]
	-----------------------------------------------------------

  Dipole Moment: [D]
     X:     0.8915      Y:    -0.4473      Z:    -0.6858     Total:     1.2105

*** Psi4 exiting successfully. Buy a developer a beer!
