                               Psi4 1.4a3.dev225

  ==> Input File <==

--------------------------------------------------------------------------
#psi4
#
memory 32 gb

molecule  {
1 1
  N        0.2769550    -0.2036720    -0.3241330
  C       -0.2734970     1.1052870     0.1974480
  C       -0.8318510    -1.2416080    -0.1373660
  C       -1.7487720     1.0080340    -0.1478690
  C       -2.0899640    -0.4391570     0.2222400
  C        1.6453570    -0.6367000     0.2795996
  C        2.7021640     0.3718760    -0.0544870
  H        0.4198120    -0.0821770    -1.3354460
  H        0.2647170     1.9344670    -0.2636010
  H       -0.1049550     1.1121840     1.2781340
  H       -0.5119850    -1.9240980     0.6516280
  H       -0.9170180    -1.8004520    -1.0710850
  H       -1.9040400     1.1951860    -1.2159660
  H       -2.3418250     1.7391150     0.4059550
  H       -2.2892440    -0.5166410     1.2941000
  H       -2.9682270    -0.8151510    -0.3061210
  H        1.4364190    -0.7316030     1.3351050
  H        1.8217380    -1.6082590    -0.1583240
  H        2.8177600     0.5164630    -1.1327800
  H        2.5337300     1.3397110     0.4209800
  H        3.6474560    -0.0228690     0.3252770
units angstrom
no_reorient  #important for SAPT in psi4, default
symmetry c1  #important for SAPT in psi4, default
}

set PROPERTIES_ORIGIN ["COM"]
properties('MP2/aug-cc-pvtz', properties = ['dipole'])
--------------------------------------------------------------------------

    Molecular point group: c1
  Charge       = 1
  Multiplicity = 1
  Basis Set: AUG-CC-PVTZ
    Blend: AUG-CC-PVTZ
  Basis Set: (AUG-CC-PVTZ AUX)
    Blend: AUG-CC-PVTZ-JKFIT

    Orbital Energies [Eh]
    ---------------------

    Doubly Occupied:

       1A    -15.845502     2A    -11.454489     3A    -11.448452
       4A    -11.447759     5A    -11.391697     6A    -11.389856
       7A    -11.382342     8A     -1.480816     9A     -1.256411
      10A     -1.185341    11A     -1.175787    12A     -1.038123
      13A     -1.022497    14A     -0.978577    15A     -0.899098
      16A     -0.849385    17A     -0.824454    18A     -0.784611
      19A     -0.776104    20A     -0.759971    21A     -0.729137
      22A     -0.698750    23A     -0.691212    24A     -0.676844
      25A     -0.670258    26A     -0.664242    27A     -0.656347
      28A     -0.641686

  @DF-RHF Final Energy:  -289.70398731519390

   => Energetics <=

    Nuclear Repulsion Energy =            339.3308769861616270
    One-Electron Energy =               -1052.4302314535725600
    Two-Electron Energy =                 423.3953671522169770
    Total Energy =                       -289.7039873151938991
  Basis Set: (AUG-CC-PVTZ AUX)
    Blend: AUG-CC-PVTZ-RI
    Molecular point group: c1

    Geometry (in Angstrom), charge = 1, multiplicity = 1:

       Center              X                  Y                   Z               Mass
    ------------   -----------------  -----------------  -----------------  -----------------
         N            0.290552637064    -0.198670174797    -0.324188615306    14.003074004430
         C           -0.259899362936     1.110288825203     0.197392384694    12.000000000000
         C           -0.818253362936    -1.236606174797    -0.137421615306    12.000000000000
         C           -1.735174362936     1.013035825203    -0.147924615306    12.000000000000
         C           -2.076366362936    -0.434155174797     0.222184384694    12.000000000000
         C            1.658954637064    -0.631698174797     0.279543984694    12.000000000000
         C            2.715761637064     0.376877825203    -0.054542615306    12.000000000000
         H            0.433409637064    -0.077175174797    -1.335501615306     1.007825032230
         H            0.278314637064     1.939468825203    -0.263656615306     1.007825032230
         H           -0.091357362936     1.117185825203     1.278078384694     1.007825032230
         H           -0.498387362936    -1.919096174797     0.651572384694     1.007825032230
         H           -0.903420362936    -1.795450174797    -1.071140615306     1.007825032230
         H           -1.890442362936     1.200187825203    -1.216021615306     1.007825032230
         H           -2.328227362936     1.744116825203     0.405899384694     1.007825032230
         H           -2.275646362936    -0.511639174797     1.294044384694     1.007825032230
         H           -2.954629362936    -0.810149174797    -0.306176615306     1.007825032230
         H            1.450016637064    -0.726601174797     1.335049384694     1.007825032230
         H            1.835335637064    -1.603257174797    -0.158379615306     1.007825032230
         H            2.831357637064     0.521464825203    -1.132835615306     1.007825032230
         H            2.547327637064     1.344712825203     0.420924384694     1.007825032230
         H            3.661053637064    -0.017867174797     0.325221384694     1.007825032230

  Basis Set: AUG-CC-PVTZ
    Blend: AUG-CC-PVTZ
  Basis Set: (AUG-CC-PVTZ AUX)
    Blend: AUG-CC-PVTZ-JKFIT
	 Reference Energy          =    -289.7039873151938991 [Eh]
	 Singles Energy            =      -0.0000000000000000 [Eh]
	 Same-Spin Energy          =      -0.3032193803231152 [Eh]
	 Opposite-Spin Energy      =      -1.0930772935232482 [Eh]
	 Correlation Energy        =      -1.3962966738463636 [Eh]
	 Total Energy              =    -291.1002839890402356 [Eh]

	 ================> DF-SCS-MP2 Energies <==================
	-----------------------------------------------------------
	 SCS Same-Spin Scale       =       0.3333333333333333 [-]
	 SCS Opposite-Spin Scale   =       1.2000000000000000 [-]
	 SCS Same-Spin Energy      =      -0.1010731267743717 [Eh]
	 SCS Opposite-Spin Energy  =      -1.3116927522278978 [Eh]
	 SCS Correlation Energy    =      -1.4127658790022695 [Eh]
	 SCS Total Energy          =    -291.1167531941961784 [Eh]
	-----------------------------------------------------------

  Dipole Moment: [D]
     X:     0.8600      Y:    -0.4885      Z:    -0.6851     Total:     1.2031

*** Psi4 exiting successfully. Buy a developer a beer!
