                               Psi4 1.3.2 release

  ==> Input File <==

--------------------------------------------------------------------------
#psi4
#
memory 32 gb

molecule  {
1 1
  N        0.2769550    -0.2036720    -0.3241330
  C       -0.2734970     1.1052870     0.1974480
  C       -0.8318510    -1.2416080    -0.1373660
  C       -1.7487720     1.0080340    -0.1478690
  C       -2.0899640    -0.4391570     0.2222400
  C        1.5547133    -0.6258313     0.3544217
  C        2.7021640     0.3718760    -0.0544870
  H        0.4198120    -0.0821770    -1.3354460
  H        0.2647170     1.9344670    -0.2636010
  H       -0.1049550     1.1121840     1.2781340
  H       -0.5119850    -1.9240980     0.6516280
  H       -0.9170180    -1.8004520    -1.0710850
  H       -1.9040400     1.1951860    -1.2159660
  H       -2.3418250     1.7391150     0.4059550
  H       -2.2892440    -0.5166410     1.2941000
  H       -2.9682270    -0.8151510    -0.3061210
  H        1.4364190    -0.7316030     1.3351050
  H        1.8217380    -1.6082590    -0.1583240
  H        2.8177600     0.5164630    -1.1327800
  H        2.5337300     1.3397110     0.4209800
  H        3.6474560    -0.0228690     0.3252770
units angstrom
no_reorient  #important for SAPT in psi4, default
symmetry c1  #important for SAPT in psi4, default
}

set PROPERTIES_ORIGIN ["COM"]
properties('MP2/aug-cc-pvtz', properties = ['dipole'])
--------------------------------------------------------------------------

    Molecular point group: c1
  Charge       = 1
  Multiplicity = 1
  Basis Set: AUG-CC-PVTZ
    Blend: AUG-CC-PVTZ
  Basis Set: (AUG-CC-PVTZ AUX)
    Blend: AUG-CC-PVTZ-JKFIT

    Orbital Energies [Eh]
    ---------------------

    Doubly Occupied:

       1A    -15.850781     2A    -11.450330     3A    -11.449766
       4A    -11.449400     5A    -11.392973     6A    -11.390948
       7A    -11.384009     8A     -1.491226     9A     -1.256414
      10A     -1.181250    11A     -1.171164    12A     -1.043166
      13A     -1.029626    14A     -0.981085    15A     -0.901247
      16A     -0.861098    17A     -0.821530    18A     -0.787772
      19A     -0.783146    20A     -0.757102    21A     -0.726115
      22A     -0.699971    23A     -0.692579    24A     -0.676976
      25A     -0.671276    26A     -0.658743    27A     -0.649075
      28A     -0.640940

  @DF-RHF Final Energy:  -289.69232729830907

   => Energetics <=

    Nuclear Repulsion Energy =            339.9573573367430868
    One-Electron Energy =               -1053.5999502345000565
    Two-Electron Energy =                 423.9502655994478459
    Total Energy =                       -289.6923272983090669
  Basis Set: (AUG-CC-PVTZ AUX)
    Blend: AUG-CC-PVTZ-RI
    Molecular point group: c1

    Geometry (in Angstrom), charge = 1, multiplicity = 1:

       Center              X                  Y                   Z               Mass
    ------------   -----------------  -----------------  -----------------  -----------------
         N            0.301417644409    -0.199972951552    -0.333157166524    14.003074004430
         C           -0.249034355591     1.108986048448     0.188423833476    12.000000000000
         C           -0.807388355591    -1.237908951552    -0.146390166524    12.000000000000
         C           -1.724309355591     1.011733048448    -0.156893166524    12.000000000000
         C           -2.065501355591    -0.435457951552     0.213215833476    12.000000000000
         C            1.579175944409    -0.622132251552     0.345397533476    12.000000000000
         C            2.726626644409     0.375575048448    -0.063511166524    12.000000000000
         H            0.444274644409    -0.078477951552    -1.344470166524     1.007825032230
         H            0.289179644409     1.938166048448    -0.272625166524     1.007825032230
         H           -0.080492355591     1.115883048448     1.269109833476     1.007825032230
         H           -0.487522355591    -1.920398951552     0.642603833476     1.007825032230
         H           -0.892555355591    -1.796752951552    -1.080109166524     1.007825032230
         H           -1.879577355591     1.198885048448    -1.224990166524     1.007825032230
         H           -2.317362355591     1.742814048448     0.396930833476     1.007825032230
         H           -2.264781355591    -0.512941951552     1.285075833476     1.007825032230
         H           -2.943764355591    -0.811451951552    -0.315145166524     1.007825032230
         H            1.460881644409    -0.727903951552     1.326080833476     1.007825032230
         H            1.846200644409    -1.604559951552    -0.167348166524     1.007825032230
         H            2.842222644409     0.520162048448    -1.141804166524     1.007825032230
         H            2.558192644409     1.343410048448     0.411955833476     1.007825032230
         H            3.671918644409    -0.019169951552     0.316252833476     1.007825032230

  Basis Set: AUG-CC-PVTZ
    Blend: AUG-CC-PVTZ
  Basis Set: (AUG-CC-PVTZ AUX)
    Blend: AUG-CC-PVTZ-JKFIT
	 Reference Energy          =    -289.6923272983090669 [Eh]
	 Singles Energy            =      -0.0000000000000000 [Eh]
	 Same-Spin Energy          =      -0.3030447165358189 [Eh]
	 Opposite-Spin Energy      =      -1.0932022538765991 [Eh]
	 Correlation Energy        =      -1.3962469704124181 [Eh]
	 Total Energy              =    -291.0885742687214588 [Eh]

	 ================> DF-SCS-MP2 Energies <==================
	-----------------------------------------------------------
	 SCS Same-Spin Scale       =       0.3333333333333333 [-]
	 SCS Opposite-Spin Scale   =       1.2000000000000000 [-]
	 SCS Same-Spin Energy      =      -0.1010149055119396 [Eh]
	 SCS Opposite-Spin Energy  =      -1.3118427046519188 [Eh]
	 SCS Correlation Energy    =      -1.4128576101638584 [Eh]
	 SCS Total Energy          =    -291.1051849084729497 [Eh]
	-----------------------------------------------------------

  Dipole Moment: [D]
     X:     0.7105      Y:    -0.4744      Z:    -0.7133     Total:     1.1129

*** Psi4 exiting successfully. Buy a developer a beer!
