                               Psi4 1.4a3.dev225

  ==> Input File <==

--------------------------------------------------------------------------
#psi4
#
memory 32 gb

molecule  {
1 1
  N        0.2769550    -0.2036720    -0.3241330
  C       -0.2553033     1.0620228     0.1802085
  C       -0.8318510    -1.2416080    -0.1373660
  C       -1.7487720     1.0080340    -0.1478690
  C       -2.0899640    -0.4391570     0.2222400
  C        1.6014160    -0.6227950     0.2602130
  C        2.7021640     0.3718760    -0.0544870
  H        0.4198120    -0.0821770    -1.3354460
  H        0.2647170     1.9344670    -0.2636010
  H       -0.1049550     1.1121840     1.2781340
  H       -0.5119850    -1.9240980     0.6516280
  H       -0.9170180    -1.8004520    -1.0710850
  H       -1.9040400     1.1951860    -1.2159660
  H       -2.3418250     1.7391150     0.4059550
  H       -2.2892440    -0.5166410     1.2941000
  H       -2.9682270    -0.8151510    -0.3061210
  H        1.4364190    -0.7316030     1.3351050
  H        1.8217380    -1.6082590    -0.1583240
  H        2.8177600     0.5164630    -1.1327800
  H        2.5337300     1.3397110     0.4209800
  H        3.6474560    -0.0228690     0.3252770
units angstrom
no_reorient  #important for SAPT in psi4, default
symmetry c1  #important for SAPT in psi4, default
}

set PROPERTIES_ORIGIN ["COM"]
properties('MP2/aug-cc-pvtz', properties = ['dipole'])
--------------------------------------------------------------------------

    Molecular point group: c1
  Charge       = 1
  Multiplicity = 1
  Basis Set: AUG-CC-PVTZ
    Blend: AUG-CC-PVTZ
  Basis Set: (AUG-CC-PVTZ AUX)
    Blend: AUG-CC-PVTZ-JKFIT

    Orbital Energies [Eh]
    ---------------------

    Doubly Occupied:

       1A    -15.853090     2A    -11.453199     3A    -11.451752
       4A    -11.447671     5A    -11.392878     6A    -11.390856
       7A    -11.382336     8A     -1.502406     9A     -1.259315
      10A     -1.181473    11A     -1.179458    12A     -1.041684
      13A     -1.025515    14A     -0.982881    15A     -0.905235
      16A     -0.857738    17A     -0.826328    18A     -0.784574
      19A     -0.776006    20A     -0.758482    21A     -0.735894
      22A     -0.691963    23A     -0.689641    24A     -0.676974
      25A     -0.672262    26A     -0.664154    27A     -0.652666
      28A     -0.641696

  @DF-RHF Final Energy:  -289.70414757023570

   => Energetics <=

    Nuclear Repulsion Energy =            340.7971222191388279
    One-Electron Energy =               -1055.2462795749174802
    Two-Electron Energy =                 424.7450097855429476
    Total Energy =                       -289.7041475702357047
  Basis Set: (AUG-CC-PVTZ AUX)
    Blend: AUG-CC-PVTZ-RI
    Molecular point group: c1

    Geometry (in Angstrom), charge = 1, multiplicity = 1:

       Center              X                  Y                   Z               Mass
    ------------   -----------------  -----------------  -----------------  -----------------
         N            0.293638837248    -0.195151034210    -0.319798427731    14.003074004430
         C           -0.238619462752     1.070543765790     0.184543072269    12.000000000000
         C           -0.815167162752    -1.233087034210    -0.133031427731    12.000000000000
         C           -1.732088162752     1.016554965790    -0.143534427731    12.000000000000
         C           -2.073280162752    -0.430636034210     0.226574572269    12.000000000000
         C            1.618099837248    -0.614274034210     0.264547572269    12.000000000000
         C            2.718847837248     0.380396965790    -0.050152427731    12.000000000000
         H            0.436495837248    -0.073656034210    -1.331111427731     1.007825032230
         H            0.281400837248     1.942987965790    -0.259266427731     1.007825032230
         H           -0.088271162752     1.120704965790     1.282468572269     1.007825032230
         H           -0.495301162752    -1.915577034210     0.655962572269     1.007825032230
         H           -0.900334162752    -1.791931034210    -1.066750427731     1.007825032230
         H           -1.887356162752     1.203706965790    -1.211631427731     1.007825032230
         H           -2.325141162752     1.747635965790     0.410289572269     1.007825032230
         H           -2.272560162752    -0.508120034210     1.298434572269     1.007825032230
         H           -2.951543162752    -0.806630034210    -0.301786427731     1.007825032230
         H            1.453102837248    -0.723082034210     1.339439572269     1.007825032230
         H            1.838421837248    -1.599738034210    -0.153989427731     1.007825032230
         H            2.834443837248     0.524983965790    -1.128445427731     1.007825032230
         H            2.550413837248     1.348231965790     0.425314572269     1.007825032230
         H            3.664139837248    -0.014348034210     0.329611572269     1.007825032230

  Basis Set: AUG-CC-PVTZ
    Blend: AUG-CC-PVTZ
  Basis Set: (AUG-CC-PVTZ AUX)
    Blend: AUG-CC-PVTZ-JKFIT
	 Reference Energy          =    -289.7041475702357047 [Eh]
	 Singles Energy            =      -0.0000000000000000 [Eh]
	 Same-Spin Energy          =      -0.3035242471189106 [Eh]
	 Opposite-Spin Energy      =      -1.0927425513985753 [Eh]
	 Correlation Energy        =      -1.3962667985174859 [Eh]
	 Total Energy              =    -291.1004143687532064 [Eh]

	 ================> DF-SCS-MP2 Energies <==================
	-----------------------------------------------------------
	 SCS Same-Spin Scale       =       0.3333333333333333 [-]
	 SCS Opposite-Spin Scale   =       1.2000000000000000 [-]
	 SCS Same-Spin Energy      =      -0.1011747490396369 [Eh]
	 SCS Opposite-Spin Energy  =      -1.3112910616782905 [Eh]
	 SCS Correlation Energy    =      -1.4124658107179273 [Eh]
	 SCS Total Energy          =    -291.1166133809536518 [Eh]
	-----------------------------------------------------------

  Dipole Moment: [D]
     X:     0.7701      Y:    -0.5252      Z:    -0.7189     Total:     1.1772

*** Psi4 exiting successfully. Buy a developer a beer!
