                               Psi4 1.3.2 release

  ==> Input File <==

--------------------------------------------------------------------------
#psi4
#
memory 32 gb

molecule  {
1 1
  N        0.2769550    -0.2036720    -0.3241330
  C       -0.2734970     1.1052870     0.1974480
  C       -0.8318510    -1.2416080    -0.1373660
  C       -1.7487720     1.0080340    -0.1478690
  C       -2.0899640    -0.4391570     0.2222400
  C        1.6014160    -0.6227950     0.2602130
  C        2.7021640     0.3718760    -0.0544870
  H        0.4475902    -0.0585526    -1.5320935
  H        0.2647170     1.9344670    -0.2636010
  H       -0.1049550     1.1121840     1.2781340
  H       -0.5119850    -1.9240980     0.6516280
  H       -0.9170180    -1.8004520    -1.0710850
  H       -1.9040400     1.1951860    -1.2159660
  H       -2.3418250     1.7391150     0.4059550
  H       -2.2892440    -0.5166410     1.2941000
  H       -2.9682270    -0.8151510    -0.3061210
  H        1.4364190    -0.7316030     1.3351050
  H        1.8217380    -1.6082590    -0.1583240
  H        2.8177600     0.5164630    -1.1327800
  H        2.5337300     1.3397110     0.4209800
  H        3.6474560    -0.0228690     0.3252770
units angstrom
no_reorient  #important for SAPT in psi4, default
symmetry c1  #important for SAPT in psi4, default
}

set PROPERTIES_ORIGIN ["COM"]
properties('MP2/aug-cc-pvtz', properties = ['dipole'])
--------------------------------------------------------------------------

    Molecular point group: c1
  Charge       = 1
  Multiplicity = 1
  Basis Set: AUG-CC-PVTZ
    Blend: AUG-CC-PVTZ
  Basis Set: (AUG-CC-PVTZ AUX)
    Blend: AUG-CC-PVTZ-JKFIT

    Orbital Energies [Eh]
    ---------------------

    Doubly Occupied:

       1A    -15.863133     2A    -11.450491     3A    -11.448993
       4A    -11.448489     5A    -11.392087     6A    -11.390201
       7A    -11.380738     8A     -1.472201     9A     -1.256053
      10A     -1.180004    11A     -1.170051    12A     -1.038763
      13A     -0.998383    14A     -0.979584    15A     -0.889109
      16A     -0.851089    17A     -0.821104    18A     -0.782653
      19A     -0.764001    20A     -0.757680    21A     -0.728212
      22A     -0.688318    23A     -0.685501    24A     -0.675810
      25A     -0.668723    26A     -0.662203    27A     -0.655871
      28A     -0.641271

  @DF-RHF Final Energy:  -289.67795261115566

   => Energetics <=

    Nuclear Repulsion Energy =            338.9425240309257106
    One-Electron Energy =               -1051.7595192037533707
    Two-Electron Energy =                 423.1390425616719995
    Total Energy =                       -289.6779526111556606
  Basis Set: (AUG-CC-PVTZ AUX)
    Blend: AUG-CC-PVTZ-RI
    Molecular point group: c1

    Geometry (in Angstrom), charge = 1, multiplicity = 1:

       Center              X                  Y                   Z               Mass
    ------------   -----------------  -----------------  -----------------  -----------------
         N            0.295539984438    -0.200574722428    -0.319885207266    14.003074004430
         C           -0.254912015562     1.108384277572     0.201695792734    12.000000000000
         C           -0.813266015562    -1.238510722428    -0.133118207266    12.000000000000
         C           -1.730187015562     1.011131277572    -0.143621207266    12.000000000000
         C           -2.071379015562    -0.436059722428     0.226487792734    12.000000000000
         C            1.620000984438    -0.619697722428     0.264460792734    12.000000000000
         C            2.720748984438     0.374973277572    -0.050239207266    12.000000000000
         H            0.466175184438    -0.055455322428    -1.527845707266     1.007825032230
         H            0.283301984438     1.937564277572    -0.259353207266     1.007825032230
         H           -0.086370015562     1.115281277572     1.282381792734     1.007825032230
         H           -0.493400015562    -1.921000722428     0.655875792734     1.007825032230
         H           -0.898433015562    -1.797354722428    -1.066837207266     1.007825032230
         H           -1.885455015562     1.198283277572    -1.211718207266     1.007825032230
         H           -2.323240015562     1.742212277572     0.410202792734     1.007825032230
         H           -2.270659015562    -0.513543722428     1.298347792734     1.007825032230
         H           -2.949642015562    -0.812053722428    -0.301873207266     1.007825032230
         H            1.455003984438    -0.728505722428     1.339352792734     1.007825032230
         H            1.840322984438    -1.605161722428    -0.154076207266     1.007825032230
         H            2.836344984438     0.519560277572    -1.128532207266     1.007825032230
         H            2.552314984438     1.342808277572     0.425227792734     1.007825032230
         H            3.666040984438    -0.019771722428     0.329524792734     1.007825032230

  Basis Set: AUG-CC-PVTZ
    Blend: AUG-CC-PVTZ
  Basis Set: (AUG-CC-PVTZ AUX)
    Blend: AUG-CC-PVTZ-JKFIT
	 Reference Energy          =    -289.6779526111556606 [Eh]
	 Singles Energy            =      -0.0000000000000000 [Eh]
	 Same-Spin Energy          =      -0.3048720632117092 [Eh]
	 Opposite-Spin Energy      =      -1.0974094285292106 [Eh]
	 Correlation Energy        =      -1.4022814917409199 [Eh]
	 Total Energy              =    -291.0802341028965543 [Eh]

	 ================> DF-SCS-MP2 Energies <==================
	-----------------------------------------------------------
	 SCS Same-Spin Scale       =       0.3333333333333333 [-]
	 SCS Opposite-Spin Scale   =       1.2000000000000000 [-]
	 SCS Same-Spin Energy      =      -0.1016240210705697 [Eh]
	 SCS Opposite-Spin Energy  =      -1.3168913142350527 [Eh]
	 SCS Correlation Energy    =      -1.4185153353056223 [Eh]
	 SCS Total Energy          =    -291.0964679464613027 [Eh]
	-----------------------------------------------------------

  Dipole Moment: [D]
     X:     0.7701      Y:    -0.4626      Z:    -0.8848     Total:     1.2609

*** Psi4 exiting successfully. Buy a developer a beer!
