                               Psi4 1.3.2 release

  ==> Input File <==

--------------------------------------------------------------------------
#psi4
#
memory 32 gb

molecule  {
1 1
  N        0.2769550    -0.2036720    -0.3241330
  C       -0.2734970     1.1052870     0.1974480
  C       -0.8318510    -1.2416080    -0.1373660
  C       -1.7487720     1.0080340    -0.1478690
  C       -2.0899640    -0.4391570     0.2222400
  C        1.6416661    -0.6177168     0.1631574
  C        2.7021640     0.3718760    -0.0544870
  H        0.4198120    -0.0821770    -1.3354460
  H        0.2647170     1.9344670    -0.2636010
  H       -0.1049550     1.1121840     1.2781340
  H       -0.5119850    -1.9240980     0.6516280
  H       -0.9170180    -1.8004520    -1.0710850
  H       -1.9040400     1.1951860    -1.2159660
  H       -2.3418250     1.7391150     0.4059550
  H       -2.2892440    -0.5166410     1.2941000
  H       -2.9682270    -0.8151510    -0.3061210
  H        1.4364190    -0.7316030     1.3351050
  H        1.8217380    -1.6082590    -0.1583240
  H        2.8177600     0.5164630    -1.1327800
  H        2.5337300     1.3397110     0.4209800
  H        3.6474560    -0.0228690     0.3252770
units angstrom
no_reorient  #important for SAPT in psi4, default
symmetry c1  #important for SAPT in psi4, default
}

set PROPERTIES_ORIGIN ["COM"]
properties('MP2/aug-cc-pvtz', properties = ['dipole'])
--------------------------------------------------------------------------

    Molecular point group: c1
  Charge       = 1
  Multiplicity = 1
  Basis Set: AUG-CC-PVTZ
    Blend: AUG-CC-PVTZ
  Basis Set: (AUG-CC-PVTZ AUX)
    Blend: AUG-CC-PVTZ-JKFIT

    Orbital Energies [Eh]
    ---------------------

    Doubly Occupied:

       1A    -15.850386     2A    -11.455216     3A    -11.451339
       4A    -11.450334     5A    -11.393692     6A    -11.391885
       7A    -11.380593     8A     -1.491353     9A     -1.262962
      10A     -1.188839    11A     -1.178136    12A     -1.042312
      13A     -1.018149    14A     -0.981632    15A     -0.903777
      16A     -0.856915    17A     -0.824748    18A     -0.784626
      19A     -0.769310    20A     -0.764933    21A     -0.732934
      22A     -0.702796    23A     -0.691722    24A     -0.679585
      25A     -0.668545    26A     -0.659139    27A     -0.647674
      28A     -0.642743

  @DF-RHF Final Energy:  -289.69344609681741

   => Energetics <=

    Nuclear Repulsion Energy =            340.1293939791224830
    One-Electron Energy =               -1053.9131321381134967
    Two-Electron Energy =                 424.0902920621736030
    Total Energy =                       -289.6934460968174108
  Basis Set: (AUG-CC-PVTZ AUX)
    Blend: AUG-CC-PVTZ-RI
    Molecular point group: c1

    Geometry (in Angstrom), charge = 1, multiplicity = 1:

       Center              X                  Y                   Z               Mass
    ------------   -----------------  -----------------  -----------------  -----------------
         N            0.290995046802    -0.200945596116    -0.310231270690    14.003074004430
         C           -0.259456953198     1.108013403884     0.211349729310    12.000000000000
         C           -0.817810953198    -1.238881596116    -0.123464270690    12.000000000000
         C           -1.734731953198     1.010760403884    -0.133967270690    12.000000000000
         C           -2.075923953198    -0.436430596116     0.236141729310    12.000000000000
         C            1.655706146802    -0.614990396116     0.177059129310    12.000000000000
         C            2.716204046802     0.374602403884    -0.040585270690    12.000000000000
         H            0.433852046802    -0.079450596116    -1.321544270690     1.007825032230
         H            0.278757046802     1.937193403884    -0.249699270690     1.007825032230
         H           -0.090914953198     1.114910403884     1.292035729310     1.007825032230
         H           -0.497944953198    -1.921371596116     0.665529729310     1.007825032230
         H           -0.902977953198    -1.797725596116    -1.057183270690     1.007825032230
         H           -1.889999953198     1.197912403884    -1.202064270690     1.007825032230
         H           -2.327784953198     1.741841403884     0.419856729310     1.007825032230
         H           -2.275203953198    -0.513914596116     1.308001729310     1.007825032230
         H           -2.954186953198    -0.812424596116    -0.292219270690     1.007825032230
         H            1.450459046802    -0.728876596116     1.349006729310     1.007825032230
         H            1.835778046802    -1.605532596116    -0.144422270690     1.007825032230
         H            2.831800046802     0.519189403884    -1.118878270690     1.007825032230
         H            2.547770046802     1.342437403884     0.434881729310     1.007825032230
         H            3.661496046802    -0.020142596116     0.339178729310     1.007825032230

  Basis Set: AUG-CC-PVTZ
    Blend: AUG-CC-PVTZ
  Basis Set: (AUG-CC-PVTZ AUX)
    Blend: AUG-CC-PVTZ-JKFIT
	 Reference Energy          =    -289.6934460968174108 [Eh]
	 Singles Energy            =      -0.0000000000000000 [Eh]
	 Same-Spin Energy          =      -0.3039838202570607 [Eh]
	 Opposite-Spin Energy      =      -1.0937760245903747 [Eh]
	 Correlation Energy        =      -1.3977598448474353 [Eh]
	 Total Energy              =    -291.0912059416648390 [Eh]

	 ================> DF-SCS-MP2 Energies <==================
	-----------------------------------------------------------
	 SCS Same-Spin Scale       =       0.3333333333333333 [-]
	 SCS Opposite-Spin Scale   =       1.2000000000000000 [-]
	 SCS Same-Spin Energy      =      -0.1013279400856869 [Eh]
	 SCS Opposite-Spin Energy  =      -1.3125312295084497 [Eh]
	 SCS Correlation Energy    =      -1.4138591695941365 [Eh]
	 SCS Total Energy          =    -291.1073052664115721 [Eh]
	-----------------------------------------------------------

  Dipole Moment: [D]
     X:     0.7407      Y:    -0.4533      Z:    -0.7296     Total:     1.1342

*** Psi4 exiting successfully. Buy a developer a beer!
