                               Psi4 1.3.2 release

  ==> Input File <==

--------------------------------------------------------------------------
#psi4
#
memory 32 gb

molecule  {
1 1
  N        0.2769550    -0.2036720    -0.3241330
  C       -0.2734970     1.1052870     0.1974480
  C       -0.8125201    -1.2215182     0.0203624
  C       -1.7487720     1.0080340    -0.1478690
  C       -2.0899640    -0.4391570     0.2222400
  C        1.6014160    -0.6227950     0.2602130
  C        2.7021640     0.3718760    -0.0544870
  H        0.4198120    -0.0821770    -1.3354460
  H        0.2647170     1.9344670    -0.2636010
  H       -0.1049550     1.1121840     1.2781340
  H       -0.5119850    -1.9240980     0.6516280
  H       -0.9170180    -1.8004520    -1.0710850
  H       -1.9040400     1.1951860    -1.2159660
  H       -2.3418250     1.7391150     0.4059550
  H       -2.2892440    -0.5166410     1.2941000
  H       -2.9682270    -0.8151510    -0.3061210
  H        1.4364190    -0.7316030     1.3351050
  H        1.8217380    -1.6082590    -0.1583240
  H        2.8177600     0.5164630    -1.1327800
  H        2.5337300     1.3397110     0.4209800
  H        3.6474560    -0.0228690     0.3252770
units angstrom
no_reorient  #important for SAPT in psi4, default
symmetry c1  #important for SAPT in psi4, default
}

set PROPERTIES_ORIGIN ["COM"]
properties('MP2/aug-cc-pvtz', properties = ['dipole'])
--------------------------------------------------------------------------

    Molecular point group: c1
  Charge       = 1
  Multiplicity = 1
  Basis Set: AUG-CC-PVTZ
    Blend: AUG-CC-PVTZ
  Basis Set: (AUG-CC-PVTZ AUX)
    Blend: AUG-CC-PVTZ-JKFIT

    Orbital Energies [Eh]
    ---------------------

    Doubly Occupied:

       1A    -15.852001     2A    -11.454955     3A    -11.451766
       4A    -11.450300     5A    -11.394548     6A    -11.391576
       7A    -11.381724     8A     -1.492683     9A     -1.262337
      10A     -1.182407    11A     -1.179075    12A     -1.041771
      13A     -1.031795    14A     -0.981537    15A     -0.903349
      16A     -0.860801    17A     -0.823191    18A     -0.792027
      19A     -0.775182    20A     -0.757106    21A     -0.733463
      22A     -0.701564    23A     -0.686488    24A     -0.677846
      25A     -0.670908    26A     -0.665306    27A     -0.658669
      28A     -0.622981

  @DF-RHF Final Energy:  -289.67734891812609

   => Energetics <=

    Nuclear Repulsion Energy =            340.5687596187933082
    One-Electron Energy =               -1054.7375035111176658
    Two-Electron Energy =                 424.4913949741982151
    Total Energy =                       -289.6773489181260857
  Basis Set: (AUG-CC-PVTZ AUX)
    Blend: AUG-CC-PVTZ-RI
    Molecular point group: c1

    Geometry (in Angstrom), charge = 1, multiplicity = 1:

       Center              X                  Y                   Z               Mass
    ------------   -----------------  -----------------  -----------------  -----------------
         N            0.293502526767    -0.202744961591    -0.340770955536    14.003074004430
         C           -0.256949473233     1.106214038409     0.180810044464    12.000000000000
         C           -0.795972573233    -1.220591161591     0.003724444464    12.000000000000
         C           -1.732224473233     1.008961038409    -0.164506955536    12.000000000000
         C           -2.073416473233    -0.438229961591     0.205602044464    12.000000000000
         C            1.617963526767    -0.621867961591     0.243575044464    12.000000000000
         C            2.718711526767     0.372803038409    -0.071124955536    12.000000000000
         H            0.436359526767    -0.081249961591    -1.352083955536     1.007825032230
         H            0.281264526767     1.935394038409    -0.280238955536     1.007825032230
         H           -0.088407473233     1.113111038409     1.261496044464     1.007825032230
         H           -0.495437473233    -1.923170961591     0.634990044464     1.007825032230
         H           -0.900470473233    -1.799524961591    -1.087722955536     1.007825032230
         H           -1.887492473233     1.196113038409    -1.232603955536     1.007825032230
         H           -2.325277473233     1.740042038409     0.389317044464     1.007825032230
         H           -2.272696473233    -0.515713961591     1.277462044464     1.007825032230
         H           -2.951679473233    -0.814223961591    -0.322758955536     1.007825032230
         H            1.452966526767    -0.730675961591     1.318467044464     1.007825032230
         H            1.838285526767    -1.607331961591    -0.174961955536     1.007825032230
         H            2.834307526767     0.517390038409    -1.149417955536     1.007825032230
         H            2.550277526767     1.340638038409     0.404342044464     1.007825032230
         H            3.664003526767    -0.021941961591     0.308639044464     1.007825032230

  Basis Set: AUG-CC-PVTZ
    Blend: AUG-CC-PVTZ
  Basis Set: (AUG-CC-PVTZ AUX)
    Blend: AUG-CC-PVTZ-JKFIT
	 Reference Energy          =    -289.6773489181260857 [Eh]
	 Singles Energy            =      -0.0000000000000000 [Eh]
	 Same-Spin Energy          =      -0.3039669556161065 [Eh]
	 Opposite-Spin Energy      =      -1.0944240173243229 [Eh]
	 Correlation Energy        =      -1.3983909729404296 [Eh]
	 Total Energy              =    -291.0757398910665188 [Eh]

	 ================> DF-SCS-MP2 Energies <==================
	-----------------------------------------------------------
	 SCS Same-Spin Scale       =       0.3333333333333333 [-]
	 SCS Opposite-Spin Scale   =       1.2000000000000000 [-]
	 SCS Same-Spin Energy      =      -0.1013223185387022 [Eh]
	 SCS Opposite-Spin Energy  =      -1.3133088207891874 [Eh]
	 SCS Correlation Energy    =      -1.4146311393278896 [Eh]
	 SCS Total Energy          =    -291.0919800574539522 [Eh]
	-----------------------------------------------------------

  Dipole Moment: [D]
     X:     0.7269      Y:    -0.4308      Z:    -0.6717     Total:     1.0794

*** Psi4 exiting successfully. Buy a developer a beer!
