                               Psi4 1.3.2 release

  ==> Input File <==

--------------------------------------------------------------------------
#psi4
#
memory 32 gb

molecule  {
1 1
  N        0.2769550    -0.2036720    -0.3241330
  C       -0.2724668     1.1151966     0.1729978
  C       -0.8318510    -1.2416080    -0.1373660
  C       -1.7487720     1.0080340    -0.1478690
  C       -2.0899640    -0.4391570     0.2222400
  C        1.6014160    -0.6227950     0.2602130
  C        2.7021640     0.3718760    -0.0544870
  H        0.4198120    -0.0821770    -1.3354460
  H        0.2647170     1.9344670    -0.2636010
  H       -0.1049550     1.1121840     1.2781340
  H       -0.5119850    -1.9240980     0.6516280
  H       -0.9170180    -1.8004520    -1.0710850
  H       -1.9040400     1.1951860    -1.2159660
  H       -2.3418250     1.7391150     0.4059550
  H       -2.2892440    -0.5166410     1.2941000
  H       -2.9682270    -0.8151510    -0.3061210
  H        1.4364190    -0.7316030     1.3351050
  H        1.8217380    -1.6082590    -0.1583240
  H        2.8177600     0.5164630    -1.1327800
  H        2.5337300     1.3397110     0.4209800
  H        3.6474560    -0.0228690     0.3252770
units angstrom
no_reorient  #important for SAPT in psi4, default
symmetry c1  #important for SAPT in psi4, default
}

set PROPERTIES_ORIGIN ["COM"]
properties('MP2/aug-cc-pvtz', properties = ['dipole'])
--------------------------------------------------------------------------

    Molecular point group: c1
  Charge       = 1
  Multiplicity = 1
  Basis Set: AUG-CC-PVTZ
    Blend: AUG-CC-PVTZ
  Basis Set: (AUG-CC-PVTZ AUX)
    Blend: AUG-CC-PVTZ-JKFIT

    Orbital Energies [Eh]
    ---------------------

    Doubly Occupied:

       1A    -15.849985     2A    -11.451581     3A    -11.450754
       4A    -11.450081     5A    -11.393156     6A    -11.391653
       7A    -11.381707     8A     -1.490865     9A     -1.259307
      10A     -1.183427    11A     -1.176287    12A     -1.040434
      13A     -1.023057    14A     -0.981690    15A     -0.904836
      16A     -0.853841    17A     -0.823101    18A     -0.782300
      19A     -0.774401    20A     -0.764309    21A     -0.730384
      22A     -0.693079    23A     -0.688867    24A     -0.677840
      25A     -0.671333    26A     -0.665866    27A     -0.658398
      28A     -0.641891

  @DF-RHF Final Energy:  -289.70528977664139

   => Energetics <=

    Nuclear Repulsion Energy =            339.9875954132726861
    One-Electron Energy =               -1053.6769176340417289
    Two-Electron Energy =                 423.9840324441277062
    Total Energy =                       -289.7052897766413935
  Basis Set: (AUG-CC-PVTZ AUX)
    Blend: AUG-CC-PVTZ-RI
    Molecular point group: c1

    Geometry (in Angstrom), charge = 1, multiplicity = 1:

       Center              X                  Y                   Z               Mass
    ------------   -----------------  -----------------  -----------------  -----------------
         N            0.295696140222    -0.201524711890    -0.318934117156    14.003074004430
         C           -0.253725659778     1.117343888110     0.178196682844    12.000000000000
         C           -0.813109859778    -1.239460711890    -0.132167117156    12.000000000000
         C           -1.730030859778     1.010181288110    -0.142670117156    12.000000000000
         C           -2.071222859778    -0.437009711890     0.227438882844    12.000000000000
         C            1.620157140222    -0.620647711890     0.265411882844    12.000000000000
         C            2.720905140222     0.374023288110    -0.049288117156    12.000000000000
         H            0.438553140222    -0.080029711890    -1.330247117156     1.007825032230
         H            0.283458140222     1.936614288110    -0.258402117156     1.007825032230
         H           -0.086213859778     1.114331288110     1.283332882844     1.007825032230
         H           -0.493243859778    -1.921950711890     0.656826882844     1.007825032230
         H           -0.898276859778    -1.798304711890    -1.065886117156     1.007825032230
         H           -1.885298859778     1.197333288110    -1.210767117156     1.007825032230
         H           -2.323083859778     1.741262288110     0.411153882844     1.007825032230
         H           -2.270502859778    -0.514493711890     1.299298882844     1.007825032230
         H           -2.949485859778    -0.813003711890    -0.300922117156     1.007825032230
         H            1.455160140222    -0.729455711890     1.340303882844     1.007825032230
         H            1.840479140222    -1.606111711890    -0.153125117156     1.007825032230
         H            2.836501140222     0.518610288110    -1.127581117156     1.007825032230
         H            2.552471140222     1.341858288110     0.426178882844     1.007825032230
         H            3.666197140222    -0.020721711890     0.330475882844     1.007825032230

  Basis Set: AUG-CC-PVTZ
    Blend: AUG-CC-PVTZ
  Basis Set: (AUG-CC-PVTZ AUX)
    Blend: AUG-CC-PVTZ-JKFIT
	 Reference Energy          =    -289.7052897766413935 [Eh]
	 Singles Energy            =      -0.0000000000000000 [Eh]
	 Same-Spin Energy          =      -0.3032695676380608 [Eh]
	 Opposite-Spin Energy      =      -1.0928199364207358 [Eh]
	 Correlation Energy        =      -1.3960895040587966 [Eh]
	 Total Energy              =    -291.1013792807002005 [Eh]

	 ================> DF-SCS-MP2 Energies <==================
	-----------------------------------------------------------
	 SCS Same-Spin Scale       =       0.3333333333333333 [-]
	 SCS Opposite-Spin Scale   =       1.2000000000000000 [-]
	 SCS Same-Spin Energy      =      -0.1010898558793536 [Eh]
	 SCS Opposite-Spin Energy  =      -1.3113839237048830 [Eh]
	 SCS Correlation Energy    =      -1.4124737795842366 [Eh]
	 SCS Total Energy          =    -291.1177635562256114 [Eh]
	-----------------------------------------------------------

  Dipole Moment: [D]
     X:     0.7293      Y:    -0.4834      Z:    -0.7089     Total:     1.1260

*** Psi4 exiting successfully. Buy a developer a beer!
