                               Psi4 1.3.2 release

  ==> Input File <==

--------------------------------------------------------------------------
#psi4
#
memory 32 gb

molecule  {
1 1
  N        0.2769550    -0.2036720    -0.3241330
  C       -0.2759389     1.0616932     0.2935862
  C       -0.8318510    -1.2416080    -0.1373660
  C       -1.7487720     1.0080340    -0.1478690
  C       -2.0899640    -0.4391570     0.2222400
  C        1.6014160    -0.6227950     0.2602130
  C        2.7021640     0.3718760    -0.0544870
  H        0.4198120    -0.0821770    -1.3354460
  H        0.2647170     1.9344670    -0.2636010
  H       -0.1049550     1.1121840     1.2781340
  H       -0.5119850    -1.9240980     0.6516280
  H       -0.9170180    -1.8004520    -1.0710850
  H       -1.9040400     1.1951860    -1.2159660
  H       -2.3418250     1.7391150     0.4059550
  H       -2.2892440    -0.5166410     1.2941000
  H       -2.9682270    -0.8151510    -0.3061210
  H        1.4364190    -0.7316030     1.3351050
  H        1.8217380    -1.6082590    -0.1583240
  H        2.8177600     0.5164630    -1.1327800
  H        2.5337300     1.3397110     0.4209800
  H        3.6474560    -0.0228690     0.3252770
units angstrom
no_reorient  #important for SAPT in psi4, default
symmetry c1  #important for SAPT in psi4, default
}

set PROPERTIES_ORIGIN ["COM"]
properties('MP2/aug-cc-pvtz', properties = ['dipole'])
--------------------------------------------------------------------------

    Molecular point group: c1
  Charge       = 1
  Multiplicity = 1
  Basis Set: AUG-CC-PVTZ
    Blend: AUG-CC-PVTZ
  Basis Set: (AUG-CC-PVTZ AUX)
    Blend: AUG-CC-PVTZ-JKFIT

    Orbital Energies [Eh]
    ---------------------

    Doubly Occupied:

       1A    -15.850710     2A    -11.451206     3A    -11.449848
       4A    -11.449635     5A    -11.394844     6A    -11.390368
       7A    -11.381144     8A     -1.491362     9A     -1.259008
      10A     -1.182562    11A     -1.173509    12A     -1.041516
      13A     -1.032228    14A     -0.979264    15A     -0.896928
      16A     -0.854948    17A     -0.833252    18A     -0.794380
      19A     -0.775269    20A     -0.753728    21A     -0.724884
      22A     -0.707814    23A     -0.685633    24A     -0.681684
      25A     -0.669630    26A     -0.659673    27A     -0.647816
      28A     -0.641000

  @DF-RHF Final Energy:  -289.69166945828977

   => Energetics <=

    Nuclear Repulsion Energy =            340.2058006166812447
    One-Electron Energy =               -1054.0872497623731761
    Two-Electron Energy =                 424.1897796874021651
    Total Energy =                       -289.6916694582897662
  Basis Set: (AUG-CC-PVTZ AUX)
    Blend: AUG-CC-PVTZ-RI
    Molecular point group: c1

    Geometry (in Angstrom), charge = 1, multiplicity = 1:

       Center              X                  Y                   Z               Mass
    ------------   -----------------  -----------------  -----------------  -----------------
         N            0.296112323497    -0.195111526705    -0.333388446047    14.003074004430
         C           -0.256781576503     1.070253673295     0.284330753953    12.000000000000
         C           -0.812693676503    -1.233047526705    -0.146621446047    12.000000000000
         C           -1.729614676503     1.016594473295    -0.157124446047    12.000000000000
         C           -2.070806676503    -0.430596526705     0.212984553953    12.000000000000
         C            1.620573323497    -0.614234526705     0.250957553953    12.000000000000
         C            2.721321323497     0.380436473295    -0.063742446047    12.000000000000
         H            0.438969323497    -0.073616526705    -1.344701446047     1.007825032230
         H            0.283874323497     1.943027473295    -0.272856446047     1.007825032230
         H           -0.085797676503     1.120744473295     1.268878553953     1.007825032230
         H           -0.492827676503    -1.915537526705     0.642372553953     1.007825032230
         H           -0.897860676503    -1.791891526705    -1.080340446047     1.007825032230
         H           -1.884882676503     1.203746473295    -1.225221446047     1.007825032230
         H           -2.322667676503     1.747675473295     0.396699553953     1.007825032230
         H           -2.270086676503    -0.508080526705     1.284844553953     1.007825032230
         H           -2.949069676503    -0.806590526705    -0.315376446047     1.007825032230
         H            1.455576323497    -0.723042526705     1.325849553953     1.007825032230
         H            1.840895323497    -1.599698526705    -0.167579446047     1.007825032230
         H            2.836917323497     0.525023473295    -1.142035446047     1.007825032230
         H            2.552887323497     1.348271473295     0.411724553953     1.007825032230
         H            3.666613323497    -0.014308526705     0.316021553953     1.007825032230

  Basis Set: AUG-CC-PVTZ
    Blend: AUG-CC-PVTZ
  Basis Set: (AUG-CC-PVTZ AUX)
    Blend: AUG-CC-PVTZ-JKFIT
	 Reference Energy          =    -289.6916694582897662 [Eh]
	 Singles Energy            =      -0.0000000000000000 [Eh]
	 Same-Spin Energy          =      -0.3034348192259627 [Eh]
	 Opposite-Spin Energy      =      -1.0934325132778726 [Eh]
	 Correlation Energy        =      -1.3968673325038352 [Eh]
	 Total Energy              =    -291.0885367907936256 [Eh]

	 ================> DF-SCS-MP2 Energies <==================
	-----------------------------------------------------------
	 SCS Same-Spin Scale       =       0.3333333333333333 [-]
	 SCS Opposite-Spin Scale   =       1.2000000000000000 [-]
	 SCS Same-Spin Energy      =      -0.1011449397419875 [Eh]
	 SCS Opposite-Spin Energy  =      -1.3121190159334470 [Eh]
	 SCS Correlation Energy    =      -1.4132639556754345 [Eh]
	 SCS Total Energy          =    -291.1049334139652274 [Eh]
	-----------------------------------------------------------

  Dipole Moment: [D]
     X:     0.7151      Y:    -0.4633      Z:    -0.7042     Total:     1.1054

*** Psi4 exiting successfully. Buy a developer a beer!
