                               Psi4 1.3.2 release

  ==> Input File <==

--------------------------------------------------------------------------
#psi4
#
memory 32 gb

molecule  {
1 1
  N        0.2769550    -0.2036720    -0.3241330
  C       -0.2734970     1.1052870     0.1974480
  C       -0.8318510    -1.2416080    -0.1373660
  C       -1.7487720     1.0080340    -0.1478690
  C       -2.0899640    -0.4391570     0.2222400
  C        1.6014160    -0.6227950     0.2602130
  C        2.7021640     0.3718760    -0.0544870
  H        0.4198120    -0.0821770    -1.3354460
  H        0.2647170     1.9344670    -0.2636010
  H       -0.1049550     1.1121840     1.2781340
  H       -0.5119850    -1.9240980     0.6516280
  H       -0.9170180    -1.8004520    -1.0710850
  H       -1.9040400     1.1951860    -1.2159660
  H       -2.3418250     1.7391150     0.4059550
  H       -2.2892440    -0.5166410     1.2941000
  H       -2.9682270    -0.8151510    -0.3061210
  H        1.4364190    -0.7316030     1.3351050
  H        1.8217380    -1.6082590    -0.1583240
  H        2.8177600     0.5164630    -1.1327800
  H        2.5337300     1.3397110     0.4209800
  H        3.6474560    -0.0228690     0.3252770
units angstrom
no_reorient  #important for SAPT in psi4, default
symmetry c1  #important for SAPT in psi4, default
}

set PROPERTIES_ORIGIN ["COM"]
properties('MP2/aug-cc-pvtz', properties = ['dipole'])
--------------------------------------------------------------------------

    Molecular point group: c1
  Charge       = 1
  Multiplicity = 1
  Basis Set: AUG-CC-PVTZ
    Blend: AUG-CC-PVTZ
  Basis Set: (AUG-CC-PVTZ AUX)
    Blend: AUG-CC-PVTZ-JKFIT

    Orbital Energies [Eh]
    ---------------------

    Doubly Occupied:

       1A    -15.849940     2A    -11.451472     3A    -11.450455
       4A    -11.449709     5A    -11.393236     6A    -11.391337
       7A    -11.381601     8A     -1.490844     9A     -1.259231
      10A     -1.183099    11A     -1.175655    12A     -1.040209
      13A     -1.024687    14A     -0.981219    15A     -0.902474
      16A     -0.853768    17A     -0.824938    18A     -0.784814
      19A     -0.774526    20A     -0.761897    21A     -0.729561
      22A     -0.693677    23A     -0.689514    24A     -0.679842
      25A     -0.671096    26A     -0.663676    27A     -0.657134
      28A     -0.643007

  @DF-RHF Final Energy:  -289.70615541485489

   => Energetics <=

    Nuclear Repulsion Energy =            340.0327339102460087
    One-Electron Energy =               -1053.7725433677612727
    Two-Electron Energy =                 424.0336540426604302
    Total Energy =                       -289.7061554148548908
  Basis Set: (AUG-CC-PVTZ AUX)
    Blend: AUG-CC-PVTZ-RI
    Molecular point group: c1

    Geometry (in Angstrom), charge = 1, multiplicity = 1:

       Center              X                  Y                   Z               Mass
    ------------   -----------------  -----------------  -----------------  -----------------
         N            0.295819625147    -0.200336897660    -0.321864840445    14.003074004430
         C           -0.254632374853     1.108622102340     0.199716159555    12.000000000000
         C           -0.812986374853    -1.238272897660    -0.135097840445    12.000000000000
         C           -1.729907374853     1.011369102340    -0.145600840445    12.000000000000
         C           -2.071099374853    -0.435821897660     0.224508159555    12.000000000000
         C            1.620280625147    -0.619459897660     0.262481159555    12.000000000000
         C            2.721028625147     0.375211102340    -0.052218840445    12.000000000000
         H            0.438676625147    -0.078841897660    -1.333177840445     1.007825032230
         H            0.283581625147     1.937802102340    -0.261332840445     1.007825032230
         H           -0.086090374853     1.115519102340     1.280402159555     1.007825032230
         H           -0.493120374853    -1.920762897660     0.653896159555     1.007825032230
         H           -0.898153374853    -1.797116897660    -1.068816840445     1.007825032230
         H           -1.885175374853     1.198521102340    -1.213697840445     1.007825032230
         H           -2.322960374853     1.742450102340     0.408223159555     1.007825032230
         H           -2.270379374853    -0.513305897660     1.296368159555     1.007825032230
         H           -2.949362374853    -0.811815897660    -0.303852840445     1.007825032230
         H            1.455283625147    -0.728267897660     1.337373159555     1.007825032230
         H            1.840602625147    -1.604923897660    -0.156055840445     1.007825032230
         H            2.836624625147     0.519798102340    -1.130511840445     1.007825032230
         H            2.552594625147     1.343046102340     0.423248159555     1.007825032230
         H            3.666320625147    -0.019533897660     0.327545159555     1.007825032230

  Basis Set: AUG-CC-PVTZ
    Blend: AUG-CC-PVTZ
  Basis Set: (AUG-CC-PVTZ AUX)
    Blend: AUG-CC-PVTZ-JKFIT
	 Reference Energy          =    -289.7061554148548908 [Eh]
	 Singles Energy            =      -0.0000000000000000 [Eh]
	 Same-Spin Energy          =      -0.3032429395288897 [Eh]
	 Opposite-Spin Energy      =      -1.0927677151959578 [Eh]
	 Correlation Energy        =      -1.3960106547248476 [Eh]
	 Total Energy              =    -291.1021660695797664 [Eh]

	 ================> DF-SCS-MP2 Energies <==================
	-----------------------------------------------------------
	 SCS Same-Spin Scale       =       0.3333333333333333 [-]
	 SCS Opposite-Spin Scale   =       1.2000000000000000 [-]
	 SCS Same-Spin Energy      =      -0.1010809798429632 [Eh]
	 SCS Opposite-Spin Energy  =      -1.3113212582351494 [Eh]
	 SCS Correlation Energy    =      -1.4124022380781127 [Eh]
	 SCS Total Energy          =    -291.1185576529330206 [Eh]
	-----------------------------------------------------------

  Dipole Moment: [D]
     X:     0.7283      Y:    -0.4755      Z:    -0.7043     Total:     1.1192

*** Psi4 exiting successfully. Buy a developer a beer!
