                               Psi4 1.3.2 release

  ==> Input File <==

--------------------------------------------------------------------------
#psi4
#
memory 32 gb

molecule  {
1 1
  N        0.2769550    -0.2036720    -0.3241330
  C       -0.2945353     1.1024270     0.1817545
  C       -0.8318510    -1.2416080    -0.1373660
  C       -1.7487720     1.0080340    -0.1478690
  C       -2.0899640    -0.4391570     0.2222400
  C        1.6014160    -0.6227950     0.2602130
  C        2.7021640     0.3718760    -0.0544870
  H        0.4198120    -0.0821770    -1.3354460
  H        0.2647170     1.9344670    -0.2636010
  H       -0.1049550     1.1121840     1.2781340
  H       -0.5119850    -1.9240980     0.6516280
  H       -0.9170180    -1.8004520    -1.0710850
  H       -1.9040400     1.1951860    -1.2159660
  H       -2.3418250     1.7391150     0.4059550
  H       -2.2892440    -0.5166410     1.2941000
  H       -2.9682270    -0.8151510    -0.3061210
  H        1.4364190    -0.7316030     1.3351050
  H        1.8217380    -1.6082590    -0.1583240
  H        2.8177600     0.5164630    -1.1327800
  H        2.5337300     1.3397110     0.4209800
  H        3.6474560    -0.0228690     0.3252770
units angstrom
no_reorient  #important for SAPT in psi4, default
symmetry c1  #important for SAPT in psi4, default
}

set PROPERTIES_ORIGIN ["COM"]
properties('MP2/aug-cc-pvtz', properties = ['dipole'])
--------------------------------------------------------------------------

    Molecular point group: c1
  Charge       = 1
  Multiplicity = 1
  Basis Set: AUG-CC-PVTZ
    Blend: AUG-CC-PVTZ
  Basis Set: (AUG-CC-PVTZ AUX)
    Blend: AUG-CC-PVTZ-JKFIT

    Orbital Energies [Eh]
    ---------------------

    Doubly Occupied:

       1A    -15.849731     2A    -11.451837     3A    -11.450812
       4A    -11.450395     5A    -11.392271     6A    -11.391533
       7A    -11.381653     8A     -1.491216     9A     -1.261930
      10A     -1.184392    11A     -1.175659    12A     -1.040181
      13A     -1.022944    14A     -0.982630    15A     -0.901997
      16A     -0.854838    17A     -0.824590    18A     -0.782964
      19A     -0.774559    20A     -0.762020    21A     -0.729997
      22A     -0.692038    23A     -0.689199    24A     -0.680936
      25A     -0.671553    26A     -0.665551    27A     -0.657349
      28A     -0.642368

  @DF-RHF Final Energy:  -289.70511654355118

   => Energetics <=

    Nuclear Repulsion Energy =            340.2059554577948575
    One-Electron Energy =               -1054.1078548052309998
    Two-Electron Energy =                 424.1967828038849575
    Total Energy =                       -289.7051165435511848
  Basis Set: (AUG-CC-PVTZ AUX)
    Blend: AUG-CC-PVTZ-RI
    Molecular point group: c1

    Geometry (in Angstrom), charge = 1, multiplicity = 1:

       Center              X                  Y                   Z               Mass
    ------------   -----------------  -----------------  -----------------  -----------------
         N            0.298341381034    -0.199994083752    -0.319983739025    14.003074004430
         C           -0.273148918966     1.106104916248     0.185903760975    12.000000000000
         C           -0.810464618966    -1.237930083752    -0.133216739025    12.000000000000
         C           -1.727385618966     1.011711916248    -0.143719739025    12.000000000000
         C           -2.068577618966    -0.435479083752     0.226389260975    12.000000000000
         C            1.622802381034    -0.619117083752     0.264362260975    12.000000000000
         C            2.723550381034     0.375553916248    -0.050337739025    12.000000000000
         H            0.441198381034    -0.078499083752    -1.331296739025     1.007825032230
         H            0.286103381034     1.938144916248    -0.259451739025     1.007825032230
         H           -0.083568618966     1.115861916248     1.282283260975     1.007825032230
         H           -0.490598618966    -1.920420083752     0.655777260975     1.007825032230
         H           -0.895631618966    -1.796774083752    -1.066935739025     1.007825032230
         H           -1.882653618966     1.198863916248    -1.211816739025     1.007825032230
         H           -2.320438618966     1.742792916248     0.410104260975     1.007825032230
         H           -2.267857618966    -0.512963083752     1.298249260975     1.007825032230
         H           -2.946840618966    -0.811473083752    -0.301971739025     1.007825032230
         H            1.457805381034    -0.727925083752     1.339254260975     1.007825032230
         H            1.843124381034    -1.604581083752    -0.154174739025     1.007825032230
         H            2.839146381034     0.520140916248    -1.128630739025     1.007825032230
         H            2.555116381034     1.343388916248     0.425129260975     1.007825032230
         H            3.668842381034    -0.019191083752     0.329426260975     1.007825032230

  Basis Set: AUG-CC-PVTZ
    Blend: AUG-CC-PVTZ
  Basis Set: (AUG-CC-PVTZ AUX)
    Blend: AUG-CC-PVTZ-JKFIT
	 Reference Energy          =    -289.7051165435511848 [Eh]
	 Singles Energy            =      -0.0000000000000000 [Eh]
	 Same-Spin Energy          =      -0.3034466458740422 [Eh]
	 Opposite-Spin Energy      =      -1.0929416016842726 [Eh]
	 Correlation Energy        =      -1.3963882475583147 [Eh]
	 Total Energy              =    -291.1015047911095053 [Eh]

	 ================> DF-SCS-MP2 Energies <==================
	-----------------------------------------------------------
	 SCS Same-Spin Scale       =       0.3333333333333333 [-]
	 SCS Opposite-Spin Scale   =       1.2000000000000000 [-]
	 SCS Same-Spin Energy      =      -0.1011488819580141 [Eh]
	 SCS Opposite-Spin Energy  =      -1.3115299220211269 [Eh]
	 SCS Correlation Energy    =      -1.4126788039791409 [Eh]
	 SCS Total Energy          =    -291.1177953475303184 [Eh]
	-----------------------------------------------------------

  Dipole Moment: [D]
     X:     0.7277      Y:    -0.4754      Z:    -0.7036     Total:     1.1183

*** Psi4 exiting successfully. Buy a developer a beer!
