                               Psi4 1.4a3.dev225

  ==> Input File <==

--------------------------------------------------------------------------
#psi4
#
memory 32 gb

molecule  {
1 1
  N        0.2769550    -0.2036720    -0.3241330
  C       -0.2734970     1.1052870     0.1974480
  C       -0.8318510    -1.2416080    -0.1373660
  C       -1.7487720     1.0080340    -0.1478690
  C       -2.0899640    -0.4391570     0.2222400
  C        1.6014160    -0.6227950     0.2602130
  C        2.7021640     0.3718760    -0.0544870
  H        0.4128674    -0.0880831    -1.2862841
  H        0.2647170     1.9344670    -0.2636010
  H       -0.1049550     1.1121840     1.2781340
  H       -0.5119850    -1.9240980     0.6516280
  H       -0.9170180    -1.8004520    -1.0710850
  H       -1.9040400     1.1951860    -1.2159660
  H       -2.3418250     1.7391150     0.4059550
  H       -2.2892440    -0.5166410     1.2941000
  H       -2.9682270    -0.8151510    -0.3061210
  H        1.4364190    -0.7316030     1.3351050
  H        1.8217380    -1.6082590    -0.1583240
  H        2.8177600     0.5164630    -1.1327800
  H        2.5337300     1.3397110     0.4209800
  H        3.6474560    -0.0228690     0.3252770
units angstrom
no_reorient  #important for SAPT in psi4, default
symmetry c1  #important for SAPT in psi4, default
}

set PROPERTIES_ORIGIN ["COM"]
properties('MP2/aug-cc-pvtz', properties = ['dipole'])
--------------------------------------------------------------------------

    Molecular point group: c1
  Charge       = 1
  Multiplicity = 1
  Basis Set: AUG-CC-PVTZ
    Blend: AUG-CC-PVTZ
  Basis Set: (AUG-CC-PVTZ AUX)
    Blend: AUG-CC-PVTZ-JKFIT

    Orbital Energies [Eh]
    ---------------------

    Doubly Occupied:

       1A    -15.845655     2A    -11.451756     3A    -11.450857
       4A    -11.450055     5A    -11.393508     6A    -11.391621
       7A    -11.381795     8A     -1.497676     9A     -1.260252
      10A     -1.184439    11A     -1.177294    12A     -1.040675
      13A     -1.033146    14A     -0.981640    15A     -0.905482
      16A     -0.854445    17A     -0.825927    18A     -0.785359
      19A     -0.777370    20A     -0.762466    21A     -0.729925
      22A     -0.695669    23A     -0.689809    24A     -0.680450
      25A     -0.671464    26A     -0.664053    27A     -0.657436
      28A     -0.643366

  @DF-RHF Final Energy:  -289.70615453607553

   => Energetics <=

    Nuclear Repulsion Energy =            340.3452835570427624
    One-Electron Energy =               -1054.3356987926517832
    Two-Electron Energy =                 424.2842606995334904
    Total Energy =                       -289.7061545360755304
  Basis Set: (AUG-CC-PVTZ AUX)
    Blend: AUG-CC-PVTZ-RI
    Molecular point group: c1

    Geometry (in Angstrom), charge = 1, multiplicity = 1:

       Center              X                  Y                   Z               Mass
    ------------   -----------------  -----------------  -----------------  -----------------
         N            0.295889535828    -0.200277441468    -0.322359748991    14.003074004430
         C           -0.254562464172     1.108681558532     0.199221251009    12.000000000000
         C           -0.812916464172    -1.238213441468    -0.135592748991    12.000000000000
         C           -1.729837464172     1.011428558532    -0.146095748991    12.000000000000
         C           -2.071029464172    -0.435762441468     0.224013251009    12.000000000000
         C            1.620350535828    -0.619400441468     0.261986251009    12.000000000000
         C            2.721098535828     0.375270558532    -0.052713748991    12.000000000000
         H            0.431801935828    -0.084688541468    -1.284510848991     1.007825032230
         H            0.283651535828     1.937861558532    -0.261827748991     1.007825032230
         H           -0.086020464172     1.115578558532     1.279907251009     1.007825032230
         H           -0.493050464172    -1.920703441468     0.653401251009     1.007825032230
         H           -0.898083464172    -1.797057441468    -1.069311748991     1.007825032230
         H           -1.885105464172     1.198580558532    -1.214192748991     1.007825032230
         H           -2.322890464172     1.742509558532     0.407728251009     1.007825032230
         H           -2.270309464172    -0.513246441468     1.295873251009     1.007825032230
         H           -2.949292464172    -0.811756441468    -0.304347748991     1.007825032230
         H            1.455353535828    -0.728208441468     1.336878251009     1.007825032230
         H            1.840672535828    -1.604864441468    -0.156550748991     1.007825032230
         H            2.836694535828     0.519857558532    -1.131006748991     1.007825032230
         H            2.552664535828     1.343105558532     0.422753251009     1.007825032230
         H            3.666390535828    -0.019474441468     0.327050251009     1.007825032230

  Basis Set: AUG-CC-PVTZ
    Blend: AUG-CC-PVTZ
  Basis Set: (AUG-CC-PVTZ AUX)
    Blend: AUG-CC-PVTZ-JKFIT
	 Reference Energy          =    -289.7061545360755304 [Eh]
	 Singles Energy            =      -0.0000000000000000 [Eh]
	 Same-Spin Energy          =      -0.3028578466501177 [Eh]
	 Opposite-Spin Energy      =      -1.0917429687577531 [Eh]
	 Correlation Energy        =      -1.3946008154078708 [Eh]
	 Total Energy              =    -291.1007553514834285 [Eh]

	 ================> DF-SCS-MP2 Energies <==================
	-----------------------------------------------------------
	 SCS Same-Spin Scale       =       0.3333333333333333 [-]
	 SCS Opposite-Spin Scale   =       1.2000000000000000 [-]
	 SCS Same-Spin Energy      =      -0.1009526155500392 [Eh]
	 SCS Opposite-Spin Energy  =      -1.3100915625093037 [Eh]
	 SCS Correlation Energy    =      -1.4110441780593430 [Eh]
	 SCS Total Energy          =    -291.1171987141348723 [Eh]
	-----------------------------------------------------------

  Dipole Moment: [D]
     X:     0.7177      Y:    -0.4790      Z:    -0.6575     Total:     1.0848

*** Psi4 exiting successfully. Buy a developer a beer!
