                               Psi4 1.3.2 release

  ==> Input File <==

--------------------------------------------------------------------------
#psi4
#
memory 32 gb

molecule  {
1 1
  N        0.2769550    -0.2036720    -0.3241330
  C       -0.2648132     1.1586627     0.0486259
  C       -0.8318510    -1.2416080    -0.1373660
  C       -1.7487720     1.0080340    -0.1478690
  C       -2.0899640    -0.4391570     0.2222400
  C        1.6014160    -0.6227950     0.2602130
  C        2.7021640     0.3718760    -0.0544870
  H        0.4198120    -0.0821770    -1.3354460
  H        0.2647170     1.9344670    -0.2636010
  H       -0.1049550     1.1121840     1.2781340
  H       -0.5119850    -1.9240980     0.6516280
  H       -0.9170180    -1.8004520    -1.0710850
  H       -1.9040400     1.1951860    -1.2159660
  H       -2.3418250     1.7391150     0.4059550
  H       -2.2892440    -0.5166410     1.2941000
  H       -2.9682270    -0.8151510    -0.3061210
  H        1.4364190    -0.7316030     1.3351050
  H        1.8217380    -1.6082590    -0.1583240
  H        2.8177600     0.5164630    -1.1327800
  H        2.5337300     1.3397110     0.4209800
  H        3.6474560    -0.0228690     0.3252770
units angstrom
no_reorient  #important for SAPT in psi4, default
symmetry c1  #important for SAPT in psi4, default
}

set PROPERTIES_ORIGIN ["COM"]
properties('MP2/aug-cc-pvtz', properties = ['dipole'])
--------------------------------------------------------------------------

    Molecular point group: c1
  Charge       = 1
  Multiplicity = 1
  Basis Set: AUG-CC-PVTZ
    Blend: AUG-CC-PVTZ
  Basis Set: (AUG-CC-PVTZ AUX)
    Blend: AUG-CC-PVTZ-JKFIT

    Orbital Energies [Eh]
    ---------------------

    Doubly Occupied:

       1A    -15.851567     2A    -11.454508     3A    -11.452768
       4A    -11.452335     5A    -11.394650     6A    -11.393670
       7A    -11.382172     8A     -1.491896     9A     -1.259736
      10A     -1.186533    11A     -1.179233    12A     -1.042646
      13A     -1.019021    14A     -0.984359    15A     -0.917964
      16A     -0.855992    17A     -0.816818    18A     -0.779314
      19A     -0.774655    20A     -0.768338    21A     -0.732936
      22A     -0.700997    23A     -0.687944    24A     -0.676646
      25A     -0.672022    26A     -0.661876    27A     -0.658138
      28A     -0.626517

  @DF-RHF Final Energy:  -289.67757248187922

   => Energetics <=

    Nuclear Repulsion Energy =            339.7369940731902034
    One-Electron Energy =               -1053.0786282215833580
    Two-Electron Energy =                 423.6640616665139305
    Total Energy =                       -289.6775724818792241
  Basis Set: (AUG-CC-PVTZ AUX)
    Blend: AUG-CC-PVTZ-RI
    Molecular point group: c1

    Geometry (in Angstrom), charge = 1, multiplicity = 1:

       Center              X                  Y                   Z               Mass
    ------------   -----------------  -----------------  -----------------  -----------------
         N            0.294778741437    -0.206734776084    -0.304026279028    14.003074004430
         C           -0.246989458563     1.155599923916     0.068732620972    12.000000000000
         C           -0.814027258563    -1.244670776084    -0.117259279028    12.000000000000
         C           -1.730948258563     1.004971223916    -0.127762279028    12.000000000000
         C           -2.072140258563    -0.442219776084     0.242346720972    12.000000000000
         C            1.619239741437    -0.625857776084     0.280319720972    12.000000000000
         C            2.719987741437     0.368813223916    -0.034380279028    12.000000000000
         H            0.437635741437    -0.085239776084    -1.315339279028     1.007825032230
         H            0.282540741437     1.931404223916    -0.243494279028     1.007825032230
         H           -0.087131258563     1.109121223916     1.298240720972     1.007825032230
         H           -0.494161258563    -1.927160776084     0.671734720972     1.007825032230
         H           -0.899194258563    -1.803514776084    -1.050978279028     1.007825032230
         H           -1.886216258563     1.192123223916    -1.195859279028     1.007825032230
         H           -2.324001258563     1.736052223916     0.426061720972     1.007825032230
         H           -2.271420258563    -0.519703776084     1.314206720972     1.007825032230
         H           -2.950403258563    -0.818213776084    -0.286014279028     1.007825032230
         H            1.454242741437    -0.734665776084     1.355211720972     1.007825032230
         H            1.839561741437    -1.611321776084    -0.138217279028     1.007825032230
         H            2.835583741437     0.513400223916    -1.112673279028     1.007825032230
         H            2.551553741437     1.336648223916     0.441086720972     1.007825032230
         H            3.665279741437    -0.025931776084     0.345383720972     1.007825032230

  Basis Set: AUG-CC-PVTZ
    Blend: AUG-CC-PVTZ
  Basis Set: (AUG-CC-PVTZ AUX)
    Blend: AUG-CC-PVTZ-JKFIT
	 Reference Energy          =    -289.6775724818792241 [Eh]
	 Singles Energy            =      -0.0000000000000000 [Eh]
	 Same-Spin Energy          =      -0.3038326395635017 [Eh]
	 Opposite-Spin Energy      =      -1.0943044104426083 [Eh]
	 Correlation Energy        =      -1.3981370500061101 [Eh]
	 Total Energy              =    -291.0757095318853089 [Eh]

	 ================> DF-SCS-MP2 Energies <==================
	-----------------------------------------------------------
	 SCS Same-Spin Scale       =       0.3333333333333333 [-]
	 SCS Opposite-Spin Scale   =       1.2000000000000000 [-]
	 SCS Same-Spin Energy      =      -0.1012775465211672 [Eh]
	 SCS Opposite-Spin Energy  =      -1.3131652925311299 [Eh]
	 SCS Correlation Energy    =      -1.4144428390522972 [Eh]
	 SCS Total Energy          =    -291.0920153209315231 [Eh]
	-----------------------------------------------------------

  Dipole Moment: [D]
     X:     0.7184      Y:    -0.5496      Z:    -0.7563     Total:     1.1790

*** Psi4 exiting successfully. Buy a developer a beer!
