                               Psi4 1.3.2 release

  ==> Input File <==

--------------------------------------------------------------------------
#psi4
#
memory 32 gb

molecule  {
1 1
  N        0.2769550    -0.2036720    -0.3241330
  C       -0.3462719     1.2783437     0.2664059
  C       -0.8318510    -1.2416080    -0.1373660
  C       -1.7487720     1.0080340    -0.1478690
  C       -2.0899640    -0.4391570     0.2222400
  C        1.6014160    -0.6227950     0.2602130
  C        2.7021640     0.3718760    -0.0544870
  H        0.4198120    -0.0821770    -1.3354460
  H        0.2647170     1.9344670    -0.2636010
  H       -0.1049550     1.1121840     1.2781340
  H       -0.5119850    -1.9240980     0.6516280
  H       -0.9170180    -1.8004520    -1.0710850
  H       -1.9040400     1.1951860    -1.2159660
  H       -2.3418250     1.7391150     0.4059550
  H       -2.2892440    -0.5166410     1.2941000
  H       -2.9682270    -0.8151510    -0.3061210
  H        1.4364190    -0.7316030     1.3351050
  H        1.8217380    -1.6082590    -0.1583240
  H        2.8177600     0.5164630    -1.1327800
  H        2.5337300     1.3397110     0.4209800
  H        3.6474560    -0.0228690     0.3252770
units angstrom
no_reorient  #important for SAPT in psi4, default
symmetry c1  #important for SAPT in psi4, default
}

set PROPERTIES_ORIGIN ["COM"]
properties('MP2/aug-cc-pvtz', properties = ['dipole'])
--------------------------------------------------------------------------

    Molecular point group: c1
  Charge       = 1
  Multiplicity = 1
  Basis Set: AUG-CC-PVTZ
    Blend: AUG-CC-PVTZ
  Basis Set: (AUG-CC-PVTZ AUX)
    Blend: AUG-CC-PVTZ-JKFIT

    Orbital Energies [Eh]
    ---------------------

    Doubly Occupied:

       1A    -15.829444     2A    -11.465952     3A    -11.444206
       4A    -11.442773     5A    -11.398585     6A    -11.393948
       7A    -11.377538     8A     -1.453621     9A     -1.260361
      10A     -1.188289    11A     -1.163704    12A     -1.038897
      13A     -1.018972    14A     -0.978569    15A     -0.891461
      16A     -0.839564    17A     -0.825930    18A     -0.792815
      19A     -0.770075    20A     -0.765750    21A     -0.717249
      22A     -0.699848    23A     -0.693575    24A     -0.676254
      25A     -0.669127    26A     -0.662160    27A     -0.647658
      28A     -0.639508

  @DF-RHF Final Energy:  -289.68136487064766

   => Energetics <=

    Nuclear Repulsion Energy =            337.0902575318204413
    One-Electron Energy =               -1048.0515790786655543
    Two-Electron Energy =                 421.2799566761974006
    Total Energy =                       -289.6813648706476556
  Basis Set: (AUG-CC-PVTZ AUX)
    Blend: AUG-CC-PVTZ-RI
    Molecular point group: c1

    Geometry (in Angstrom), charge = 1, multiplicity = 1:

       Center              X                  Y                   Z               Mass
    ------------   -----------------  -----------------  -----------------  -----------------
         N            0.304542788732    -0.221080339471    -0.330130479314    14.003074004430
         C           -0.318684111268     1.260935360529     0.260408420686    12.000000000000
         C           -0.804263211268    -1.259016339471    -0.143363479314    12.000000000000
         C           -1.721184211268     0.990625660529    -0.153866479314    12.000000000000
         C           -2.062376211268    -0.456565339471     0.216242520686    12.000000000000
         C            1.629003788732    -0.640203339471     0.254215520686    12.000000000000
         C            2.729751788732     0.354467660529    -0.060484479314    12.000000000000
         H            0.447399788732    -0.099585339471    -1.341443479314     1.007825032230
         H            0.292304788732     1.917058660529    -0.269598479314     1.007825032230
         H           -0.077367211268     1.094775660529     1.272136520686     1.007825032230
         H           -0.484397211268    -1.941506339471     0.645630520686     1.007825032230
         H           -0.889430211268    -1.817860339471    -1.077082479314     1.007825032230
         H           -1.876452211268     1.177777660529    -1.221963479314     1.007825032230
         H           -2.314237211268     1.721706660529     0.399957520686     1.007825032230
         H           -2.261656211268    -0.534049339471     1.288102520686     1.007825032230
         H           -2.940639211268    -0.832559339471    -0.312118479314     1.007825032230
         H            1.464006788732    -0.749011339471     1.329107520686     1.007825032230
         H            1.849325788732    -1.625667339471    -0.164321479314     1.007825032230
         H            2.845347788732     0.499054660529    -1.138777479314     1.007825032230
         H            2.561317788732     1.322302660529     0.414982520686     1.007825032230
         H            3.675043788732    -0.040277339471     0.319279520686     1.007825032230

  Basis Set: AUG-CC-PVTZ
    Blend: AUG-CC-PVTZ
  Basis Set: (AUG-CC-PVTZ AUX)
    Blend: AUG-CC-PVTZ-JKFIT
	 Reference Energy          =    -289.6813648706476556 [Eh]
	 Singles Energy            =      -0.0000000000000000 [Eh]
	 Same-Spin Energy          =      -0.3034474065069190 [Eh]
	 Opposite-Spin Energy      =      -1.0948094228455736 [Eh]
	 Correlation Energy        =      -1.3982568293524926 [Eh]
	 Total Energy              =    -291.0796217000001320 [Eh]

	 ================> DF-SCS-MP2 Energies <==================
	-----------------------------------------------------------
	 SCS Same-Spin Scale       =       0.3333333333333333 [-]
	 SCS Opposite-Spin Scale   =       1.2000000000000000 [-]
	 SCS Same-Spin Energy      =      -0.1011491355023063 [Eh]
	 SCS Opposite-Spin Energy  =      -1.3137713074146882 [Eh]
	 SCS Correlation Energy    =      -1.4149204429169946 [Eh]
	 SCS Total Energy          =    -291.0962853135646355 [Eh]
	-----------------------------------------------------------

  Dipole Moment: [D]
     X:     0.4826      Y:    -0.2163      Z:    -0.6247     Total:     0.8185

*** Psi4 exiting successfully. Buy a developer a beer!
