                               Psi4 1.4a3.dev225

  ==> Input File <==

--------------------------------------------------------------------------
#psi4
#
memory 32 gb

molecule  {
1 1
  N        0.2769550    -0.2036720    -0.3241330
  C       -0.2662195     1.0879813     0.1905522
  C       -0.8318510    -1.2416080    -0.1373660
  C       -1.7487720     1.0080340    -0.1478690
  C       -2.0899640    -0.4391570     0.2222400
  C        1.6014160    -0.6227950     0.2602130
  C        2.7021640     0.3718760    -0.0544870
  H        0.4198120    -0.0821770    -1.3354460
  H        0.2647170     1.9344670    -0.2636010
  H       -0.1049550     1.1121840     1.2781340
  H       -0.5119850    -1.9240980     0.6516280
  H       -0.9170180    -1.8004520    -1.0710850
  H       -1.9040400     1.1951860    -1.2159660
  H       -2.3418250     1.7391150     0.4059550
  H       -2.2892440    -0.5166410     1.2941000
  H       -2.9682270    -0.8151510    -0.3061210
  H        1.4364190    -0.7316030     1.3351050
  H        1.8217380    -1.6082590    -0.1583240
  H        2.8177600     0.5164630    -1.1327800
  H        2.5337300     1.3397110     0.4209800
  H        3.6474560    -0.0228690     0.3252770
units angstrom
no_reorient  #important for SAPT in psi4, default
symmetry c1  #important for SAPT in psi4, default
}

set PROPERTIES_ORIGIN ["COM"]
properties('MP2/aug-cc-pvtz', properties = ['dipole'])
--------------------------------------------------------------------------

    Molecular point group: c1
  Charge       = 1
  Multiplicity = 1
  Basis Set: AUG-CC-PVTZ
    Blend: AUG-CC-PVTZ
  Basis Set: (AUG-CC-PVTZ AUX)
    Blend: AUG-CC-PVTZ-JKFIT

    Orbital Energies [Eh]
    ---------------------

    Doubly Occupied:

       1A    -15.851301     2A    -11.452183     3A    -11.450985
       4A    -11.448797     5A    -11.393047     6A    -11.391134
       7A    -11.381907     8A     -1.495325     9A     -1.259247
      10A     -1.182442    11A     -1.177142    12A     -1.040751
      13A     -1.025010    14A     -0.981832    15A     -0.903596
      16A     -0.855342    17A     -0.825414    18A     -0.784580
      19A     -0.775115    20A     -0.760583    21A     -0.732090
      22A     -0.692740    23A     -0.689803    24A     -0.678721
      25A     -0.671694    26A     -0.663756    27A     -0.655719
      28A     -0.642545

  @DF-RHF Final Energy:  -289.70588223276820

   => Energetics <=

    Nuclear Repulsion Energy =            340.3362422049473253
    One-Electron Energy =               -1054.3586478083655038
    Two-Electron Energy =                 424.3165233706499748
    Total Energy =                       -289.7058822327682037
  Basis Set: (AUG-CC-PVTZ AUX)
    Blend: AUG-CC-PVTZ-RI
    Molecular point group: c1

    Geometry (in Angstrom), charge = 1, multiplicity = 1:

       Center              X                  Y                   Z               Mass
    ------------   -----------------  -----------------  -----------------  -----------------
         N            0.294947307590    -0.198262549883    -0.321038275359    14.003074004430
         C           -0.248227192410     1.093390750117     0.193646924641    12.000000000000
         C           -0.813858692410    -1.236198549883    -0.134271275359    12.000000000000
         C           -1.730779692410     1.013443450117    -0.144774275359    12.000000000000
         C           -2.071971692410    -0.433747549883     0.225334724641    12.000000000000
         C            1.619408307590    -0.617385549883     0.263307724641    12.000000000000
         C            2.720156307590     0.377285450117    -0.051392275359    12.000000000000
         H            0.437804307590    -0.076767549883    -1.332351275359     1.007825032230
         H            0.282709307590     1.939876450117    -0.260506275359     1.007825032230
         H           -0.086962692410     1.117593450117     1.281228724641     1.007825032230
         H           -0.493992692410    -1.918688549883     0.654722724641     1.007825032230
         H           -0.899025692410    -1.795042549883    -1.067990275359     1.007825032230
         H           -1.886047692410     1.200595450117    -1.212871275359     1.007825032230
         H           -2.323832692410     1.744524450117     0.409049724641     1.007825032230
         H           -2.271251692410    -0.511231549883     1.297194724641     1.007825032230
         H           -2.950234692410    -0.809741549883    -0.303026275359     1.007825032230
         H            1.454411307590    -0.726193549883     1.338199724641     1.007825032230
         H            1.839730307590    -1.602849549883    -0.155229275359     1.007825032230
         H            2.835752307590     0.521872450117    -1.129685275359     1.007825032230
         H            2.551722307590     1.345120450117     0.424074724641     1.007825032230
         H            3.665448307590    -0.017459549883     0.328371724641     1.007825032230

  Basis Set: AUG-CC-PVTZ
    Blend: AUG-CC-PVTZ
  Basis Set: (AUG-CC-PVTZ AUX)
    Blend: AUG-CC-PVTZ-JKFIT
	 Reference Energy          =    -289.7058822327682037 [Eh]
	 Singles Energy            =      -0.0000000000000000 [Eh]
	 Same-Spin Energy          =      -0.3033347428787546 [Eh]
	 Opposite-Spin Energy      =      -1.0927254812891853 [Eh]
	 Correlation Energy        =      -1.3960602241679401 [Eh]
	 Total Energy              =    -291.1019424569361718 [Eh]

	 ================> DF-SCS-MP2 Energies <==================
	-----------------------------------------------------------
	 SCS Same-Spin Scale       =       0.3333333333333333 [-]
	 SCS Opposite-Spin Scale   =       1.2000000000000000 [-]
	 SCS Same-Spin Energy      =      -0.1011115809595849 [Eh]
	 SCS Opposite-Spin Energy  =      -1.3112705775470224 [Eh]
	 SCS Correlation Energy    =      -1.4123821585066072 [Eh]
	 SCS Total Energy          =    -291.1182643912748063 [Eh]
	-----------------------------------------------------------

  Dipole Moment: [D]
     X:     0.7461      Y:    -0.4962      Z:    -0.7104     Total:     1.1435

*** Psi4 exiting successfully. Buy a developer a beer!
