                               Psi4 1.3.2 release

  ==> Input File <==

--------------------------------------------------------------------------
#psi4
#
memory 32 gb

molecule  {
1 1
  N        0.2769550    -0.2036720    -0.3241330
  C       -0.3153995     1.0991691     0.1659069
  C       -0.8318510    -1.2416080    -0.1373660
  C       -1.7487720     1.0080340    -0.1478690
  C       -2.0899640    -0.4391570     0.2222400
  C        1.6014160    -0.6227950     0.2602130
  C        2.7021640     0.3718760    -0.0544870
  H        0.4198120    -0.0821770    -1.3354460
  H        0.2647170     1.9344670    -0.2636010
  H       -0.1049550     1.1121840     1.2781340
  H       -0.5119850    -1.9240980     0.6516280
  H       -0.9170180    -1.8004520    -1.0710850
  H       -1.9040400     1.1951860    -1.2159660
  H       -2.3418250     1.7391150     0.4059550
  H       -2.2892440    -0.5166410     1.2941000
  H       -2.9682270    -0.8151510    -0.3061210
  H        1.4364190    -0.7316030     1.3351050
  H        1.8217380    -1.6082590    -0.1583240
  H        2.8177600     0.5164630    -1.1327800
  H        2.5337300     1.3397110     0.4209800
  H        3.6474560    -0.0228690     0.3252770
units angstrom
no_reorient  #important for SAPT in psi4, default
symmetry c1  #important for SAPT in psi4, default
}

set PROPERTIES_ORIGIN ["COM"]
properties('MP2/aug-cc-pvtz', properties = ['dipole'])
--------------------------------------------------------------------------

    Molecular point group: c1
  Charge       = 1
  Multiplicity = 1
  Basis Set: AUG-CC-PVTZ
    Blend: AUG-CC-PVTZ
  Basis Set: (AUG-CC-PVTZ AUX)
    Blend: AUG-CC-PVTZ-JKFIT

    Orbital Energies [Eh]
    ---------------------

    Doubly Occupied:

       1A    -15.849566     2A    -11.452219     3A    -11.452037
       4A    -11.450353     5A    -11.392127     6A    -11.390946
       7A    -11.381703     8A     -1.491646     9A     -1.264921
      10A     -1.185763    11A     -1.175665    12A     -1.040242
      13A     -1.021196    14A     -0.984047    15A     -0.901464
      16A     -0.855978    17A     -0.824488    18A     -0.781429
      19A     -0.774526    20A     -0.762319    21A     -0.730741
      22A     -0.693020    23A     -0.687976    24A     -0.681437
      25A     -0.671859    26A     -0.665913    27A     -0.657359
      28A     -0.641246

  @DF-RHF Final Energy:  -289.70248398500974

   => Energetics <=

    Nuclear Repulsion Energy =            340.3872424238184635
    One-Electron Energy =               -1054.4550814891458685
    Two-Electron Energy =                 424.3653550803177268
    Total Energy =                       -289.7024839850097351
  Basis Set: (AUG-CC-PVTZ AUX)
    Blend: AUG-CC-PVTZ-RI
    Molecular point group: c1

    Geometry (in Angstrom), charge = 1, multiplicity = 1:

       Center              X                  Y                   Z               Mass
    ------------   -----------------  -----------------  -----------------  -----------------
         N            0.300842268423    -0.199603575560    -0.318084166409    14.003074004430
         C           -0.291512231577     1.103237524440     0.171955733591    12.000000000000
         C           -0.807963731577    -1.237539575560    -0.131317166409    12.000000000000
         C           -1.724884731577     1.012102424440    -0.141820166409    12.000000000000
         C           -2.066076731577    -0.435088575560     0.228288833591    12.000000000000
         C            1.625303268423    -0.618726575560     0.266261833591    12.000000000000
         C            2.726051268423     0.375944424440    -0.048438166409    12.000000000000
         H            0.443699268423    -0.078108575560    -1.329397166409     1.007825032230
         H            0.288604268423     1.938535424440    -0.257552166409     1.007825032230
         H           -0.081067731577     1.116252424440     1.284182833591     1.007825032230
         H           -0.488097731577    -1.920029575560     0.657676833591     1.007825032230
         H           -0.893130731577    -1.796383575560    -1.065036166409     1.007825032230
         H           -1.880152731577     1.199254424440    -1.209917166409     1.007825032230
         H           -2.317937731577     1.743183424440     0.412003833591     1.007825032230
         H           -2.265356731577    -0.512572575560     1.300148833591     1.007825032230
         H           -2.944339731577    -0.811082575560    -0.300072166409     1.007825032230
         H            1.460306268423    -0.727534575560     1.341153833591     1.007825032230
         H            1.845625268423    -1.604190575560    -0.152275166409     1.007825032230
         H            2.841647268423     0.520531424440    -1.126731166409     1.007825032230
         H            2.557617268423     1.343779424440     0.427028833591     1.007825032230
         H            3.671343268423    -0.018800575560     0.331325833591     1.007825032230

  Basis Set: AUG-CC-PVTZ
    Blend: AUG-CC-PVTZ
  Basis Set: (AUG-CC-PVTZ AUX)
    Blend: AUG-CC-PVTZ-JKFIT
	 Reference Energy          =    -289.7024839850097351 [Eh]
	 Singles Energy            =      -0.0000000000000000 [Eh]
	 Same-Spin Energy          =      -0.3037086458236500 [Eh]
	 Opposite-Spin Energy      =      -1.0932211429607261 [Eh]
	 Correlation Energy        =      -1.3969297887843761 [Eh]
	 Total Energy              =    -291.0994137737940832 [Eh]

	 ================> DF-SCS-MP2 Energies <==================
	-----------------------------------------------------------
	 SCS Same-Spin Scale       =       0.3333333333333333 [-]
	 SCS Opposite-Spin Scale   =       1.2000000000000000 [-]
	 SCS Same-Spin Energy      =      -0.1012362152745500 [Eh]
	 SCS Opposite-Spin Energy  =      -1.3118653715528714 [Eh]
	 SCS Correlation Energy    =      -1.4131015868274215 [Eh]
	 SCS Total Energy          =    -291.1155855718371299 [Eh]
	-----------------------------------------------------------

  Dipole Moment: [D]
     X:     0.7248      Y:    -0.4762      Z:    -0.7044     Total:     1.1172

*** Psi4 exiting successfully. Buy a developer a beer!
