                               Psi4 1.3.2 release

  ==> Input File <==

--------------------------------------------------------------------------
#psi4
#
memory 32 gb

molecule  {
1 1
  N        0.2879352    -0.2031144    -0.3480284
  C       -0.2734970     1.1052870     0.1974480
  C       -0.8318510    -1.2416080    -0.1373660
  C       -1.7487720     1.0080340    -0.1478690
  C       -2.0899640    -0.4391570     0.2222400
  C        1.6014160    -0.6227950     0.2602130
  C        2.7021640     0.3718760    -0.0544870
  H        0.4198120    -0.0821770    -1.3354460
  H        0.2647170     1.9344670    -0.2636010
  H       -0.1049550     1.1121840     1.2781340
  H       -0.5119850    -1.9240980     0.6516280
  H       -0.9170180    -1.8004520    -1.0710850
  H       -1.9040400     1.1951860    -1.2159660
  H       -2.3418250     1.7391150     0.4059550
  H       -2.2892440    -0.5166410     1.2941000
  H       -2.9682270    -0.8151510    -0.3061210
  H        1.4364190    -0.7316030     1.3351050
  H        1.8217380    -1.6082590    -0.1583240
  H        2.8177600     0.5164630    -1.1327800
  H        2.5337300     1.3397110     0.4209800
  H        3.6474560    -0.0228690     0.3252770
units angstrom
no_reorient  #important for SAPT in psi4, default
symmetry c1  #important for SAPT in psi4, default
}

set PROPERTIES_ORIGIN ["COM"]
properties('MP2/aug-cc-pvtz', properties = ['dipole'])
--------------------------------------------------------------------------

    Molecular point group: c1
  Charge       = 1
  Multiplicity = 1
  Basis Set: AUG-CC-PVTZ
    Blend: AUG-CC-PVTZ
  Basis Set: (AUG-CC-PVTZ AUX)
    Blend: AUG-CC-PVTZ-JKFIT

    Orbital Energies [Eh]
    ---------------------

    Doubly Occupied:

       1A    -15.847686     2A    -11.451315     3A    -11.451138
       4A    -11.450682     5A    -11.393499     6A    -11.391663
       7A    -11.380938     8A     -1.489295     9A     -1.259278
      10A     -1.182424    11A     -1.175108    12A     -1.039366
      13A     -1.029549    14A     -0.980150    15A     -0.901097
      16A     -0.852715    17A     -0.825066    18A     -0.785376
      19A     -0.777628    20A     -0.761091    21A     -0.727417
      22A     -0.696122    23A     -0.688548    24A     -0.679928
      25A     -0.670198    26A     -0.663343    27A     -0.656903
      28A     -0.643126

  @DF-RHF Final Energy:  -289.70594846875463

   => Energetics <=

    Nuclear Repulsion Energy =            339.7851983125892730
    One-Electron Energy =               -1053.2809950811456474
    Two-Electron Energy =                 423.7898482998017471
    Total Energy =                       -289.7059484687546274
  Basis Set: (AUG-CC-PVTZ AUX)
    Blend: AUG-CC-PVTZ-RI
    Molecular point group: c1

    Geometry (in Angstrom), charge = 1, multiplicity = 1:

       Center              X                  Y                   Z               Mass
    ------------   -----------------  -----------------  -----------------  -----------------
         N            0.305263989342    -0.199857290961    -0.342417914176    14.003074004430
         C           -0.256168210658     1.108544109039     0.203058485824    12.000000000000
         C           -0.814522210658    -1.238350890961    -0.131755514176    12.000000000000
         C           -1.731443210658     1.011291109039    -0.142258514176    12.000000000000
         C           -2.072635210658    -0.435899890961     0.227850485824    12.000000000000
         C            1.618744789342    -0.619537890961     0.265823485824    12.000000000000
         C            2.719492789342     0.375133109039    -0.048876514176    12.000000000000
         H            0.437140789342    -0.078919890961    -1.329835514176     1.007825032230
         H            0.282045789342     1.937724109039    -0.257990514176     1.007825032230
         H           -0.087626210658     1.115441109039     1.283744485824     1.007825032230
         H           -0.494656210658    -1.920840890961     0.657238485824     1.007825032230
         H           -0.899689210658    -1.797194890961    -1.065474514176     1.007825032230
         H           -1.886711210658     1.198443109039    -1.210355514176     1.007825032230
         H           -2.324496210658     1.742372109039     0.411565485824     1.007825032230
         H           -2.271915210658    -0.513383890961     1.299710485824     1.007825032230
         H           -2.950898210658    -0.811893890961    -0.300510514176     1.007825032230
         H            1.453747789342    -0.728345890961     1.340715485824     1.007825032230
         H            1.839066789342    -1.605001890961    -0.152713514176     1.007825032230
         H            2.835088789342     0.519720109039    -1.127169514176     1.007825032230
         H            2.551058789342     1.342968109039     0.426590485824     1.007825032230
         H            3.664784789342    -0.019611890961     0.330887485824     1.007825032230

  Basis Set: AUG-CC-PVTZ
    Blend: AUG-CC-PVTZ
  Basis Set: (AUG-CC-PVTZ AUX)
    Blend: AUG-CC-PVTZ-JKFIT
	 Reference Energy          =    -289.7059484687546274 [Eh]
	 Singles Energy            =      -0.0000000000000000 [Eh]
	 Same-Spin Energy          =      -0.3029599813842543 [Eh]
	 Opposite-Spin Energy      =      -1.0924167868287595 [Eh]
	 Correlation Energy        =      -1.3953767682130138 [Eh]
	 Total Energy              =    -291.1013252369676252 [Eh]

	 ================> DF-SCS-MP2 Energies <==================
	-----------------------------------------------------------
	 SCS Same-Spin Scale       =       0.3333333333333333 [-]
	 SCS Opposite-Spin Scale   =       1.2000000000000000 [-]
	 SCS Same-Spin Energy      =      -0.1009866604614181 [Eh]
	 SCS Opposite-Spin Energy  =      -1.3109001441945114 [Eh]
	 SCS Correlation Energy    =      -1.4118868046559294 [Eh]
	 SCS Total Energy          =    -291.1178352734105488 [Eh]
	-----------------------------------------------------------

  Dipole Moment: [D]
     X:     0.6951      Y:    -0.4753      Z:    -0.6709     Total:     1.0766

*** Psi4 exiting successfully. Buy a developer a beer!
