                               Psi4 1.3.2 release

  ==> Input File <==

--------------------------------------------------------------------------
#psi4
#
memory 32 gb

molecule  {
1 1
  N        0.2769550    -0.2036720    -0.3241330
  C       -0.2734970     1.1052870     0.1974480
  C       -0.8318510    -1.2416080    -0.1373660
  C       -1.7487720     1.0080340    -0.1478690
  C       -2.0899640    -0.4391570     0.2222400
  C        1.6892980    -0.6506051     0.2989861
  C        2.7021640     0.3718760    -0.0544870
  H        0.4198120    -0.0821770    -1.3354460
  H        0.2647170     1.9344670    -0.2636010
  H       -0.1049550     1.1121840     1.2781340
  H       -0.5119850    -1.9240980     0.6516280
  H       -0.9170180    -1.8004520    -1.0710850
  H       -1.9040400     1.1951860    -1.2159660
  H       -2.3418250     1.7391150     0.4059550
  H       -2.2892440    -0.5166410     1.2941000
  H       -2.9682270    -0.8151510    -0.3061210
  H        1.4364190    -0.7316030     1.3351050
  H        1.8217380    -1.6082590    -0.1583240
  H        2.8177600     0.5164630    -1.1327800
  H        2.5337300     1.3397110     0.4209800
  H        3.6474560    -0.0228690     0.3252770
units angstrom
no_reorient  #important for SAPT in psi4, default
symmetry c1  #important for SAPT in psi4, default
}

set PROPERTIES_ORIGIN ["COM"]
properties('MP2/aug-cc-pvtz', properties = ['dipole'])
--------------------------------------------------------------------------

    Molecular point group: c1
  Charge       = 1
  Multiplicity = 1
  Basis Set: AUG-CC-PVTZ
    Blend: AUG-CC-PVTZ
  Basis Set: (AUG-CC-PVTZ AUX)
    Blend: AUG-CC-PVTZ-JKFIT

    Orbital Energies [Eh]
    ---------------------

    Doubly Occupied:

       1A    -15.840138     2A    -11.458371     3A    -11.446216
       4A    -11.445605     5A    -11.389977     6A    -11.388190
       7A    -11.383570     8A     -1.471565     9A     -1.254311
      10A     -1.189054    11A     -1.173820    12A     -1.037195
      13A     -1.019964    14A     -0.975846    15A     -0.895634
      16A     -0.845184    17A     -0.825358    18A     -0.785230
      19A     -0.775560    20A     -0.758699    21A     -0.729439
      22A     -0.706634    23A     -0.689219    24A     -0.680134
      25A     -0.665948    26A     -0.659527    27A     -0.654914
      28A     -0.640074

  @DF-RHF Final Energy:  -289.69849990778960

   => Energetics <=

    Nuclear Repulsion Energy =            338.6491778264571053
    One-Electron Energy =               -1051.1246024522299649
    Two-Electron Energy =                 422.7769247179832064
    Total Energy =                       -289.6984999077895964
  Basis Set: (AUG-CC-PVTZ AUX)
    Blend: AUG-CC-PVTZ-RI
    Molecular point group: c1

    Geometry (in Angstrom), charge = 1, multiplicity = 1:

       Center              X                  Y                   Z               Mass
    ------------   -----------------  -----------------  -----------------  -----------------
         N            0.285285648981    -0.197003439948    -0.326512378181    14.003074004430
         C           -0.265166351019     1.111955560052     0.195068621819    12.000000000000
         C           -0.823520351019    -1.234939439948    -0.139745378181    12.000000000000
         C           -1.740441351019     1.014702560052    -0.150248378181    12.000000000000
         C           -2.081633351019    -0.432488439948     0.219860621819    12.000000000000
         C            1.697628648981    -0.643936539948     0.296606721819    12.000000000000
         C            2.710494648981     0.378544560052    -0.056866378181    12.000000000000
         H            0.428142648981    -0.075508439948    -1.337825378181     1.007825032230
         H            0.273047648981     1.941135560052    -0.265980378181     1.007825032230
         H           -0.096624351019     1.118852560052     1.275754621819     1.007825032230
         H           -0.503654351019    -1.917429439948     0.649248621819     1.007825032230
         H           -0.908687351019    -1.793783439948    -1.073464378181     1.007825032230
         H           -1.895709351019     1.201854560052    -1.218345378181     1.007825032230
         H           -2.333494351019     1.745783560052     0.403575621819     1.007825032230
         H           -2.280913351019    -0.509972439948     1.291720621819     1.007825032230
         H           -2.959896351019    -0.808482439948    -0.308500378181     1.007825032230
         H            1.444749648981    -0.724934439948     1.332725621819     1.007825032230
         H            1.830068648981    -1.601590439948    -0.160703378181     1.007825032230
         H            2.826090648981     0.523131560052    -1.135159378181     1.007825032230
         H            2.542060648981     1.346379560052     0.418600621819     1.007825032230
         H            3.655786648981    -0.016200439948     0.322897621819     1.007825032230

  Basis Set: AUG-CC-PVTZ
    Blend: AUG-CC-PVTZ
  Basis Set: (AUG-CC-PVTZ AUX)
    Blend: AUG-CC-PVTZ-JKFIT
	 Reference Energy          =    -289.6984999077895964 [Eh]
	 Singles Energy            =      -0.0000000000000000 [Eh]
	 Same-Spin Energy          =      -0.3033291209425008 [Eh]
	 Opposite-Spin Energy      =      -1.0935800471022386 [Eh]
	 Correlation Energy        =      -1.3969091680447394 [Eh]
	 Total Energy              =    -291.0954090758343114 [Eh]

	 ================> DF-SCS-MP2 Energies <==================
	-----------------------------------------------------------
	 SCS Same-Spin Scale       =       0.3333333333333333 [-]
	 SCS Opposite-Spin Scale   =       1.2000000000000000 [-]
	 SCS Same-Spin Energy      =      -0.1011097069808336 [Eh]
	 SCS Opposite-Spin Energy  =      -1.3122960565226862 [Eh]
	 SCS Correlation Energy    =      -1.4134057635035198 [Eh]
	 SCS Total Energy          =    -291.1119056712931297 [Eh]
	-----------------------------------------------------------

  Dipole Moment: [D]
     X:     1.0089      Y:    -0.5015      Z:    -0.6629     Total:     1.3073

*** Psi4 exiting successfully. Buy a developer a beer!
