                               Psi4 1.4a3.dev225

  ==> Input File <==

--------------------------------------------------------------------------
#psi4
#
memory 32 gb

molecule  {
1 1
  N        0.2769550    -0.2036720    -0.3241330
  C       -0.2734970     1.1052870     0.1974480
  C       -0.8318510    -1.2416080    -0.1373660
  C       -1.7487720     1.0080340    -0.1478690
  C       -2.0899640    -0.4391570     0.2222400
  C        1.5838396    -0.6172330     0.2524584
  C        2.7021640     0.3718760    -0.0544870
  H        0.4198120    -0.0821770    -1.3354460
  H        0.2647170     1.9344670    -0.2636010
  H       -0.1049550     1.1121840     1.2781340
  H       -0.5119850    -1.9240980     0.6516280
  H       -0.9170180    -1.8004520    -1.0710850
  H       -1.9040400     1.1951860    -1.2159660
  H       -2.3418250     1.7391150     0.4059550
  H       -2.2892440    -0.5166410     1.2941000
  H       -2.9682270    -0.8151510    -0.3061210
  H        1.4364190    -0.7316030     1.3351050
  H        1.8217380    -1.6082590    -0.1583240
  H        2.8177600     0.5164630    -1.1327800
  H        2.5337300     1.3397110     0.4209800
  H        3.6474560    -0.0228690     0.3252770
units angstrom
no_reorient  #important for SAPT in psi4, default
symmetry c1  #important for SAPT in psi4, default
}

set PROPERTIES_ORIGIN ["COM"]
properties('MP2/aug-cc-pvtz', properties = ['dipole'])
--------------------------------------------------------------------------

    Molecular point group: c1
  Charge       = 1
  Multiplicity = 1
  Basis Set: AUG-CC-PVTZ
    Blend: AUG-CC-PVTZ
  Basis Set: (AUG-CC-PVTZ AUX)
    Blend: AUG-CC-PVTZ-JKFIT

    Orbital Energies [Eh]
    ---------------------

    Doubly Occupied:

       1A    -15.851454     2A    -11.451195     3A    -11.450505
       4A    -11.450436     5A    -11.393803     6A    -11.391880
       7A    -11.381434     8A     -1.495125     9A     -1.260531
      10A     -1.183127    11A     -1.174548    12A     -1.041351
      13A     -1.025526    14A     -0.982255    15A     -0.903804
      16A     -0.855540    17A     -0.825447    18A     -0.785206
      19A     -0.773390    20A     -0.762797    21A     -0.729760
      22A     -0.694261    23A     -0.686538    24A     -0.682461
      25A     -0.669820    26A     -0.662823    27A     -0.657010
      28A     -0.643432

  @DF-RHF Final Energy:  -289.70591910180156

   => Energetics <=

    Nuclear Repulsion Energy =            340.3203718735486518
    One-Electron Energy =               -1054.3216624002013759
    Two-Electron Energy =                 424.2953714248511687
    Total Energy =                       -289.7059191018015554
  Basis Set: (AUG-CC-PVTZ AUX)
    Blend: AUG-CC-PVTZ-RI
    Molecular point group: c1

    Geometry (in Angstrom), charge = 1, multiplicity = 1:

       Center              X                  Y                   Z               Mass
    ------------   -----------------  -----------------  -----------------  -----------------
         N            0.297926420381    -0.201003586805    -0.320935335295    14.003074004430
         C           -0.252525579619     1.107955413195     0.200645664705    12.000000000000
         C           -0.810879579619    -1.238939586805    -0.134168335295    12.000000000000
         C           -1.727800579619     1.010702413195    -0.144671335295    12.000000000000
         C           -2.068992579619    -0.436488586805     0.225437664705    12.000000000000
         C            1.604811020381    -0.614564586805     0.255656064705    12.000000000000
         C            2.723135420381     0.374544413195    -0.051289335295    12.000000000000
         H            0.440783420381    -0.079508586805    -1.332248335295     1.007825032230
         H            0.285688420381     1.937135413195    -0.260403335295     1.007825032230
         H           -0.083983579619     1.114852413195     1.281331664705     1.007825032230
         H           -0.491013579619    -1.921429586805     0.654825664705     1.007825032230
         H           -0.896046579619    -1.797783586805    -1.067887335295     1.007825032230
         H           -1.883068579619     1.197854413195    -1.212768335295     1.007825032230
         H           -2.320853579619     1.741783413195     0.409152664705     1.007825032230
         H           -2.268272579619    -0.513972586805     1.297297664705     1.007825032230
         H           -2.947255579619    -0.812482586805    -0.302923335295     1.007825032230
         H            1.457390420381    -0.728934586805     1.338302664705     1.007825032230
         H            1.842709420381    -1.605590586805    -0.155126335295     1.007825032230
         H            2.838731420381     0.519131413195    -1.129582335295     1.007825032230
         H            2.554701420381     1.342379413195     0.424177664705     1.007825032230
         H            3.668427420381    -0.020200586805     0.328474664705     1.007825032230

  Basis Set: AUG-CC-PVTZ
    Blend: AUG-CC-PVTZ
  Basis Set: (AUG-CC-PVTZ AUX)
    Blend: AUG-CC-PVTZ-JKFIT
	 Reference Energy          =    -289.7059191018015554 [Eh]
	 Singles Energy            =      -0.0000000000000000 [Eh]
	 Same-Spin Energy          =      -0.3032959461430104 [Eh]
	 Opposite-Spin Energy      =      -1.0927106501815915 [Eh]
	 Correlation Energy        =      -1.3960065963246020 [Eh]
	 Total Energy              =    -291.1019256981261378 [Eh]

	 ================> DF-SCS-MP2 Energies <==================
	-----------------------------------------------------------
	 SCS Same-Spin Scale       =       0.3333333333333333 [-]
	 SCS Opposite-Spin Scale   =       1.2000000000000000 [-]
	 SCS Same-Spin Energy      =      -0.1010986487143368 [Eh]
	 SCS Opposite-Spin Energy  =      -1.3112527802179097 [Eh]
	 SCS Correlation Energy    =      -1.4123514289322465 [Eh]
	 SCS Total Energy          =    -291.1182705307338097 [Eh]
	-----------------------------------------------------------

  Dipole Moment: [D]
     X:     0.6806      Y:    -0.4702      Z:    -0.7111     Total:     1.0909

*** Psi4 exiting successfully. Buy a developer a beer!
