                               Psi4 1.3.2 release

  ==> Input File <==

--------------------------------------------------------------------------
#psi4
#
memory 32 gb

molecule  {
1 1
  N        0.2769550    -0.2036720    -0.3241330
  C       -0.2734970     1.1052870     0.1974480
  C       -0.8390336    -1.2503260    -0.2971407
  C       -1.7487720     1.0080340    -0.1478690
  C       -2.0899640    -0.4391570     0.2222400
  C        1.6014160    -0.6227950     0.2602130
  C        2.7021640     0.3718760    -0.0544870
  H        0.4198120    -0.0821770    -1.3354460
  H        0.2647170     1.9344670    -0.2636010
  H       -0.1049550     1.1121840     1.2781340
  H       -0.5119850    -1.9240980     0.6516280
  H       -0.9170180    -1.8004520    -1.0710850
  H       -1.9040400     1.1951860    -1.2159660
  H       -2.3418250     1.7391150     0.4059550
  H       -2.2892440    -0.5166410     1.2941000
  H       -2.9682270    -0.8151510    -0.3061210
  H        1.4364190    -0.7316030     1.3351050
  H        1.8217380    -1.6082590    -0.1583240
  H        2.8177600     0.5164630    -1.1327800
  H        2.5337300     1.3397110     0.4209800
  H        3.6474560    -0.0228690     0.3252770
units angstrom
no_reorient  #important for SAPT in psi4, default
symmetry c1  #important for SAPT in psi4, default
}

set PROPERTIES_ORIGIN ["COM"]
properties('MP2/aug-cc-pvtz', properties = ['dipole'])
--------------------------------------------------------------------------

    Molecular point group: c1
  Charge       = 1
  Multiplicity = 1
  Basis Set: AUG-CC-PVTZ
    Blend: AUG-CC-PVTZ
  Basis Set: (AUG-CC-PVTZ AUX)
    Blend: AUG-CC-PVTZ-JKFIT

    Orbital Energies [Eh]
    ---------------------

    Doubly Occupied:

       1A    -15.851002     2A    -11.451759     3A    -11.451172
       4A    -11.450433     5A    -11.395821     6A    -11.392685
       7A    -11.381843     8A     -1.490881     9A     -1.256566
      10A     -1.187238    11A     -1.173019    12A     -1.044163
      13A     -1.020141    14A     -0.986038    15A     -0.912791
      16A     -0.849942    17A     -0.831835    18A     -0.785307
      19A     -0.774580    20A     -0.756051    21A     -0.730280
      22A     -0.701091    23A     -0.685865    24A     -0.681342
      25A     -0.668434    26A     -0.660286    27A     -0.657786
      28A     -0.628586

  @DF-RHF Final Energy:  -289.67276886506033

   => Energetics <=

    Nuclear Repulsion Energy =            339.4695234656964544
    One-Electron Energy =               -1052.5707056038036171
    Two-Electron Energy =                 423.4284132730467718
    Total Energy =                       -289.6727688650603341
  Basis Set: (AUG-CC-PVTZ AUX)
    Blend: AUG-CC-PVTZ-RI
    Molecular point group: c1

    Geometry (in Angstrom), charge = 1, multiplicity = 1:

       Center              X                  Y                   Z               Mass
    ------------   -----------------  -----------------  -----------------  -----------------
         N            0.296680567516    -0.199291914566    -0.302713445599    14.003074004430
         C           -0.253771432484     1.109667085434     0.218867554401    12.000000000000
         C           -0.819308032484    -1.245945914566    -0.275721145599    12.000000000000
         C           -1.729046432484     1.012414085434    -0.126449445599    12.000000000000
         C           -2.070238432484    -0.434776914566     0.243659554401    12.000000000000
         C            1.621141567516    -0.618414914566     0.281632554401    12.000000000000
         C            2.721889567516     0.376256085434    -0.033067445599    12.000000000000
         H            0.439537567516    -0.077796914566    -1.314026445599     1.007825032230
         H            0.284442567516     1.938847085434    -0.242181445599     1.007825032230
         H           -0.085229432484     1.116564085434     1.299553554401     1.007825032230
         H           -0.492259432484    -1.919717914566     0.673047554401     1.007825032230
         H           -0.897292432484    -1.796071914566    -1.049665445599     1.007825032230
         H           -1.884314432484     1.199566085434    -1.194546445599     1.007825032230
         H           -2.322099432484     1.743495085434     0.427374554401     1.007825032230
         H           -2.269518432484    -0.512260914566     1.315519554401     1.007825032230
         H           -2.948501432484    -0.810770914566    -0.284701445599     1.007825032230
         H            1.456144567516    -0.727222914566     1.356524554401     1.007825032230
         H            1.841463567516    -1.603878914566    -0.136904445599     1.007825032230
         H            2.837485567516     0.520843085434    -1.111360445599     1.007825032230
         H            2.553455567516     1.344091085434     0.442399554401     1.007825032230
         H            3.667181567516    -0.018488914566     0.346696554401     1.007825032230

  Basis Set: AUG-CC-PVTZ
    Blend: AUG-CC-PVTZ
  Basis Set: (AUG-CC-PVTZ AUX)
    Blend: AUG-CC-PVTZ-JKFIT
	 Reference Energy          =    -289.6727688650603341 [Eh]
	 Singles Energy            =      -0.0000000000000000 [Eh]
	 Same-Spin Energy          =      -0.3036418983372016 [Eh]
	 Opposite-Spin Energy      =      -1.0942283487181030 [Eh]
	 Correlation Energy        =      -1.3978702470553046 [Eh]
	 Total Energy              =    -291.0706391121156571 [Eh]

	 ================> DF-SCS-MP2 Energies <==================
	-----------------------------------------------------------
	 SCS Same-Spin Scale       =       0.3333333333333333 [-]
	 SCS Opposite-Spin Scale   =       1.2000000000000000 [-]
	 SCS Same-Spin Energy      =      -0.1012139661124005 [Eh]
	 SCS Opposite-Spin Energy  =      -1.3130740184617236 [Eh]
	 SCS Correlation Energy    =      -1.4142879845741241 [Eh]
	 SCS Total Energy          =    -291.0870568496344504 [Eh]
	-----------------------------------------------------------

  Dipole Moment: [D]
     X:     0.7358      Y:    -0.4305      Z:    -0.7110     Total:     1.1101

*** Psi4 exiting successfully. Buy a developer a beer!
