                               Psi4 1.4a3.dev225

  ==> Input File <==

--------------------------------------------------------------------------
#psi4
#
memory 32 gb

molecule  {
1 1
  N        0.2769550    -0.2036720    -0.3241330
  C       -0.2734970     1.1052870     0.1974480
  C       -0.8318510    -1.2416080    -0.1373660
  C       -1.7487720     1.0080340    -0.1478690
  C       -2.0899640    -0.4391570     0.2222400
  C        1.6014160    -0.6227950     0.2602130
  C        2.7021640     0.3718760    -0.0544870
  H        0.4267566    -0.0762709    -1.3846079
  H        0.2647170     1.9344670    -0.2636010
  H       -0.1049550     1.1121840     1.2781340
  H       -0.5119850    -1.9240980     0.6516280
  H       -0.9170180    -1.8004520    -1.0710850
  H       -1.9040400     1.1951860    -1.2159660
  H       -2.3418250     1.7391150     0.4059550
  H       -2.2892440    -0.5166410     1.2941000
  H       -2.9682270    -0.8151510    -0.3061210
  H        1.4364190    -0.7316030     1.3351050
  H        1.8217380    -1.6082590    -0.1583240
  H        2.8177600     0.5164630    -1.1327800
  H        2.5337300     1.3397110     0.4209800
  H        3.6474560    -0.0228690     0.3252770
units angstrom
no_reorient  #important for SAPT in psi4, default
symmetry c1  #important for SAPT in psi4, default
}

set PROPERTIES_ORIGIN ["COM"]
properties('MP2/aug-cc-pvtz', properties = ['dipole'])
--------------------------------------------------------------------------

    Molecular point group: c1
  Charge       = 1
  Multiplicity = 1
  Basis Set: AUG-CC-PVTZ
    Blend: AUG-CC-PVTZ
  Basis Set: (AUG-CC-PVTZ AUX)
    Blend: AUG-CC-PVTZ-JKFIT

    Orbital Energies [Eh]
    ---------------------

    Doubly Occupied:

       1A    -15.853833     2A    -11.451204     3A    -11.450069
       4A    -11.449381     5A    -11.392956     6A    -11.391051
       7A    -11.381397     8A     -1.485027     9A     -1.258317
      10A     -1.182098    11A     -1.174052    12A     -1.039824
      13A     -1.016880    14A     -0.980803    15A     -0.899258
      16A     -0.853095    17A     -0.823956    18A     -0.784269
      19A     -0.771606    20A     -0.761249    21A     -0.729209
      22A     -0.691583    23A     -0.689217    24A     -0.679136
      25A     -0.670685    26A     -0.663302    27A     -0.656827
      28A     -0.642624

  @DF-RHF Final Energy:  -289.70242250765978

   => Energetics <=

    Nuclear Repulsion Energy =            339.7381508021848617
    One-Electron Energy =               -1053.2353313551889187
    Two-Electron Energy =                 423.7947580453442242
    Total Energy =                       -289.7024225076597759
  Basis Set: (AUG-CC-PVTZ AUX)
    Blend: AUG-CC-PVTZ-RI
    Molecular point group: c1

    Geometry (in Angstrom), charge = 1, multiplicity = 1:

       Center              X                  Y                   Z               Mass
    ------------   -----------------  -----------------  -----------------  -----------------
         N            0.295749714467    -0.200396353852    -0.321369931899    14.003074004430
         C           -0.254702285533     1.108562646148     0.200211068101    12.000000000000
         C           -0.813056285533    -1.238332353852    -0.134602931899    12.000000000000
         C           -1.729977285533     1.011309646148    -0.145105931899    12.000000000000
         C           -2.071169285533    -0.435881353852     0.225003068101    12.000000000000
         C            1.620210714467    -0.619519353852     0.262976068101    12.000000000000
         C            2.720958714467     0.375151646148    -0.051723931899    12.000000000000
         H            0.445551314467    -0.072995253852    -1.381844831899     1.007825032230
         H            0.283511714467     1.937742646148    -0.260837931899     1.007825032230
         H           -0.086160285533     1.115459646148     1.280897068101     1.007825032230
         H           -0.493190285533    -1.920822353852     0.654391068101     1.007825032230
         H           -0.898223285533    -1.797176353852    -1.068321931899     1.007825032230
         H           -1.885245285533     1.198461646148    -1.213202931899     1.007825032230
         H           -2.323030285533     1.742390646148     0.408718068101     1.007825032230
         H           -2.270449285533    -0.513365353852     1.296863068101     1.007825032230
         H           -2.949432285533    -0.811875353852    -0.303357931899     1.007825032230
         H            1.455213714467    -0.728327353852     1.337868068101     1.007825032230
         H            1.840532714467    -1.604983353852    -0.155560931899     1.007825032230
         H            2.836554714467     0.519738646148    -1.130016931899     1.007825032230
         H            2.552524714467     1.342986646148     0.423743068101     1.007825032230
         H            3.666250714467    -0.019593353852     0.328040068101     1.007825032230

  Basis Set: AUG-CC-PVTZ
    Blend: AUG-CC-PVTZ
  Basis Set: (AUG-CC-PVTZ AUX)
    Blend: AUG-CC-PVTZ-JKFIT
	 Reference Energy          =    -289.7024225076597759 [Eh]
	 Singles Energy            =      -0.0000000000000000 [Eh]
	 Same-Spin Energy          =      -0.3036395583639676 [Eh]
	 Opposite-Spin Energy      =      -1.0938590404915094 [Eh]
	 Correlation Energy        =      -1.3974985988554769 [Eh]
	 Total Energy              =    -291.0999211065152394 [Eh]

	 ================> DF-SCS-MP2 Energies <==================
	-----------------------------------------------------------
	 SCS Same-Spin Scale       =       0.3333333333333333 [-]
	 SCS Opposite-Spin Scale   =       1.2000000000000000 [-]
	 SCS Same-Spin Energy      =      -0.1012131861213225 [Eh]
	 SCS Opposite-Spin Energy  =      -1.3126308485898113 [Eh]
	 SCS Correlation Energy    =      -1.4138440347111338 [Eh]
	 SCS Total Energy          =    -291.1162665423709086 [Eh]
	-----------------------------------------------------------

  Dipole Moment: [D]
     X:     0.7390      Y:    -0.4721      Z:    -0.7506     Total:     1.1543

*** Psi4 exiting successfully. Buy a developer a beer!
