                               Psi4 1.3.2 release

  ==> Input File <==

--------------------------------------------------------------------------
#psi4
#
memory 32 gb

molecule  {
1 1
  N        0.3110138    -0.1764255    -0.3538940
  C       -0.2734970     1.1052870     0.1974480
  C       -0.8318510    -1.2416080    -0.1373660
  C       -1.7487720     1.0080340    -0.1478690
  C       -2.0899640    -0.4391570     0.2222400
  C        1.6014160    -0.6227950     0.2602130
  C        2.7021640     0.3718760    -0.0544870
  H        0.4198120    -0.0821770    -1.3354460
  H        0.2647170     1.9344670    -0.2636010
  H       -0.1049550     1.1121840     1.2781340
  H       -0.5119850    -1.9240980     0.6516280
  H       -0.9170180    -1.8004520    -1.0710850
  H       -1.9040400     1.1951860    -1.2159660
  H       -2.3418250     1.7391150     0.4059550
  H       -2.2892440    -0.5166410     1.2941000
  H       -2.9682270    -0.8151510    -0.3061210
  H        1.4364190    -0.7316030     1.3351050
  H        1.8217380    -1.6082590    -0.1583240
  H        2.8177600     0.5164630    -1.1327800
  H        2.5337300     1.3397110     0.4209800
  H        3.6474560    -0.0228690     0.3252770
units angstrom
no_reorient  #important for SAPT in psi4, default
symmetry c1  #important for SAPT in psi4, default
}

set PROPERTIES_ORIGIN ["COM"]
properties('MP2/aug-cc-pvtz', properties = ['dipole'])
--------------------------------------------------------------------------

    Molecular point group: c1
  Charge       = 1
  Multiplicity = 1
  Basis Set: AUG-CC-PVTZ
    Blend: AUG-CC-PVTZ
  Basis Set: (AUG-CC-PVTZ AUX)
    Blend: AUG-CC-PVTZ-JKFIT

    Orbital Energies [Eh]
    ---------------------

    Doubly Occupied:

       1A    -15.846343     2A    -11.454605     3A    -11.450036
       4A    -11.449609     5A    -11.394031     6A    -11.392489
       7A    -11.379415     8A     -1.488673     9A     -1.260344
      10A     -1.179620    11A     -1.176251    12A     -1.039555
      13A     -1.031864    14A     -0.979876    15A     -0.898633
      16A     -0.853328    17A     -0.826990    18A     -0.785437
      19A     -0.779251    20A     -0.758705    21A     -0.729343
      22A     -0.696597    23A     -0.687853    24A     -0.676938
      25A     -0.670649    26A     -0.662794    27A     -0.656551
      28A     -0.643728

  @DF-RHF Final Energy:  -289.70406290935415

   => Energetics <=

    Nuclear Repulsion Energy =            339.6818511607838786
    One-Electron Energy =               -1053.0728067573302269
    Two-Electron Energy =                 423.6868926871921417
    Total Energy =                       -289.7040629093541497
  Basis Set: (AUG-CC-PVTZ AUX)
    Blend: AUG-CC-PVTZ-RI
    Molecular point group: c1

    Geometry (in Angstrom), charge = 1, multiplicity = 1:

       Center              X                  Y                   Z               Mass
    ------------   -----------------  -----------------  -----------------  -----------------
         N            0.325114511510    -0.176901453038    -0.347463073884    14.003074004430
         C           -0.259396288490     1.104811046962     0.203878926116    12.000000000000
         C           -0.817750288490    -1.242083953038    -0.130935073884    12.000000000000
         C           -1.734671288490     1.007558046962    -0.141438073884    12.000000000000
         C           -2.075863288490    -0.439632953038     0.228670926116    12.000000000000
         C            1.615516711510    -0.623270953038     0.266643926116    12.000000000000
         C            2.716264711510     0.371400046962    -0.048056073884    12.000000000000
         H            0.433912711510    -0.082652953038    -1.329015073884     1.007825032230
         H            0.278817711510     1.933991046962    -0.257170073884     1.007825032230
         H           -0.090854288490     1.111708046962     1.284564926116     1.007825032230
         H           -0.497884288490    -1.924573953038     0.658058926116     1.007825032230
         H           -0.902917288490    -1.800927953038    -1.064654073884     1.007825032230
         H           -1.889939288490     1.194710046962    -1.209535073884     1.007825032230
         H           -2.327724288490     1.738639046962     0.412385926116     1.007825032230
         H           -2.275143288490    -0.517116953038     1.300530926116     1.007825032230
         H           -2.954126288490    -0.815626953038    -0.299690073884     1.007825032230
         H            1.450519711510    -0.732078953038     1.341535926116     1.007825032230
         H            1.835838711510    -1.608734953038    -0.151893073884     1.007825032230
         H            2.831860711510     0.515987046962    -1.126349073884     1.007825032230
         H            2.547830711510     1.339235046962     0.427410926116     1.007825032230
         H            3.661556711510    -0.023344953038     0.331707926116     1.007825032230

  Basis Set: AUG-CC-PVTZ
    Blend: AUG-CC-PVTZ
  Basis Set: (AUG-CC-PVTZ AUX)
    Blend: AUG-CC-PVTZ-JKFIT
	 Reference Energy          =    -289.7040629093541497 [Eh]
	 Singles Energy            =      -0.0000000000000000 [Eh]
	 Same-Spin Energy          =      -0.3029156617561649 [Eh]
	 Opposite-Spin Energy      =      -1.0924239952817634 [Eh]
	 Correlation Energy        =      -1.3953396570379284 [Eh]
	 Total Energy              =    -291.0994025663920866 [Eh]

	 ================> DF-SCS-MP2 Energies <==================
	-----------------------------------------------------------
	 SCS Same-Spin Scale       =       0.3333333333333333 [-]
	 SCS Opposite-Spin Scale   =       1.2000000000000000 [-]
	 SCS Same-Spin Energy      =      -0.1009718872520550 [Eh]
	 SCS Opposite-Spin Energy  =      -1.3109087943381159 [Eh]
	 SCS Correlation Energy    =      -1.4118806815901710 [Eh]
	 SCS Total Energy          =    -291.1159435909443118 [Eh]
	-----------------------------------------------------------

  Dipole Moment: [D]
     X:     0.6209      Y:    -0.5306      Z:    -0.6618     Total:     1.0512

*** Psi4 exiting successfully. Buy a developer a beer!
