                               Psi4 1.3.2 release

  ==> Input File <==

--------------------------------------------------------------------------
#psi4
#
memory 32 gb

molecule  {
1 1
  N        0.2769550    -0.2036720    -0.3241330
  C       -0.2734970     1.1052870     0.1974480
  C       -0.8318510    -1.2416080    -0.1373660
  C       -1.7487720     1.0080340    -0.1478690
  C       -2.0899640    -0.4391570     0.2222400
  C        1.6120917    -0.6217161     0.2361977
  C        2.7021640     0.3718760    -0.0544870
  H        0.4198120    -0.0821770    -1.3354460
  H        0.2647170     1.9344670    -0.2636010
  H       -0.1049550     1.1121840     1.2781340
  H       -0.5119850    -1.9240980     0.6516280
  H       -0.9170180    -1.8004520    -1.0710850
  H       -1.9040400     1.1951860    -1.2159660
  H       -2.3418250     1.7391150     0.4059550
  H       -2.2892440    -0.5166410     1.2941000
  H       -2.9682270    -0.8151510    -0.3061210
  H        1.4364190    -0.7316030     1.3351050
  H        1.8217380    -1.6082590    -0.1583240
  H        2.8177600     0.5164630    -1.1327800
  H        2.5337300     1.3397110     0.4209800
  H        3.6474560    -0.0228690     0.3252770
units angstrom
no_reorient  #important for SAPT in psi4, default
symmetry c1  #important for SAPT in psi4, default
}

set PROPERTIES_ORIGIN ["COM"]
properties('MP2/aug-cc-pvtz', properties = ['dipole'])
--------------------------------------------------------------------------

    Molecular point group: c1
  Charge       = 1
  Multiplicity = 1
  Basis Set: AUG-CC-PVTZ
    Blend: AUG-CC-PVTZ
  Basis Set: (AUG-CC-PVTZ AUX)
    Blend: AUG-CC-PVTZ-JKFIT

    Orbital Energies [Eh]
    ---------------------

    Doubly Occupied:

       1A    -15.849932     2A    -11.452151     3A    -11.450659
       4A    -11.449837     5A    -11.393332     6A    -11.391460
       7A    -11.381207     8A     -1.490884     9A     -1.260078
      10A     -1.184163    11A     -1.176531    12A     -1.040483
      13A     -1.022974    14A     -0.981301    15A     -0.902801
      16A     -0.853920    17A     -0.825101    18A     -0.784683
      19A     -0.771863    20A     -0.763464    21A     -0.730408
      22A     -0.694888    23A     -0.689818    24A     -0.679284
      25A     -0.667968    26A     -0.665377    27A     -0.657373
      28A     -0.643098

  @DF-RHF Final Energy:  -289.70516443433149

   => Energetics <=

    Nuclear Repulsion Energy =            340.0564139054486077
    One-Electron Energy =               -1053.8130817341241254
    Two-Electron Energy =                 424.0515033943440244
    Total Energy =                       -289.7051644343314933
  Basis Set: (AUG-CC-PVTZ AUX)
    Blend: AUG-CC-PVTZ-RI
    Molecular point group: c1

    Geometry (in Angstrom), charge = 1, multiplicity = 1:

       Center              X                  Y                   Z               Mass
    ------------   -----------------  -----------------  -----------------  -----------------
         N            0.294539982338    -0.200466220011    -0.318986246446    14.003074004430
         C           -0.255912017662     1.108492779989     0.202594753554    12.000000000000
         C           -0.814266017662    -1.238402220011    -0.132219246446    12.000000000000
         C           -1.731187017662     1.011239779989    -0.142722246446    12.000000000000
         C           -2.072379017662    -0.435951220011     0.227386753554    12.000000000000
         C            1.629676682338    -0.618510320011     0.241344453554    12.000000000000
         C            2.719748982338     0.375081779989    -0.049340246446    12.000000000000
         H            0.437396982338    -0.078971220011    -1.330299246446     1.007825032230
         H            0.282301982338     1.937672779989    -0.258454246446     1.007825032230
         H           -0.087370017662     1.115389779989     1.283280753554     1.007825032230
         H           -0.494400017662    -1.920892220011     0.656774753554     1.007825032230
         H           -0.899433017662    -1.797246220011    -1.065938246446     1.007825032230
         H           -1.886455017662     1.198391779989    -1.210819246446     1.007825032230
         H           -2.324240017662     1.742320779989     0.411101753554     1.007825032230
         H           -2.271659017662    -0.513435220011     1.299246753554     1.007825032230
         H           -2.950642017662    -0.811945220011    -0.300974246446     1.007825032230
         H            1.454003982338    -0.728397220011     1.340251753554     1.007825032230
         H            1.839322982338    -1.605053220011    -0.153177246446     1.007825032230
         H            2.835344982338     0.519668779989    -1.127633246446     1.007825032230
         H            2.551314982338     1.342916779989     0.426126753554     1.007825032230
         H            3.665040982338    -0.019663220011     0.330423753554     1.007825032230

  Basis Set: AUG-CC-PVTZ
    Blend: AUG-CC-PVTZ
  Basis Set: (AUG-CC-PVTZ AUX)
    Blend: AUG-CC-PVTZ-JKFIT
	 Reference Energy          =    -289.7051644343314933 [Eh]
	 Singles Energy            =      -0.0000000000000000 [Eh]
	 Same-Spin Energy          =      -0.3033797332088571 [Eh]
	 Opposite-Spin Energy      =      -1.0928933831436494 [Eh]
	 Correlation Energy        =      -1.3962731163525064 [Eh]
	 Total Energy              =    -291.1014375506840111 [Eh]

	 ================> DF-SCS-MP2 Energies <==================
	-----------------------------------------------------------
	 SCS Same-Spin Scale       =       0.3333333333333333 [-]
	 SCS Opposite-Spin Scale   =       1.2000000000000000 [-]
	 SCS Same-Spin Energy      =      -0.1011265777362857 [Eh]
	 SCS Opposite-Spin Energy  =      -1.3114720597723792 [Eh]
	 SCS Correlation Energy    =      -1.4125986375086650 [Eh]
	 SCS Total Energy          =    -291.1177630718401588 [Eh]
	-----------------------------------------------------------

  Dipole Moment: [D]
     X:     0.7319      Y:    -0.4720      Z:    -0.7075     Total:     1.1220

*** Psi4 exiting successfully. Buy a developer a beer!
