                               Psi4 1.3.2 release

  ==> Input File <==

--------------------------------------------------------------------------
#psi4
#
memory 32 gb

molecule  {
1 1
  N        0.3720705    -0.1729894    -0.2900660
  C       -0.2734970     1.1052870     0.1974480
  C       -0.8318510    -1.2416080    -0.1373660
  C       -1.7487720     1.0080340    -0.1478690
  C       -2.0899640    -0.4391570     0.2222400
  C        1.6014160    -0.6227950     0.2602130
  C        2.7021640     0.3718760    -0.0544870
  H        0.4198120    -0.0821770    -1.3354460
  H        0.2647170     1.9344670    -0.2636010
  H       -0.1049550     1.1121840     1.2781340
  H       -0.5119850    -1.9240980     0.6516280
  H       -0.9170180    -1.8004520    -1.0710850
  H       -1.9040400     1.1951860    -1.2159660
  H       -2.3418250     1.7391150     0.4059550
  H       -2.2892440    -0.5166410     1.2941000
  H       -2.9682270    -0.8151510    -0.3061210
  H        1.4364190    -0.7316030     1.3351050
  H        1.8217380    -1.6082590    -0.1583240
  H        2.8177600     0.5164630    -1.1327800
  H        2.5337300     1.3397110     0.4209800
  H        3.6474560    -0.0228690     0.3252770
units angstrom
no_reorient  #important for SAPT in psi4, default
symmetry c1  #important for SAPT in psi4, default
}

set PROPERTIES_ORIGIN ["COM"]
properties('MP2/aug-cc-pvtz', properties = ['dipole'])
--------------------------------------------------------------------------

    Molecular point group: c1
  Charge       = 1
  Multiplicity = 1
  Basis Set: AUG-CC-PVTZ
    Blend: AUG-CC-PVTZ
  Basis Set: (AUG-CC-PVTZ AUX)
    Blend: AUG-CC-PVTZ-JKFIT

    Orbital Energies [Eh]
    ---------------------

    Doubly Occupied:

       1A    -15.849887     2A    -11.459156     3A    -11.450574
       4A    -11.442489     5A    -11.397000     6A    -11.395321
       7A    -11.377008     8A     -1.491506     9A     -1.267880
      10A     -1.176543    11A     -1.173556    12A     -1.048417
      13A     -1.021507    14A     -0.982592    15A     -0.894038
      16A     -0.858446    17A     -0.830767    18A     -0.783964
      19A     -0.774195    20A     -0.761886    21A     -0.734994
      22A     -0.691878    23A     -0.687734    24A     -0.675489
      25A     -0.669691    26A     -0.660554    27A     -0.654542
      28A     -0.645826

  @DF-RHF Final Energy:  -289.69443903693559

   => Energetics <=

    Nuclear Repulsion Energy =            339.9506864134332318
    One-Electron Energy =               -1053.5753706034345214
    Two-Electron Energy =                 423.9302451530656981
    Total Energy =                       -289.6944390369355915
  Basis Set: (AUG-CC-PVTZ AUX)
    Blend: AUG-CC-PVTZ-RI
    Molecular point group: c1

    Geometry (in Angstrom), charge = 1, multiplicity = 1:

       Center              X                  Y                   Z               Mass
    ------------   -----------------  -----------------  -----------------  -----------------
         N            0.377631014974    -0.173945971370    -0.292562901043    14.003074004430
         C           -0.267936485026     1.104330428630     0.194951098957    12.000000000000
         C           -0.826290485026    -1.242564571370    -0.139862901043    12.000000000000
         C           -1.743211485026     1.007077428630    -0.150365901043    12.000000000000
         C           -2.084403485026    -0.440113571370     0.219743098957    12.000000000000
         C            1.606976514974    -0.623751571370     0.257716098957    12.000000000000
         C            2.707724514974     0.370919428630    -0.056983901043    12.000000000000
         H            0.425372514974    -0.083133571370    -1.337942901043     1.007825032230
         H            0.270277514974     1.933510428630    -0.266097901043     1.007825032230
         H           -0.099394485026     1.111227428630     1.275637098957     1.007825032230
         H           -0.506424485026    -1.925054571370     0.649131098957     1.007825032230
         H           -0.911457485026    -1.801408571370    -1.073581901043     1.007825032230
         H           -1.898479485026     1.194229428630    -1.218462901043     1.007825032230
         H           -2.336264485026     1.738158428630     0.403458098957     1.007825032230
         H           -2.283683485026    -0.517597571370     1.291603098957     1.007825032230
         H           -2.962666485026    -0.816107571370    -0.308617901043     1.007825032230
         H            1.441979514974    -0.732559571370     1.332608098957     1.007825032230
         H            1.827298514974    -1.609215571370    -0.160820901043     1.007825032230
         H            2.823320514974     0.515506428630    -1.135276901043     1.007825032230
         H            2.539290514974     1.338754428630     0.418483098957     1.007825032230
         H            3.653016514974    -0.023825571370     0.322780098957     1.007825032230

  Basis Set: AUG-CC-PVTZ
    Blend: AUG-CC-PVTZ
  Basis Set: (AUG-CC-PVTZ AUX)
    Blend: AUG-CC-PVTZ-JKFIT
	 Reference Energy          =    -289.6944390369355915 [Eh]
	 Singles Energy            =      -0.0000000000000000 [Eh]
	 Same-Spin Energy          =      -0.3040400124188318 [Eh]
	 Opposite-Spin Energy      =      -1.0941132116797596 [Eh]
	 Correlation Energy        =      -1.3981532240985914 [Eh]
	 Total Energy              =    -291.0925922610341559 [Eh]

	 ================> DF-SCS-MP2 Energies <==================
	-----------------------------------------------------------
	 SCS Same-Spin Scale       =       0.3333333333333333 [-]
	 SCS Opposite-Spin Scale   =       1.2000000000000000 [-]
	 SCS Same-Spin Energy      =      -0.1013466708062773 [Eh]
	 SCS Opposite-Spin Energy  =      -1.3129358540157114 [Eh]
	 SCS Correlation Energy    =      -1.4142825248219888 [Eh]
	 SCS Total Energy          =    -291.1087215617575907 [Eh]
	-----------------------------------------------------------

  Dipole Moment: [D]
     X:     0.4177      Y:    -0.5376      Z:    -0.7411     Total:     1.0063

*** Psi4 exiting successfully. Buy a developer a beer!
