                               Psi4 1.3.2 release

  ==> Input File <==

--------------------------------------------------------------------------
#psi4
#
memory 32 gb

molecule  {
1 1
  N        0.1791578    -0.2279775    -0.3556589
  C       -0.2734970     1.1052870     0.1974480
  C       -0.8318510    -1.2416080    -0.1373660
  C       -1.7487720     1.0080340    -0.1478690
  C       -2.0899640    -0.4391570     0.2222400
  C        1.6014160    -0.6227950     0.2602130
  C        2.7021640     0.3718760    -0.0544870
  H        0.4198120    -0.0821770    -1.3354460
  H        0.2647170     1.9344670    -0.2636010
  H       -0.1049550     1.1121840     1.2781340
  H       -0.5119850    -1.9240980     0.6516280
  H       -0.9170180    -1.8004520    -1.0710850
  H       -1.9040400     1.1951860    -1.2159660
  H       -2.3418250     1.7391150     0.4059550
  H       -2.2892440    -0.5166410     1.2941000
  H       -2.9682270    -0.8151510    -0.3061210
  H        1.4364190    -0.7316030     1.3351050
  H        1.8217380    -1.6082590    -0.1583240
  H        2.8177600     0.5164630    -1.1327800
  H        2.5337300     1.3397110     0.4209800
  H        3.6474560    -0.0228690     0.3252770
units angstrom
no_reorient  #important for SAPT in psi4, default
symmetry c1  #important for SAPT in psi4, default
}

set PROPERTIES_ORIGIN ["COM"]
properties('MP2/aug-cc-pvtz', properties = ['dipole'])
--------------------------------------------------------------------------

    Molecular point group: c1
  Charge       = 1
  Multiplicity = 1
  Basis Set: AUG-CC-PVTZ
    Blend: AUG-CC-PVTZ
  Basis Set: (AUG-CC-PVTZ AUX)
    Blend: AUG-CC-PVTZ-JKFIT

    Orbital Energies [Eh]
    ---------------------

    Doubly Occupied:

       1A    -15.847710     2A    -11.460667     3A    -11.449104
       4A    -11.441665     5A    -11.389535     6A    -11.387343
       7A    -11.386280     8A     -1.494714     9A     -1.250986
      10A     -1.192746    11A     -1.175942    12A     -1.033499
      13A     -1.025599    14A     -0.980434    15A     -0.910701
      16A     -0.851901    17A     -0.819287    18A     -0.791075
      19A     -0.773132    20A     -0.762269    21A     -0.728103
      22A     -0.702988    23A     -0.690266    24A     -0.677174
      25A     -0.662931    26A     -0.661325    27A     -0.655385
      28A     -0.639803

  @DF-RHF Final Energy:  -289.69563859733535

   => Energetics <=

    Nuclear Repulsion Energy =            340.2608079820242892
    One-Electron Energy =               -1054.2277642998562897
    Two-Electron Energy =                 424.2713177204966541
    Total Energy =                       -289.6956385973353463
  Basis Set: (AUG-CC-PVTZ AUX)
    Blend: AUG-CC-PVTZ-RI
    Molecular point group: c1

    Geometry (in Angstrom), charge = 1, multiplicity = 1:

       Center              X                  Y                   Z               Mass
    ------------   -----------------  -----------------  -----------------  -----------------
         N            0.211701633304    -0.221242709388    -0.348981111658    14.003074004430
         C           -0.240953166696     1.112021790612     0.204125788342    12.000000000000
         C           -0.799307166696    -1.234873209388    -0.130688211658    12.000000000000
         C           -1.716228166696     1.014768790612    -0.141191211658    12.000000000000
         C           -2.057420166696    -0.432422209388     0.228917788342    12.000000000000
         C            1.633959833304    -0.616060209388     0.266890788342    12.000000000000
         C            2.734707833304     0.378610790612    -0.047809211658    12.000000000000
         H            0.452355833304    -0.075442209388    -1.328768211658     1.007825032230
         H            0.297260833304     1.941201790612    -0.256923211658     1.007825032230
         H           -0.072411166696     1.118918790612     1.284811788342     1.007825032230
         H           -0.479441166696    -1.917363209388     0.658305788342     1.007825032230
         H           -0.884474166696    -1.793717209388    -1.064407211658     1.007825032230
         H           -1.871496166696     1.201920790612    -1.209288211658     1.007825032230
         H           -2.309281166696     1.745849790612     0.412632788342     1.007825032230
         H           -2.256700166696    -0.509906209388     1.300777788342     1.007825032230
         H           -2.935683166696    -0.808416209388    -0.299443211658     1.007825032230
         H            1.468962833304    -0.724868209388     1.341782788342     1.007825032230
         H            1.854281833304    -1.601524209388    -0.151646211658     1.007825032230
         H            2.850303833304     0.523197790612    -1.126102211658     1.007825032230
         H            2.566273833304     1.346445790612     0.427657788342     1.007825032230
         H            3.679999833304    -0.016134209388     0.331954788342     1.007825032230

  Basis Set: AUG-CC-PVTZ
    Blend: AUG-CC-PVTZ
  Basis Set: (AUG-CC-PVTZ AUX)
    Blend: AUG-CC-PVTZ-JKFIT
	 Reference Energy          =    -289.6956385973353463 [Eh]
	 Singles Energy            =      -0.0000000000000000 [Eh]
	 Same-Spin Energy          =      -0.3037113610188250 [Eh]
	 Opposite-Spin Energy      =      -1.0935506561937163 [Eh]
	 Correlation Energy        =      -1.3972620172125412 [Eh]
	 Total Energy              =    -291.0929006145478866 [Eh]

	 ================> DF-SCS-MP2 Energies <==================
	-----------------------------------------------------------
	 SCS Same-Spin Scale       =       0.3333333333333333 [-]
	 SCS Opposite-Spin Scale   =       1.2000000000000000 [-]
	 SCS Same-Spin Energy      =      -0.1012371203396083 [Eh]
	 SCS Opposite-Spin Energy  =      -1.3122607874324594 [Eh]
	 SCS Correlation Energy    =      -1.4134979077720677 [Eh]
	 SCS Total Energy          =    -291.1091365051074149 [Eh]
	-----------------------------------------------------------

  Dipole Moment: [D]
     X:     1.0560      Y:    -0.4224      Z:    -0.6684     Total:     1.3192

*** Psi4 exiting successfully. Buy a developer a beer!
