                               Psi4 1.3.2 release

  ==> Input File <==

--------------------------------------------------------------------------
#psi4
#
memory 32 gb

molecule  {
1 1
  N        0.2769550    -0.2036720    -0.3241330
  C       -0.2734970     1.1052870     0.1974480
  C       -0.8338955    -1.2438548    -0.1639001
  C       -1.7487720     1.0080340    -0.1478690
  C       -2.0899640    -0.4391570     0.2222400
  C        1.6014160    -0.6227950     0.2602130
  C        2.7021640     0.3718760    -0.0544870
  H        0.4198120    -0.0821770    -1.3354460
  H        0.2647170     1.9344670    -0.2636010
  H       -0.1049550     1.1121840     1.2781340
  H       -0.5119850    -1.9240980     0.6516280
  H       -0.9170180    -1.8004520    -1.0710850
  H       -1.9040400     1.1951860    -1.2159660
  H       -2.3418250     1.7391150     0.4059550
  H       -2.2892440    -0.5166410     1.2941000
  H       -2.9682270    -0.8151510    -0.3061210
  H        1.4364190    -0.7316030     1.3351050
  H        1.8217380    -1.6082590    -0.1583240
  H        2.8177600     0.5164630    -1.1327800
  H        2.5337300     1.3397110     0.4209800
  H        3.6474560    -0.0228690     0.3252770
units angstrom
no_reorient  #important for SAPT in psi4, default
symmetry c1  #important for SAPT in psi4, default
}

set PROPERTIES_ORIGIN ["COM"]
properties('MP2/aug-cc-pvtz', properties = ['dipole'])
--------------------------------------------------------------------------

    Molecular point group: c1
  Charge       = 1
  Multiplicity = 1
  Basis Set: AUG-CC-PVTZ
    Blend: AUG-CC-PVTZ
  Basis Set: (AUG-CC-PVTZ AUX)
    Blend: AUG-CC-PVTZ-JKFIT

    Orbital Energies [Eh]
    ---------------------

    Doubly Occupied:

       1A    -15.849897     2A    -11.451479     3A    -11.450228
       4A    -11.449736     5A    -11.393111     6A    -11.391739
       7A    -11.381614     8A     -1.490719     9A     -1.258741
      10A     -1.183568    11A     -1.175090    12A     -1.040517
      13A     -1.023581    14A     -0.981639    15A     -0.903679
      16A     -0.852746    17A     -0.825801    18A     -0.784086
      19A     -0.773994    20A     -0.762345    21A     -0.729374
      22A     -0.693587    23A     -0.690153    24A     -0.680825
      25A     -0.670296    26A     -0.662737    27A     -0.656961
      28A     -0.643015

  @DF-RHF Final Energy:  -289.70532536945080

   => Energetics <=

    Nuclear Repulsion Energy =            339.9389182902527864
    One-Electron Energy =               -1053.5859677468395148
    Two-Electron Energy =                 423.9417240871359240
    Total Energy =                       -289.7053253694508044
  Basis Set: (AUG-CC-PVTZ AUX)
    Blend: AUG-CC-PVTZ-RI
    Molecular point group: c1

    Geometry (in Angstrom), charge = 1, multiplicity = 1:

       Center              X                  Y                   Z               Mass
    ------------   -----------------  -----------------  -----------------  -----------------
         N            0.296064689145    -0.200067584972    -0.318684330477    14.003074004430
         C           -0.254387310855     1.108891415028     0.202896669523    12.000000000000
         C           -0.814785810855    -1.240250384972    -0.158451430477    12.000000000000
         C           -1.729662310855     1.011638415028    -0.142420330477    12.000000000000
         C           -2.070854310855    -0.435552584972     0.227688669523    12.000000000000
         C            1.620525689145    -0.619190584972     0.265661669523    12.000000000000
         C            2.721273689145     0.375480415028    -0.049038330477    12.000000000000
         H            0.438921689145    -0.078572584972    -1.329997330477     1.007825032230
         H            0.283826689145     1.938071415028    -0.258152330477     1.007825032230
         H           -0.085845310855     1.115788415028     1.283582669523     1.007825032230
         H           -0.492875310855    -1.920493584972     0.657076669523     1.007825032230
         H           -0.897908310855    -1.796847584972    -1.065636330477     1.007825032230
         H           -1.884930310855     1.198790415028    -1.210517330477     1.007825032230
         H           -2.322715310855     1.742719415028     0.411403669523     1.007825032230
         H           -2.270134310855    -0.513036584972     1.299548669523     1.007825032230
         H           -2.949117310855    -0.811546584972    -0.300672330477     1.007825032230
         H            1.455528689145    -0.727998584972     1.340553669523     1.007825032230
         H            1.840847689145    -1.604654584972    -0.152875330477     1.007825032230
         H            2.836869689145     0.520067415028    -1.127331330477     1.007825032230
         H            2.552839689145     1.343315415028     0.426428669523     1.007825032230
         H            3.666565689145    -0.019264584972     0.330725669523     1.007825032230

  Basis Set: AUG-CC-PVTZ
    Blend: AUG-CC-PVTZ
  Basis Set: (AUG-CC-PVTZ AUX)
    Blend: AUG-CC-PVTZ-JKFIT
	 Reference Energy          =    -289.7053253694508044 [Eh]
	 Singles Energy            =      -0.0000000000000000 [Eh]
	 Same-Spin Energy          =      -0.3032297365153229 [Eh]
	 Opposite-Spin Energy      =      -1.0927899030164427 [Eh]
	 Correlation Energy        =      -1.3960196395317657 [Eh]
	 Total Energy              =    -291.1013450089825483 [Eh]

	 ================> DF-SCS-MP2 Energies <==================
	-----------------------------------------------------------
	 SCS Same-Spin Scale       =       0.3333333333333333 [-]
	 SCS Opposite-Spin Scale   =       1.2000000000000000 [-]
	 SCS Same-Spin Energy      =      -0.1010765788384410 [Eh]
	 SCS Opposite-Spin Energy  =      -1.3113478836197312 [Eh]
	 SCS Correlation Energy    =      -1.4124244624581721 [Eh]
	 SCS Total Energy          =    -291.1177498319089523 [Eh]
	-----------------------------------------------------------

  Dipole Moment: [D]
     X:     0.7289      Y:    -0.4747      Z:    -0.7078     Total:     1.1214

*** Psi4 exiting successfully. Buy a developer a beer!
