                               Psi4 1.3.2 release

  ==> Input File <==

--------------------------------------------------------------------------
#psi4
#
memory 32 gb

molecule  {
1 1
  N        0.2769550    -0.2036720    -0.3241330
  C       -0.1342307     1.1697918     0.1585068
  C       -0.8318510    -1.2416080    -0.1373660
  C       -1.7487720     1.0080340    -0.1478690
  C       -2.0899640    -0.4391570     0.2222400
  C        1.6014160    -0.6227950     0.2602130
  C        2.7021640     0.3718760    -0.0544870
  H        0.4198120    -0.0821770    -1.3354460
  H        0.2647170     1.9344670    -0.2636010
  H       -0.1049550     1.1121840     1.2781340
  H       -0.5119850    -1.9240980     0.6516280
  H       -0.9170180    -1.8004520    -1.0710850
  H       -1.9040400     1.1951860    -1.2159660
  H       -2.3418250     1.7391150     0.4059550
  H       -2.2892440    -0.5166410     1.2941000
  H       -2.9682270    -0.8151510    -0.3061210
  H        1.4364190    -0.7316030     1.3351050
  H        1.8217380    -1.6082590    -0.1583240
  H        2.8177600     0.5164630    -1.1327800
  H        2.5337300     1.3397110     0.4209800
  H        3.6474560    -0.0228690     0.3252770
units angstrom
no_reorient  #important for SAPT in psi4, default
symmetry c1  #important for SAPT in psi4, default
}

set PROPERTIES_ORIGIN ["COM"]
properties('MP2/aug-cc-pvtz', properties = ['dipole'])
--------------------------------------------------------------------------

    Molecular point group: c1
  Charge       = 1
  Multiplicity = 1
  Basis Set: AUG-CC-PVTZ
    Blend: AUG-CC-PVTZ
  Basis Set: (AUG-CC-PVTZ AUX)
    Blend: AUG-CC-PVTZ-JKFIT

    Orbital Energies [Eh]
    ---------------------

    Doubly Occupied:

       1A    -15.852251     2A    -11.453202     3A    -11.449986
       4A    -11.447205     5A    -11.399215     6A    -11.392234
       7A    -11.381752     8A     -1.489686     9A     -1.248007
      10A     -1.181254    11A     -1.176136    12A     -1.043247
      13A     -1.026197    14A     -0.976232    15A     -0.920769
      16A     -0.848773    17A     -0.818627    18A     -0.783743
      19A     -0.780456    20A     -0.773448    21A     -0.732751
      22A     -0.698492    23A     -0.688843    24A     -0.674913
      25A     -0.670443    26A     -0.659541    27A     -0.651073
      28A     -0.626371

  @DF-RHF Final Energy:  -289.67702628929936

   => Energetics <=

    Nuclear Repulsion Energy =            338.8891696381861607
    One-Electron Energy =               -1051.4426951106520391
    Two-Electron Energy =                 422.8764991831665725
    Total Energy =                       -289.6770262892993628
  Basis Set: (AUG-CC-PVTZ AUX)
    Blend: AUG-CC-PVTZ-RI
    Molecular point group: c1

    Geometry (in Angstrom), charge = 1, multiplicity = 1:

       Center              X                  Y                   Z               Mass
    ------------   -----------------  -----------------  -----------------  -----------------
         N            0.279126469723    -0.208068765686    -0.317197153402    14.003074004430
         C           -0.132059230277     1.165395034314     0.165442646598    12.000000000000
         C           -0.829679530277    -1.246004765686    -0.130430153402    12.000000000000
         C           -1.746600530277     1.003637234314    -0.140933153402    12.000000000000
         C           -2.087792530277    -0.443553765686     0.229175846598    12.000000000000
         C            1.603587469723    -0.627191765686     0.267148846598    12.000000000000
         C            2.704335469723     0.367479234314    -0.047551153402    12.000000000000
         H            0.421983469723    -0.086573765686    -1.328510153402     1.007825032230
         H            0.266888469723     1.930070234314    -0.256665153402     1.007825032230
         H           -0.102783530277     1.107787234314     1.285069846598     1.007825032230
         H           -0.509813530277    -1.928494765686     0.658563846598     1.007825032230
         H           -0.914846530277    -1.804848765686    -1.064149153402     1.007825032230
         H           -1.901868530277     1.190789234314    -1.209030153402     1.007825032230
         H           -2.339653530277     1.734718234314     0.412890846598     1.007825032230
         H           -2.287072530277    -0.521037765686     1.301035846598     1.007825032230
         H           -2.966055530277    -0.819547765686    -0.299185153402     1.007825032230
         H            1.438590469723    -0.735999765686     1.342040846598     1.007825032230
         H            1.823909469723    -1.612655765686    -0.151388153402     1.007825032230
         H            2.819931469723     0.512066234314    -1.125844153402     1.007825032230
         H            2.535901469723     1.335314234314     0.427915846598     1.007825032230
         H            3.649627469723    -0.027265765686     0.332212846598     1.007825032230

  Basis Set: AUG-CC-PVTZ
    Blend: AUG-CC-PVTZ
  Basis Set: (AUG-CC-PVTZ AUX)
    Blend: AUG-CC-PVTZ-JKFIT
	 Reference Energy          =    -289.6770262892993628 [Eh]
	 Singles Energy            =      -0.0000000000000000 [Eh]
	 Same-Spin Energy          =      -0.3032059496850643 [Eh]
	 Opposite-Spin Energy      =      -1.0940090573509607 [Eh]
	 Correlation Energy        =      -1.3972150070360250 [Eh]
	 Total Energy              =    -291.0742412963354013 [Eh]

	 ================> DF-SCS-MP2 Energies <==================
	-----------------------------------------------------------
	 SCS Same-Spin Scale       =       0.3333333333333333 [-]
	 SCS Opposite-Spin Scale   =       1.2000000000000000 [-]
	 SCS Same-Spin Energy      =      -0.1010686498950214 [Eh]
	 SCS Opposite-Spin Energy  =      -1.3128108688211528 [Eh]
	 SCS Correlation Energy    =      -1.4138795187161743 [Eh]
	 SCS Total Energy          =    -291.0909058080155205 [Eh]
	-----------------------------------------------------------

  Dipole Moment: [D]
     X:     0.6862      Y:    -0.5586      Z:    -0.7311     Total:     1.1478

*** Psi4 exiting successfully. Buy a developer a beer!
