                               Psi4 1.3.2 release

  ==> Input File <==

--------------------------------------------------------------------------
#psi4
#
memory 32 gb

molecule  {
1 1
  N        0.2769550    -0.2036720    -0.3241330
  C       -0.3186525     1.0805589     0.2091778
  C       -0.8318510    -1.2416080    -0.1373660
  C       -1.7487720     1.0080340    -0.1478690
  C       -2.0899640    -0.4391570     0.2222400
  C        1.6014160    -0.6227950     0.2602130
  C        2.7021640     0.3718760    -0.0544870
  H        0.4198120    -0.0821770    -1.3354460
  H        0.2647170     1.9344670    -0.2636010
  H       -0.1049550     1.1121840     1.2781340
  H       -0.5119850    -1.9240980     0.6516280
  H       -0.9170180    -1.8004520    -1.0710850
  H       -1.9040400     1.1951860    -1.2159660
  H       -2.3418250     1.7391150     0.4059550
  H       -2.2892440    -0.5166410     1.2941000
  H       -2.9682270    -0.8151510    -0.3061210
  H        1.4364190    -0.7316030     1.3351050
  H        1.8217380    -1.6082590    -0.1583240
  H        2.8177600     0.5164630    -1.1327800
  H        2.5337300     1.3397110     0.4209800
  H        3.6474560    -0.0228690     0.3252770
units angstrom
no_reorient  #important for SAPT in psi4, default
symmetry c1  #important for SAPT in psi4, default
}

set PROPERTIES_ORIGIN ["COM"]
properties('MP2/aug-cc-pvtz', properties = ['dipole'])
--------------------------------------------------------------------------

    Molecular point group: c1
  Charge       = 1
  Multiplicity = 1
  Basis Set: AUG-CC-PVTZ
    Blend: AUG-CC-PVTZ
  Basis Set: (AUG-CC-PVTZ AUX)
    Blend: AUG-CC-PVTZ-JKFIT

    Orbital Energies [Eh]
    ---------------------

    Doubly Occupied:

       1A    -15.849557     2A    -11.452041     3A    -11.451605
       4A    -11.449901     5A    -11.391735     6A    -11.391093
       7A    -11.381494     8A     -1.491701     9A     -1.264943
      10A     -1.185313    11A     -1.174500    12A     -1.039859
      13A     -1.024306    14A     -0.983366    15A     -0.897908
      16A     -0.856037    17A     -0.827538    18A     -0.785345
      19A     -0.774912    20A     -0.759022    21A     -0.728950
      22A     -0.692468    23A     -0.689843    24A     -0.684308
      25A     -0.671631    26A     -0.664251    27A     -0.654284
      28A     -0.642429

  @DF-RHF Final Energy:  -289.70237185298333

   => Energetics <=

    Nuclear Repulsion Energy =            340.4813017974473155
    One-Electron Energy =               -1054.6466699398538367
    Two-Electron Energy =                 424.4629962894232449
    Total Energy =                       -289.7023718529833332
  Basis Set: (AUG-CC-PVTZ AUX)
    Blend: AUG-CC-PVTZ-RI
    Molecular point group: c1

    Geometry (in Angstrom), charge = 1, multiplicity = 1:

       Center              X                  Y                   Z               Mass
    ------------   -----------------  -----------------  -----------------  -----------------
         N            0.301232189276    -0.197372863887    -0.323270832954    14.003074004430
         C           -0.294375310724     1.086858036113     0.210039967046    12.000000000000
         C           -0.807573810724    -1.235308863887    -0.136503832954    12.000000000000
         C           -1.724494810724     1.014333136113    -0.147006832954    12.000000000000
         C           -2.065686810724    -0.432857863887     0.223102167046    12.000000000000
         C            1.625693189276    -0.616495863887     0.261075167046    12.000000000000
         C            2.726441189276     0.378175136113    -0.053624832954    12.000000000000
         H            0.444089189276    -0.075877863887    -1.334583832954     1.007825032230
         H            0.288994189276     1.940766136113    -0.262738832954     1.007825032230
         H           -0.080677810724     1.118483136113     1.278996167046     1.007825032230
         H           -0.487707810724    -1.917798863887     0.652490167046     1.007825032230
         H           -0.892740810724    -1.794152863887    -1.070222832954     1.007825032230
         H           -1.879762810724     1.201485136113    -1.215103832954     1.007825032230
         H           -2.317547810724     1.745414136113     0.406817167046     1.007825032230
         H           -2.264966810724    -0.510341863887     1.294962167046     1.007825032230
         H           -2.943949810724    -0.808851863887    -0.305258832954     1.007825032230
         H            1.460696189276    -0.725303863887     1.335967167046     1.007825032230
         H            1.846015189276    -1.601959863887    -0.157461832954     1.007825032230
         H            2.842037189276     0.522762136113    -1.131917832954     1.007825032230
         H            2.558007189276     1.346010136113     0.421842167046     1.007825032230
         H            3.671733189276    -0.016569863887     0.326139167046     1.007825032230

  Basis Set: AUG-CC-PVTZ
    Blend: AUG-CC-PVTZ
  Basis Set: (AUG-CC-PVTZ AUX)
    Blend: AUG-CC-PVTZ-JKFIT
	 Reference Energy          =    -289.7023718529833332 [Eh]
	 Singles Energy            =      -0.0000000000000000 [Eh]
	 Same-Spin Energy          =      -0.3036932999034595 [Eh]
	 Opposite-Spin Energy      =      -1.0932060179160499 [Eh]
	 Correlation Energy        =      -1.3968993178195093 [Eh]
	 Total Energy              =    -291.0992711708028651 [Eh]

	 ================> DF-SCS-MP2 Energies <==================
	-----------------------------------------------------------
	 SCS Same-Spin Scale       =       0.3333333333333333 [-]
	 SCS Opposite-Spin Scale   =       1.2000000000000000 [-]
	 SCS Same-Spin Energy      =      -0.1012310999678198 [Eh]
	 SCS Opposite-Spin Energy  =      -1.3118472214992598 [Eh]
	 SCS Correlation Energy    =      -1.4130783214670797 [Eh]
	 SCS Total Energy          =    -291.1154501744504159 [Eh]
	-----------------------------------------------------------

  Dipole Moment: [D]
     X:     0.7207      Y:    -0.4665      Z:    -0.6944     Total:     1.1042

*** Psi4 exiting successfully. Buy a developer a beer!
