                               Psi4 1.3.2 release

  ==> Input File <==

--------------------------------------------------------------------------
#psi4
#
memory 32 gb

molecule  {
1 1
  N        0.2769550    -0.2036720    -0.3241330
  C       -0.2734970     1.1052870     0.1974480
  C       -0.8318510    -1.2416080    -0.1373660
  C       -1.7487720     1.0080340    -0.1478690
  C       -2.0899640    -0.4391570     0.2222400
  C        1.6223606    -0.6205098     0.2120118
  C        2.7021640     0.3718760    -0.0544870
  H        0.4198120    -0.0821770    -1.3354460
  H        0.2647170     1.9344670    -0.2636010
  H       -0.1049550     1.1121840     1.2781340
  H       -0.5119850    -1.9240980     0.6516280
  H       -0.9170180    -1.8004520    -1.0710850
  H       -1.9040400     1.1951860    -1.2159660
  H       -2.3418250     1.7391150     0.4059550
  H       -2.2892440    -0.5166410     1.2941000
  H       -2.9682270    -0.8151510    -0.3061210
  H        1.4364190    -0.7316030     1.3351050
  H        1.8217380    -1.6082590    -0.1583240
  H        2.8177600     0.5164630    -1.1327800
  H        2.5337300     1.3397110     0.4209800
  H        3.6474560    -0.0228690     0.3252770
units angstrom
no_reorient  #important for SAPT in psi4, default
symmetry c1  #important for SAPT in psi4, default
}

set PROPERTIES_ORIGIN ["COM"]
properties('MP2/aug-cc-pvtz', properties = ['dipole'])
--------------------------------------------------------------------------

    Molecular point group: c1
  Charge       = 1
  Multiplicity = 1
  Basis Set: AUG-CC-PVTZ
    Blend: AUG-CC-PVTZ
  Basis Set: (AUG-CC-PVTZ AUX)
    Blend: AUG-CC-PVTZ-JKFIT

    Orbital Energies [Eh]
    ---------------------

    Doubly Occupied:

       1A    -15.850004     2A    -11.452998     3A    -11.450874
       4A    -11.449984     5A    -11.393441     6A    -11.391592
       7A    -11.380905     8A     -1.490982     9A     -1.260983
      10A     -1.185511    11A     -1.177214    12A     -1.040960
      13A     -1.021281    14A     -0.981399    15A     -0.903129
      16A     -0.854595    17A     -0.825076    18A     -0.784615
      19A     -0.769406    20A     -0.765165    21A     -0.731250
      22A     -0.696946    23A     -0.690573    24A     -0.679124
      25A     -0.666721    26A     -0.663197    27A     -0.657060
      28A     -0.643144

  @DF-RHF Final Energy:  -289.70263761644679

   => Energetics <=

    Nuclear Repulsion Energy =            340.0808330007278641
    One-Electron Energy =               -1053.8506849247930859
    Two-Electron Energy =                 424.0672143076184852
    Total Energy =                       -289.7026376164467933
  Basis Set: (AUG-CC-PVTZ AUX)
    Blend: AUG-CC-PVTZ-RI
    Molecular point group: c1

    Geometry (in Angstrom), charge = 1, multiplicity = 1:

       Center              X                  Y                   Z               Mass
    ------------   -----------------  -----------------  -----------------  -----------------
         N            0.293309100612    -0.200610813164    -0.316087203477    14.003074004430
         C           -0.257142899388     1.108348186836     0.205493796523    12.000000000000
         C           -0.815496899388    -1.238546813164    -0.129320203477    12.000000000000
         C           -1.732417899388     1.011095186836    -0.139823203477    12.000000000000
         C           -2.073609899388    -0.436095813164     0.230285796523    12.000000000000
         C            1.638714700612    -0.617448613164     0.220057596523    12.000000000000
         C            2.718518100612     0.374937186836    -0.046441203477    12.000000000000
         H            0.436166100612    -0.079115813164    -1.327400203477     1.007825032230
         H            0.281071100612     1.937528186836    -0.255555203477     1.007825032230
         H           -0.088600899388     1.115245186836     1.286179796523     1.007825032230
         H           -0.495630899388    -1.921036813164     0.659673796523     1.007825032230
         H           -0.900663899388    -1.797390813164    -1.063039203477     1.007825032230
         H           -1.887685899388     1.198247186836    -1.207920203477     1.007825032230
         H           -2.325470899388     1.742176186836     0.414000796523     1.007825032230
         H           -2.272889899388    -0.513579813164     1.302145796523     1.007825032230
         H           -2.951872899388    -0.812089813164    -0.298075203477     1.007825032230
         H            1.452773100612    -0.728541813164     1.343150796523     1.007825032230
         H            1.838092100612    -1.605197813164    -0.150278203477     1.007825032230
         H            2.834114100612     0.519524186836    -1.124734203477     1.007825032230
         H            2.550084100612     1.342772186836     0.429025796523     1.007825032230
         H            3.663810100612    -0.019807813164     0.333322796523     1.007825032230

  Basis Set: AUG-CC-PVTZ
    Blend: AUG-CC-PVTZ
  Basis Set: (AUG-CC-PVTZ AUX)
    Blend: AUG-CC-PVTZ-JKFIT
	 Reference Energy          =    -289.7026376164467933 [Eh]
	 Singles Energy            =      -0.0000000000000000 [Eh]
	 Same-Spin Energy          =      -0.3035494526225733 [Eh]
	 Opposite-Spin Energy      =      -1.0931053553052084 [Eh]
	 Correlation Energy        =      -1.3966548079277816 [Eh]
	 Total Energy              =    -291.0992924243745961 [Eh]

	 ================> DF-SCS-MP2 Energies <==================
	-----------------------------------------------------------
	 SCS Same-Spin Scale       =       0.3333333333333333 [-]
	 SCS Opposite-Spin Scale   =       1.2000000000000000 [-]
	 SCS Same-Spin Energy      =      -0.1011831508741911 [Eh]
	 SCS Opposite-Spin Energy  =      -1.3117264263662500 [Eh]
	 SCS Correlation Energy    =      -1.4129095772404412 [Eh]
	 SCS Total Energy          =    -291.1155471936872345 [Eh]
	-----------------------------------------------------------

  Dipole Moment: [D]
     X:     0.7351      Y:    -0.4671      Z:    -0.7128     Total:     1.1255

*** Psi4 exiting successfully. Buy a developer a beer!
