                               Psi4 1.3.2 release

  ==> Input File <==

--------------------------------------------------------------------------
#psi4
#
memory 32 gb

molecule  {
1 1
  N        0.2068679    -0.2533494    -0.2627417
  C       -0.2734970     1.1052870     0.1974480
  C       -0.8318510    -1.2416080    -0.1373660
  C       -1.7487720     1.0080340    -0.1478690
  C       -2.0899640    -0.4391570     0.2222400
  C        1.6014160    -0.6227950     0.2602130
  C        2.7021640     0.3718760    -0.0544870
  H        0.4198120    -0.0821770    -1.3354460
  H        0.2647170     1.9344670    -0.2636010
  H       -0.1049550     1.1121840     1.2781340
  H       -0.5119850    -1.9240980     0.6516280
  H       -0.9170180    -1.8004520    -1.0710850
  H       -1.9040400     1.1951860    -1.2159660
  H       -2.3418250     1.7391150     0.4059550
  H       -2.2892440    -0.5166410     1.2941000
  H       -2.9682270    -0.8151510    -0.3061210
  H        1.4364190    -0.7316030     1.3351050
  H        1.8217380    -1.6082590    -0.1583240
  H        2.8177600     0.5164630    -1.1327800
  H        2.5337300     1.3397110     0.4209800
  H        3.6474560    -0.0228690     0.3252770
units angstrom
no_reorient  #important for SAPT in psi4, default
symmetry c1  #important for SAPT in psi4, default
}

set PROPERTIES_ORIGIN ["COM"]
properties('MP2/aug-cc-pvtz', properties = ['dipole'])
--------------------------------------------------------------------------

    Molecular point group: c1
  Charge       = 1
  Multiplicity = 1
  Basis Set: AUG-CC-PVTZ
    Blend: AUG-CC-PVTZ
  Basis Set: (AUG-CC-PVTZ AUX)
    Blend: AUG-CC-PVTZ-JKFIT

    Orbital Energies [Eh]
    ---------------------

    Doubly Occupied:

       1A    -15.855315     2A    -11.455404     3A    -11.450358
       4A    -11.442142     5A    -11.391635     6A    -11.389228
       7A    -11.385988     8A     -1.497843     9A     -1.256385
      10A     -1.194681    11A     -1.172588    12A     -1.041663
      13A     -1.009811    14A     -0.984312    15A     -0.909502
      16A     -0.855966    17A     -0.822101    18A     -0.784772
      19A     -0.770254    20A     -0.764289    21A     -0.730032
      22A     -0.702416    23A     -0.686214    24A     -0.672401
      25A     -0.669296    26A     -0.664016    27A     -0.657088
      28A     -0.640772

  @DF-RHF Final Energy:  -289.69096094715320

   => Energetics <=

    Nuclear Repulsion Energy =            340.7602834945427048
    One-Electron Energy =               -1055.1895428033631106
    Two-Electron Energy =                 424.7382983616672050
    Total Energy =                       -289.6909609471532008
  Basis Set: (AUG-CC-PVTZ AUX)
    Blend: AUG-CC-PVTZ-RI
    Molecular point group: c1

    Geometry (in Angstrom), charge = 1, multiplicity = 1:

       Center              X                  Y                   Z               Mass
    ------------   -----------------  -----------------  -----------------  -----------------
         N            0.235535832706    -0.243065760327    -0.269060538556    14.003074004430
         C           -0.244829067294     1.115570639673     0.191129161444    12.000000000000
         C           -0.803183067294    -1.231324360327    -0.143684838556    12.000000000000
         C           -1.720104067294     1.018317639673    -0.154187838556    12.000000000000
         C           -2.061296067294    -0.428873360327     0.215921161444    12.000000000000
         C            1.630083932706    -0.612511360327     0.253894161444    12.000000000000
         C            2.730831932706     0.382159639673    -0.060805838556    12.000000000000
         H            0.448479932706    -0.071893360327    -1.341764838556     1.007825032230
         H            0.293384932706     1.944750639673    -0.269919838556     1.007825032230
         H           -0.076287067294     1.122467639673     1.271815161444     1.007825032230
         H           -0.483317067294    -1.913814360327     0.645309161444     1.007825032230
         H           -0.888350067294    -1.790168360327    -1.077403838556     1.007825032230
         H           -1.875372067294     1.205469639673    -1.222284838556     1.007825032230
         H           -2.313157067294     1.749398639673     0.399636161444     1.007825032230
         H           -2.260576067294    -0.506357360327     1.287781161444     1.007825032230
         H           -2.939559067294    -0.804867360327    -0.312439838556     1.007825032230
         H            1.465086932706    -0.721319360327     1.328786161444     1.007825032230
         H            1.850405932706    -1.597975360327    -0.164642838556     1.007825032230
         H            2.846427932706     0.526746639673    -1.139098838556     1.007825032230
         H            2.562397932706     1.349994639673     0.414661161444     1.007825032230
         H            3.676123932706    -0.012585360327     0.318958161444     1.007825032230

  Basis Set: AUG-CC-PVTZ
    Blend: AUG-CC-PVTZ
  Basis Set: (AUG-CC-PVTZ AUX)
    Blend: AUG-CC-PVTZ-JKFIT
	 Reference Energy          =    -289.6909609471532008 [Eh]
	 Singles Energy            =      -0.0000000000000000 [Eh]
	 Same-Spin Energy          =      -0.3045893469758802 [Eh]
	 Opposite-Spin Energy      =      -1.0949150434788599 [Eh]
	 Correlation Energy        =      -1.3995043904547402 [Eh]
	 Total Energy              =    -291.0904653376079523 [Eh]

	 ================> DF-SCS-MP2 Energies <==================
	-----------------------------------------------------------
	 SCS Same-Spin Scale       =       0.3333333333333333 [-]
	 SCS Opposite-Spin Scale   =       1.2000000000000000 [-]
	 SCS Same-Spin Energy      =      -0.1015297823252934 [Eh]
	 SCS Opposite-Spin Energy  =      -1.3138980521746320 [Eh]
	 SCS Correlation Energy    =      -1.4154278344999254 [Eh]
	 SCS Total Energy          =    -291.1063887816531519 [Eh]
	-----------------------------------------------------------

  Dipole Moment: [D]
     X:     0.9404      Y:    -0.3731      Z:    -0.7806     Total:     1.2778

*** Psi4 exiting successfully. Buy a developer a beer!
