                               Psi4 1.3.2 release

  ==> Input File <==

--------------------------------------------------------------------------
#psi4
#
memory 32 gb

molecule  {
1 1
  N        0.2769550    -0.2036720    -0.3241330
  C       -0.2734970     1.1052870     0.1974480
  C       -0.8356017    -1.2457848    -0.1904830
  C       -1.7487720     1.0080340    -0.1478690
  C       -2.0899640    -0.4391570     0.2222400
  C        1.6014160    -0.6227950     0.2602130
  C        2.7021640     0.3718760    -0.0544870
  H        0.4198120    -0.0821770    -1.3354460
  H        0.2647170     1.9344670    -0.2636010
  H       -0.1049550     1.1121840     1.2781340
  H       -0.5119850    -1.9240980     0.6516280
  H       -0.9170180    -1.8004520    -1.0710850
  H       -1.9040400     1.1951860    -1.2159660
  H       -2.3418250     1.7391150     0.4059550
  H       -2.2892440    -0.5166410     1.2941000
  H       -2.9682270    -0.8151510    -0.3061210
  H        1.4364190    -0.7316030     1.3351050
  H        1.8217380    -1.6082590    -0.1583240
  H        2.8177600     0.5164630    -1.1327800
  H        2.5337300     1.3397110     0.4209800
  H        3.6474560    -0.0228690     0.3252770
units angstrom
no_reorient  #important for SAPT in psi4, default
symmetry c1  #important for SAPT in psi4, default
}

set PROPERTIES_ORIGIN ["COM"]
properties('MP2/aug-cc-pvtz', properties = ['dipole'])
--------------------------------------------------------------------------

    Molecular point group: c1
  Charge       = 1
  Multiplicity = 1
  Basis Set: AUG-CC-PVTZ
    Blend: AUG-CC-PVTZ
  Basis Set: (AUG-CC-PVTZ AUX)
    Blend: AUG-CC-PVTZ-JKFIT

    Orbital Energies [Eh]
    ---------------------

    Doubly Occupied:

       1A    -15.849943     2A    -11.451502     3A    -11.450141
       4A    -11.449800     5A    -11.393054     6A    -11.392229
       7A    -11.381638     8A     -1.490648     9A     -1.258267
      10A     -1.184123    11A     -1.174566    12A     -1.040959
      13A     -1.022580    14A     -0.982220    15A     -0.905164
      16A     -0.851861    17A     -0.826814    18A     -0.783753
      19A     -0.773511    20A     -0.762295    21A     -0.729325
      22A     -0.694845    23A     -0.689681    24A     -0.681438
      25A     -0.669694    26A     -0.661886    27A     -0.656916
      28A     -0.641892

  @DF-RHF Final Energy:  -289.70268839253691

   => Energetics <=

    Nuclear Repulsion Energy =            339.8447102367249499
    One-Electron Energy =               -1053.3933057161211764
    Two-Electron Energy =                 423.8459070868593130
    Total Energy =                       -289.7026883925369134
  Basis Set: (AUG-CC-PVTZ AUX)
    Blend: AUG-CC-PVTZ-RI
    Molecular point group: c1

    Geometry (in Angstrom), charge = 1, multiplicity = 1:

       Center              X                  Y                   Z               Mass
    ------------   -----------------  -----------------  -----------------  -----------------
         N            0.296269202813    -0.199836245517    -0.315497971097    14.003074004430
         C           -0.254182797187     1.109122754483     0.206083028903    12.000000000000
         C           -0.816287497187    -1.241949045517    -0.181847971097    12.000000000000
         C           -1.729457797187     1.011869754483    -0.139233971097    12.000000000000
         C           -2.070649797187    -0.435321245517     0.230875028903    12.000000000000
         C            1.620730202813    -0.618959245517     0.268848028903    12.000000000000
         C            2.721478202813     0.375711754483    -0.045851971097    12.000000000000
         H            0.439126202813    -0.078341245517    -1.326810971097     1.007825032230
         H            0.284031202813     1.938302754483    -0.254965971097     1.007825032230
         H           -0.085640797187     1.116019754483     1.286769028903     1.007825032230
         H           -0.492670797187    -1.920262245517     0.660263028903     1.007825032230
         H           -0.897703797187    -1.796616245517    -1.062449971097     1.007825032230
         H           -1.884725797187     1.199021754483    -1.207330971097     1.007825032230
         H           -2.322510797187     1.742950754483     0.414590028903     1.007825032230
         H           -2.269929797187    -0.512805245517     1.302735028903     1.007825032230
         H           -2.948912797187    -0.811315245517    -0.297485971097     1.007825032230
         H            1.455733202813    -0.727767245517     1.343740028903     1.007825032230
         H            1.841052202813    -1.604423245517    -0.149688971097     1.007825032230
         H            2.837074202813     0.520298754483    -1.124144971097     1.007825032230
         H            2.553044202813     1.343546754483     0.429615028903     1.007825032230
         H            3.666770202813    -0.019033245517     0.333912028903     1.007825032230

  Basis Set: AUG-CC-PVTZ
    Blend: AUG-CC-PVTZ
  Basis Set: (AUG-CC-PVTZ AUX)
    Blend: AUG-CC-PVTZ-JKFIT
	 Reference Energy          =    -289.7026883925369134 [Eh]
	 Singles Energy            =      -0.0000000000000000 [Eh]
	 Same-Spin Energy          =      -0.3032479165111180 [Eh]
	 Opposite-Spin Energy      =      -1.0928985788411159 [Eh]
	 Correlation Energy        =      -1.3961464953522338 [Eh]
	 Total Energy              =    -291.0988348878891543 [Eh]

	 ================> DF-SCS-MP2 Energies <==================
	-----------------------------------------------------------
	 SCS Same-Spin Scale       =       0.3333333333333333 [-]
	 SCS Opposite-Spin Scale   =       1.2000000000000000 [-]
	 SCS Same-Spin Energy      =      -0.1010826388370393 [Eh]
	 SCS Opposite-Spin Energy  =      -1.3114782946093391 [Eh]
	 SCS Correlation Energy    =      -1.4125609334463785 [Eh]
	 SCS Total Energy          =    -291.1152493259833136 [Eh]
	-----------------------------------------------------------

  Dipole Moment: [D]
     X:     0.7296      Y:    -0.4712      Z:    -0.7105     Total:     1.1221

*** Psi4 exiting successfully. Buy a developer a beer!
