                               Psi4 1.3.2 release

  ==> Input File <==

--------------------------------------------------------------------------
#psi4
#
memory 32 gb

molecule  {
1 1
  N        0.2769550    -0.2036720    -0.3241330
  C       -0.2007221     0.9322303     0.1284901
  C       -0.8318510    -1.2416080    -0.1373660
  C       -1.7487720     1.0080340    -0.1478690
  C       -2.0899640    -0.4391570     0.2222400
  C        1.6014160    -0.6227950     0.2602130
  C        2.7021640     0.3718760    -0.0544870
  H        0.4198120    -0.0821770    -1.3354460
  H        0.2647170     1.9344670    -0.2636010
  H       -0.1049550     1.1121840     1.2781340
  H       -0.5119850    -1.9240980     0.6516280
  H       -0.9170180    -1.8004520    -1.0710850
  H       -1.9040400     1.1951860    -1.2159660
  H       -2.3418250     1.7391150     0.4059550
  H       -2.2892440    -0.5166410     1.2941000
  H       -2.9682270    -0.8151510    -0.3061210
  H        1.4364190    -0.7316030     1.3351050
  H        1.8217380    -1.6082590    -0.1583240
  H        2.8177600     0.5164630    -1.1327800
  H        2.5337300     1.3397110     0.4209800
  H        3.6474560    -0.0228690     0.3252770
units angstrom
no_reorient  #important for SAPT in psi4, default
symmetry c1  #important for SAPT in psi4, default
}

set PROPERTIES_ORIGIN ["COM"]
properties('MP2/aug-cc-pvtz', properties = ['dipole'])
--------------------------------------------------------------------------

    Molecular point group: c1
  Charge       = 1
  Multiplicity = 1
  Basis Set: AUG-CC-PVTZ
    Blend: AUG-CC-PVTZ
  Basis Set: (AUG-CC-PVTZ AUX)
    Blend: AUG-CC-PVTZ-JKFIT

    Orbital Energies [Eh]
    ---------------------

    Doubly Occupied:

       1A    -15.857749     2A    -11.457620     3A    -11.455307
       4A    -11.446113     5A    -11.393860     6A    -11.389950
       7A    -11.384045     8A     -1.546178     9A     -1.260564
      10A     -1.194493    11A     -1.175626    12A     -1.047899
      13A     -1.030974    14A     -0.989417    15A     -0.912092
      16A     -0.870515    17A     -0.834129    18A     -0.789751
      19A     -0.780632    20A     -0.751616    21A     -0.747458
      22A     -0.695030    23A     -0.684721    24A     -0.676950
      25A     -0.667055    26A     -0.659012    27A     -0.635745
      28A     -0.625485

  @DF-RHF Final Energy:  -289.66434406535291

   => Energetics <=

    Nuclear Repulsion Energy =            343.2456840152759696
    One-Electron Energy =               -1059.9000861227827954
    Two-Electron Energy =                 426.9900580421539189
    Total Energy =                       -289.6643440653529069
  Basis Set: (AUG-CC-PVTZ AUX)
    Blend: AUG-CC-PVTZ-RI
    Molecular point group: c1

    Geometry (in Angstrom), charge = 1, multiplicity = 1:

       Center              X                  Y                   Z               Mass
    ------------   -----------------  -----------------  -----------------  -----------------
         N            0.287096461563    -0.179593455848    -0.313599201576    14.003074004430
         C           -0.190580638437     0.956308844152     0.139023898424    12.000000000000
         C           -0.821709538437    -1.217529455848    -0.126832201576    12.000000000000
         C           -1.738630538437     1.032112544152    -0.137335201576    12.000000000000
         C           -2.079822538437    -0.415078455848     0.232773798424    12.000000000000
         C            1.611557461563    -0.598716455848     0.270746798424    12.000000000000
         C            2.712305461563     0.395954544152    -0.043953201576    12.000000000000
         H            0.429953461563    -0.058098455848    -1.324912201576     1.007825032230
         H            0.274858461563     1.958545544152    -0.253067201576     1.007825032230
         H           -0.094813538437     1.136262544152     1.288667798424     1.007825032230
         H           -0.501843538437    -1.900019455848     0.662161798424     1.007825032230
         H           -0.906876538437    -1.776373455848    -1.060551201576     1.007825032230
         H           -1.893898538437     1.219264544152    -1.205432201576     1.007825032230
         H           -2.331683538437     1.763193544152     0.416488798424     1.007825032230
         H           -2.279102538437    -0.492562455848     1.304633798424     1.007825032230
         H           -2.958085538437    -0.791072455848    -0.295587201576     1.007825032230
         H            1.446560461563    -0.707524455848     1.345638798424     1.007825032230
         H            1.831879461563    -1.584180455848    -0.147790201576     1.007825032230
         H            2.827901461563     0.540541544152    -1.122246201576     1.007825032230
         H            2.543871461563     1.363789544152     0.431513798424     1.007825032230
         H            3.657597461563     0.001209544152     0.335810798424     1.007825032230

  Basis Set: AUG-CC-PVTZ
    Blend: AUG-CC-PVTZ
  Basis Set: (AUG-CC-PVTZ AUX)
    Blend: AUG-CC-PVTZ-JKFIT
	 Reference Energy          =    -289.6643440653529069 [Eh]
	 Singles Energy            =      -0.0000000000000000 [Eh]
	 Same-Spin Energy          =      -0.3055968896051673 [Eh]
	 Opposite-Spin Energy      =      -1.0946137963794742 [Eh]
	 Correlation Energy        =      -1.4002106859846415 [Eh]
	 Total Energy              =    -291.0645547513375391 [Eh]

	 ================> DF-SCS-MP2 Energies <==================
	-----------------------------------------------------------
	 SCS Same-Spin Scale       =       0.3333333333333333 [-]
	 SCS Opposite-Spin Scale   =       1.2000000000000000 [-]
	 SCS Same-Spin Energy      =      -0.1018656298683891 [Eh]
	 SCS Opposite-Spin Energy  =      -1.3135365556553691 [Eh]
	 SCS Correlation Energy    =      -1.4154021855237582 [Eh]
	 SCS Total Energy          =    -291.0797462508766671 [Eh]
	-----------------------------------------------------------

  Dipole Moment: [D]
     X:     0.8457      Y:    -0.6370      Z:    -0.7521     Total:     1.2987

*** Psi4 exiting successfully. Buy a developer a beer!
