                               Psi4 1.3.2 release

  ==> Input File <==

--------------------------------------------------------------------------
#psi4
#
memory 32 gb

molecule  {
1 1
  N        0.2769550    -0.2036720    -0.3241330
  C       -0.2734970     1.1052870     0.1974480
  C       -0.8488337    -1.2254176    -0.1501232
  C       -1.7487720     1.0080340    -0.1478690
  C       -2.0899640    -0.4391570     0.2222400
  C        1.6014160    -0.6227950     0.2602130
  C        2.7021640     0.3718760    -0.0544870
  H        0.4198120    -0.0821770    -1.3354460
  H        0.2647170     1.9344670    -0.2636010
  H       -0.1049550     1.1121840     1.2781340
  H       -0.5119850    -1.9240980     0.6516280
  H       -0.9170180    -1.8004520    -1.0710850
  H       -1.9040400     1.1951860    -1.2159660
  H       -2.3418250     1.7391150     0.4059550
  H       -2.2892440    -0.5166410     1.2941000
  H       -2.9682270    -0.8151510    -0.3061210
  H        1.4364190    -0.7316030     1.3351050
  H        1.8217380    -1.6082590    -0.1583240
  H        2.8177600     0.5164630    -1.1327800
  H        2.5337300     1.3397110     0.4209800
  H        3.6474560    -0.0228690     0.3252770
units angstrom
no_reorient  #important for SAPT in psi4, default
symmetry c1  #important for SAPT in psi4, default
}

set PROPERTIES_ORIGIN ["COM"]
properties('MP2/aug-cc-pvtz', properties = ['dipole'])
--------------------------------------------------------------------------

    Molecular point group: c1
  Charge       = 1
  Multiplicity = 1
  Basis Set: AUG-CC-PVTZ
    Blend: AUG-CC-PVTZ
  Basis Set: (AUG-CC-PVTZ AUX)
    Blend: AUG-CC-PVTZ-JKFIT

    Orbital Energies [Eh]
    ---------------------

    Doubly Occupied:

       1A    -15.849754     2A    -11.451623     3A    -11.451355
       4A    -11.449640     5A    -11.393393     6A    -11.390516
       7A    -11.381788     8A     -1.491117     9A     -1.261283
      10A     -1.182851    11A     -1.176863    12A     -1.040292
      13A     -1.023376    14A     -0.981666    15A     -0.903093
      16A     -0.853578    17A     -0.825566    18A     -0.782426
      19A     -0.774486    20A     -0.761635    21A     -0.730434
      22A     -0.692773    23A     -0.689690    24A     -0.679986
      25A     -0.671580    26A     -0.665269    27A     -0.657958
      28A     -0.641344

  @DF-RHF Final Energy:  -289.70503154756335

   => Energetics <=

    Nuclear Repulsion Energy =            340.2077563051404354
    One-Electron Energy =               -1054.1149051277297986
    Two-Electron Energy =                 424.2021172750259552
    Total Energy =                       -289.7050315475633511
  Basis Set: (AUG-CC-PVTZ AUX)
    Blend: AUG-CC-PVTZ-RI
    Molecular point group: c1

    Geometry (in Angstrom), charge = 1, multiplicity = 1:

       Center              X                  Y                   Z               Mass
    ------------   -----------------  -----------------  -----------------  -----------------
         N            0.297855256529    -0.202277559999    -0.320335698633    14.003074004430
         C           -0.252596743471     1.106681440001     0.201245301367    12.000000000000
         C           -0.827933443471    -1.224023159999    -0.146325898633    12.000000000000
         C           -1.727871743471     1.009428440001    -0.144071698633    12.000000000000
         C           -2.069063743471    -0.437762559999     0.226037301367    12.000000000000
         C            1.622316256529    -0.621400559999     0.264010301367    12.000000000000
         C            2.723064256529     0.373270440001    -0.050689698633    12.000000000000
         H            0.440712256529    -0.080782559999    -1.331648698633     1.007825032230
         H            0.285617256529     1.935861440001    -0.259803698633     1.007825032230
         H           -0.084054743471     1.113578440001     1.281931301367     1.007825032230
         H           -0.491084743471    -1.922703559999     0.655425301367     1.007825032230
         H           -0.896117743471    -1.799057559999    -1.067287698633     1.007825032230
         H           -1.883139743471     1.196580440001    -1.212168698633     1.007825032230
         H           -2.320924743471     1.740509440001     0.409752301367     1.007825032230
         H           -2.268343743471    -0.515246559999     1.297897301367     1.007825032230
         H           -2.947326743471    -0.813756559999    -0.302323698633     1.007825032230
         H            1.457319256529    -0.730208559999     1.338902301367     1.007825032230
         H            1.842638256529    -1.606864559999    -0.154526698633     1.007825032230
         H            2.838660256529     0.517857440001    -1.128982698633     1.007825032230
         H            2.554630256529     1.341105440001     0.424777301367     1.007825032230
         H            3.668356256529    -0.021474559999     0.329074301367     1.007825032230

  Basis Set: AUG-CC-PVTZ
    Blend: AUG-CC-PVTZ
  Basis Set: (AUG-CC-PVTZ AUX)
    Blend: AUG-CC-PVTZ-JKFIT
	 Reference Energy          =    -289.7050315475633511 [Eh]
	 Singles Energy            =      -0.0000000000000000 [Eh]
	 Same-Spin Energy          =      -0.3034427198758187 [Eh]
	 Opposite-Spin Energy      =      -1.0929440548390881 [Eh]
	 Correlation Energy        =      -1.3963867747149068 [Eh]
	 Total Energy              =    -291.1014183222782776 [Eh]

	 ================> DF-SCS-MP2 Energies <==================
	-----------------------------------------------------------
	 SCS Same-Spin Scale       =       0.3333333333333333 [-]
	 SCS Opposite-Spin Scale   =       1.2000000000000000 [-]
	 SCS Same-Spin Energy      =      -0.1011475732919396 [Eh]
	 SCS Opposite-Spin Energy  =      -1.3115328658069056 [Eh]
	 SCS Correlation Energy    =      -1.4126804390988452 [Eh]
	 SCS Total Energy          =    -291.1177119866621865 [Eh]
	-----------------------------------------------------------

  Dipole Moment: [D]
     X:     0.7289      Y:    -0.4744      Z:    -0.7064     Total:     1.1204

*** Psi4 exiting successfully. Buy a developer a beer!
