                               Psi4 1.3.2 release

  ==> Input File <==

--------------------------------------------------------------------------
#psi4
#
memory 32 gb

molecule  {
1 1
  N        0.2769550    -0.2036720    -0.3241330
  C       -0.2734970     1.1052870     0.1974480
  C       -0.8294687    -1.2390450    -0.1108888
  C       -1.7487720     1.0080340    -0.1478690
  C       -2.0899640    -0.4391570     0.2222400
  C        1.6014160    -0.6227950     0.2602130
  C        2.7021640     0.3718760    -0.0544870
  H        0.4198120    -0.0821770    -1.3354460
  H        0.2647170     1.9344670    -0.2636010
  H       -0.1049550     1.1121840     1.2781340
  H       -0.5119850    -1.9240980     0.6516280
  H       -0.9170180    -1.8004520    -1.0710850
  H       -1.9040400     1.1951860    -1.2159660
  H       -2.3418250     1.7391150     0.4059550
  H       -2.2892440    -0.5166410     1.2941000
  H       -2.9682270    -0.8151510    -0.3061210
  H        1.4364190    -0.7316030     1.3351050
  H        1.8217380    -1.6082590    -0.1583240
  H        2.8177600     0.5164630    -1.1327800
  H        2.5337300     1.3397110     0.4209800
  H        3.6474560    -0.0228690     0.3252770
units angstrom
no_reorient  #important for SAPT in psi4, default
symmetry c1  #important for SAPT in psi4, default
}

set PROPERTIES_ORIGIN ["COM"]
properties('MP2/aug-cc-pvtz', properties = ['dipole'])
--------------------------------------------------------------------------

    Molecular point group: c1
  Charge       = 1
  Multiplicity = 1
  Basis Set: AUG-CC-PVTZ
    Blend: AUG-CC-PVTZ
  Basis Set: (AUG-CC-PVTZ AUX)
    Blend: AUG-CC-PVTZ-JKFIT

    Orbital Energies [Eh]
    ---------------------

    Doubly Occupied:

       1A    -15.850072     2A    -11.451482     3A    -11.450827
       4A    -11.449720     5A    -11.393396     6A    -11.391054
       7A    -11.381598     8A     -1.491022     9A     -1.259734
      10A     -1.182714    11A     -1.176252    12A     -1.040035
      13A     -1.025873    14A     -0.980955    15A     -0.901596
      16A     -0.854903    17A     -0.824238    18A     -0.785879
      19A     -0.774928    20A     -0.761166    21A     -0.729890
      22A     -0.694658    23A     -0.688430    24A     -0.678433
      25A     -0.672103    26A     -0.664549    27A     -0.657383
      28A     -0.641924

  @DF-RHF Final Energy:  -289.70524890237880

   => Energetics <=

    Nuclear Repulsion Energy =            340.1258435542015377
    One-Electron Energy =               -1053.9525590783541702
    Two-Electron Energy =                 424.1214666217738340
    Total Energy =                       -289.7052489023787984
  Basis Set: (AUG-CC-PVTZ AUX)
    Blend: AUG-CC-PVTZ-RI
    Molecular point group: c1

    Geometry (in Angstrom), charge = 1, multiplicity = 1:

       Center              X                  Y                   Z               Mass
    ------------   -----------------  -----------------  -----------------  -----------------
         N            0.295534070751    -0.200644111662    -0.325038530094    14.003074004430
         C           -0.254917929249     1.108314888338     0.196542469906    12.000000000000
         C           -0.810889629249    -1.236017111662    -0.111794330094    12.000000000000
         C           -1.730192929249     1.011061888338    -0.148774530094    12.000000000000
         C           -2.071384929249    -0.436129111662     0.221334469906    12.000000000000
         C            1.619995070751    -0.619767111662     0.259307469906    12.000000000000
         C            2.720743070751     0.374903888338    -0.055392530094    12.000000000000
         H            0.438391070751    -0.079149111662    -1.336351530094     1.007825032230
         H            0.283296070751     1.937494888338    -0.264506530094     1.007825032230
         H           -0.086375929249     1.115211888338     1.277228469906     1.007825032230
         H           -0.493405929249    -1.921070111662     0.650722469906     1.007825032230
         H           -0.898438929249    -1.797424111662    -1.071990530094     1.007825032230
         H           -1.885460929249     1.198213888338    -1.216871530094     1.007825032230
         H           -2.323245929249     1.742142888338     0.405049469906     1.007825032230
         H           -2.270664929249    -0.513613111662     1.293194469906     1.007825032230
         H           -2.949647929249    -0.812123111662    -0.307026530094     1.007825032230
         H            1.454998070751    -0.728575111662     1.334199469906     1.007825032230
         H            1.840317070751    -1.605231111662    -0.159229530094     1.007825032230
         H            2.836339070751     0.519490888338    -1.133685530094     1.007825032230
         H            2.552309070751     1.342738888338     0.420074469906     1.007825032230
         H            3.666035070751    -0.019841111662     0.324371469906     1.007825032230

  Basis Set: AUG-CC-PVTZ
    Blend: AUG-CC-PVTZ
  Basis Set: (AUG-CC-PVTZ AUX)
    Blend: AUG-CC-PVTZ-JKFIT
	 Reference Energy          =    -289.7052489023787984 [Eh]
	 Singles Energy            =      -0.0000000000000000 [Eh]
	 Same-Spin Energy          =      -0.3032872043269660 [Eh]
	 Opposite-Spin Energy      =      -1.0928311519732867 [Eh]
	 Correlation Energy        =      -1.3961183563002528 [Eh]
	 Total Energy              =    -291.1013672586790335 [Eh]

	 ================> DF-SCS-MP2 Energies <==================
	-----------------------------------------------------------
	 SCS Same-Spin Scale       =       0.3333333333333333 [-]
	 SCS Opposite-Spin Scale   =       1.2000000000000000 [-]
	 SCS Same-Spin Energy      =      -0.1010957347756553 [Eh]
	 SCS Opposite-Spin Energy  =      -1.3113973823679441 [Eh]
	 SCS Correlation Energy    =      -1.4124931171435995 [Eh]
	 SCS Total Energy          =    -291.1177420195223817 [Eh]
	-----------------------------------------------------------

  Dipole Moment: [D]
     X:     0.7280      Y:    -0.4737      Z:    -0.6999     Total:     1.1155

*** Psi4 exiting successfully. Buy a developer a beer!
