                               Psi4 1.4a3.dev225

  ==> Input File <==

--------------------------------------------------------------------------
#psi4
#
memory 32 gb

molecule  {
1 1
  N        0.2769550    -0.2036720    -0.3241330
  C       -0.2734970     1.1052870     0.1974480
  C       -0.8318510    -1.2416080    -0.1373660
  C       -1.7487720     1.0080340    -0.1478690
  C       -2.0899640    -0.4391570     0.2222400
  C        1.6189924    -0.6283570     0.2679676
  C        2.7021640     0.3718760    -0.0544870
  H        0.4198120    -0.0821770    -1.3354460
  H        0.2647170     1.9344670    -0.2636010
  H       -0.1049550     1.1121840     1.2781340
  H       -0.5119850    -1.9240980     0.6516280
  H       -0.9170180    -1.8004520    -1.0710850
  H       -1.9040400     1.1951860    -1.2159660
  H       -2.3418250     1.7391150     0.4059550
  H       -2.2892440    -0.5166410     1.2941000
  H       -2.9682270    -0.8151510    -0.3061210
  H        1.4364190    -0.7316030     1.3351050
  H        1.8217380    -1.6082590    -0.1583240
  H        2.8177600     0.5164630    -1.1327800
  H        2.5337300     1.3397110     0.4209800
  H        3.6474560    -0.0228690     0.3252770
units angstrom
no_reorient  #important for SAPT in psi4, default
symmetry c1  #important for SAPT in psi4, default
}

set PROPERTIES_ORIGIN ["COM"]
properties('MP2/aug-cc-pvtz', properties = ['dipole'])
--------------------------------------------------------------------------

    Molecular point group: c1
  Charge       = 1
  Multiplicity = 1
  Basis Set: AUG-CC-PVTZ
    Blend: AUG-CC-PVTZ
  Basis Set: (AUG-CC-PVTZ AUX)
    Blend: AUG-CC-PVTZ-JKFIT

    Orbital Energies [Eh]
    ---------------------

    Doubly Occupied:

       1A    -15.848277     2A    -11.452576     3A    -11.449681
       4A    -11.448953     5A    -11.392641     6A    -11.390766
       7A    -11.381841     8A     -1.486725     9A     -1.258026
      10A     -1.183629    11A     -1.176136    12A     -1.039238
      13A     -1.023837    14A     -0.980172    15A     -0.901133
      16A     -0.852001    17A     -0.824596    18A     -0.784584
      19A     -0.775417    20A     -0.761065    21A     -0.729360
      22A     -0.694110    23A     -0.691750    24A     -0.677513
      25A     -0.671882    26A     -0.664252    27A     -0.656942
      28A     -0.642518

  @DF-RHF Final Energy:  -289.70573495792496

   => Energetics <=

    Nuclear Repulsion Energy =            339.7492209763454980
    One-Electron Energy =               -1053.2306745119713014
    Two-Electron Energy =                 423.7757185777008999
    Total Energy =                       -289.7057349579249603
  Basis Set: (AUG-CC-PVTZ AUX)
    Blend: AUG-CC-PVTZ-RI
    Molecular point group: c1

    Geometry (in Angstrom), charge = 1, multiplicity = 1:

       Center              X                  Y                   Z               Mass
    ------------   -----------------  -----------------  -----------------  -----------------
         N            0.293712829914    -0.199670208515    -0.322794345595    14.003074004430
         C           -0.256739170086     1.109288791485     0.198786654405    12.000000000000
         C           -0.815093170086    -1.237606208515    -0.136027345595    12.000000000000
         C           -1.732014170086     1.012035791485    -0.146530345595    12.000000000000
         C           -2.073206170086    -0.435155208515     0.223578654405    12.000000000000
         C            1.635750229914    -0.624355208515     0.269306254405    12.000000000000
         C            2.718921829914     0.375877791485    -0.053148345595    12.000000000000
         H            0.436569829914    -0.078175208515    -1.334107345595     1.007825032230
         H            0.281474829914     1.938468791485    -0.262262345595     1.007825032230
         H           -0.088197170086     1.116185791485     1.279472654405     1.007825032230
         H           -0.495227170086    -1.920096208515     0.652966654405     1.007825032230
         H           -0.900260170086    -1.796450208515    -1.069746345595     1.007825032230
         H           -1.887282170086     1.199187791485    -1.214627345595     1.007825032230
         H           -2.325067170086     1.743116791485     0.407293654405     1.007825032230
         H           -2.272486170086    -0.512639208515     1.295438654405     1.007825032230
         H           -2.951469170086    -0.811149208515    -0.304782345595     1.007825032230
         H            1.453176829914    -0.727601208515     1.336443654405     1.007825032230
         H            1.838495829914    -1.604257208515    -0.156985345595     1.007825032230
         H            2.834517829914     0.520464791485    -1.131441345595     1.007825032230
         H            2.550487829914     1.343712791485     0.422318654405     1.007825032230
         H            3.664213829914    -0.018867208515     0.326615654405     1.007825032230

  Basis Set: AUG-CC-PVTZ
    Blend: AUG-CC-PVTZ
  Basis Set: (AUG-CC-PVTZ AUX)
    Blend: AUG-CC-PVTZ-JKFIT
	 Reference Energy          =    -289.7057349579249603 [Eh]
	 Singles Energy            =      -0.0000000000000000 [Eh]
	 Same-Spin Energy          =      -0.3032157199601390 [Eh]
	 Opposite-Spin Energy      =      -1.0928647036942061 [Eh]
	 Correlation Energy        =      -1.3960804236543449 [Eh]
	 Total Energy              =    -291.1018153815792857 [Eh]

	 ================> DF-SCS-MP2 Energies <==================
	-----------------------------------------------------------
	 SCS Same-Spin Scale       =       0.3333333333333333 [-]
	 SCS Opposite-Spin Scale   =       1.2000000000000000 [-]
	 SCS Same-Spin Energy      =      -0.1010719066533796 [Eh]
	 SCS Opposite-Spin Energy  =      -1.3114376444330473 [Eh]
	 SCS Correlation Energy    =      -1.4125095510864270 [Eh]
	 SCS Total Energy          =    -291.1182445090113902 [Eh]
	-----------------------------------------------------------

  Dipole Moment: [D]
     X:     0.7789      Y:    -0.4807      Z:    -0.6969     Total:     1.1504

*** Psi4 exiting successfully. Buy a developer a beer!
