                               Psi4 1.3.2 release

  ==> Input File <==

--------------------------------------------------------------------------
#psi4
#
memory 32 gb

molecule  {
1 1
  N        0.2769550    -0.2036720    -0.3241330
  C       -0.3565802     1.0914638     0.1337688
  C       -0.8318510    -1.2416080    -0.1373660
  C       -1.7487720     1.0080340    -0.1478690
  C       -2.0899640    -0.4391570     0.2222400
  C        1.6014160    -0.6227950     0.2602130
  C        2.7021640     0.3718760    -0.0544870
  H        0.4198120    -0.0821770    -1.3354460
  H        0.2647170     1.9344670    -0.2636010
  H       -0.1049550     1.1121840     1.2781340
  H       -0.5119850    -1.9240980     0.6516280
  H       -0.9170180    -1.8004520    -1.0710850
  H       -1.9040400     1.1951860    -1.2159660
  H       -2.3418250     1.7391150     0.4059550
  H       -2.2892440    -0.5166410     1.2941000
  H       -2.9682270    -0.8151510    -0.3061210
  H        1.4364190    -0.7316030     1.3351050
  H        1.8217380    -1.6082590    -0.1583240
  H        2.8177600     0.5164630    -1.1327800
  H        2.5337300     1.3397110     0.4209800
  H        3.6474560    -0.0228690     0.3252770
units angstrom
no_reorient  #important for SAPT in psi4, default
symmetry c1  #important for SAPT in psi4, default
}

set PROPERTIES_ORIGIN ["COM"]
properties('MP2/aug-cc-pvtz', properties = ['dipole'])
--------------------------------------------------------------------------

    Molecular point group: c1
  Charge       = 1
  Multiplicity = 1
  Basis Set: AUG-CC-PVTZ
    Blend: AUG-CC-PVTZ
  Basis Set: (AUG-CC-PVTZ AUX)
    Blend: AUG-CC-PVTZ-JKFIT

    Orbital Energies [Eh]
    ---------------------

    Doubly Occupied:

       1A    -15.849369     2A    -11.454824     3A    -11.453028
       4A    -11.450329     5A    -11.392931     6A    -11.388838
       7A    -11.381797     8A     -1.492685     9A     -1.271848
      10A     -1.188696    11A     -1.175693    12A     -1.040574
      13A     -1.017869    14A     -0.986758    15A     -0.900245
      16A     -0.858461    17A     -0.824909    18A     -0.779597
      19A     -0.774016    20A     -0.763579    21A     -0.733445
      22A     -0.696804    23A     -0.688163    24A     -0.680520
      25A     -0.672201    26A     -0.663029    27A     -0.657060
      28A     -0.636648

  @DF-RHF Final Energy:  -289.69221014760888

   => Energetics <=

    Nuclear Repulsion Energy =            340.7745799412822976
    One-Electron Energy =               -1055.1857424090542281
    Two-Electron Energy =                 424.7189523201629981
    Total Energy =                       -289.6922101476088756
  Basis Set: (AUG-CC-PVTZ AUX)
    Blend: AUG-CC-PVTZ-RI
    Molecular point group: c1

    Geometry (in Angstrom), charge = 1, multiplicity = 1:

       Center              X                  Y                   Z               Mass
    ------------   -----------------  -----------------  -----------------  -----------------
         N            0.305778393139    -0.198679979755    -0.314231932966    14.003074004430
         C           -0.327756806861     1.096455820245     0.143669867034    12.000000000000
         C           -0.803027606861    -1.236615979755    -0.127464932966    12.000000000000
         C           -1.719948606861     1.013026020245    -0.137967932966    12.000000000000
         C           -2.061140606861    -0.434164979755     0.232141067034    12.000000000000
         C            1.630239393139    -0.617802979755     0.270114067034    12.000000000000
         C            2.730987393139     0.376868020245    -0.044585932966    12.000000000000
         H            0.448635393139    -0.077184979755    -1.325544932966     1.007825032230
         H            0.293540393139     1.939459020245    -0.253699932966     1.007825032230
         H           -0.076131606861     1.117176020245     1.288035067034     1.007825032230
         H           -0.483161606861    -1.919105979755     0.661529067034     1.007825032230
         H           -0.888194606861    -1.795459979755    -1.061183932966     1.007825032230
         H           -1.875216606861     1.200178020245    -1.206064932966     1.007825032230
         H           -2.313001606861     1.744107020245     0.415856067034     1.007825032230
         H           -2.260420606861    -0.511648979755     1.304001067034     1.007825032230
         H           -2.939403606861    -0.810158979755    -0.296219932966     1.007825032230
         H            1.465242393139    -0.726610979755     1.345006067034     1.007825032230
         H            1.850561393139    -1.603266979755    -0.148422932966     1.007825032230
         H            2.846583393139     0.521455020245    -1.122878932966     1.007825032230
         H            2.562553393139     1.344703020245     0.430881067034     1.007825032230
         H            3.676279393139    -0.017876979755     0.335178067034     1.007825032230

  Basis Set: AUG-CC-PVTZ
    Blend: AUG-CC-PVTZ
  Basis Set: (AUG-CC-PVTZ AUX)
    Blend: AUG-CC-PVTZ-JKFIT
	 Reference Energy          =    -289.6922101476088756 [Eh]
	 Singles Energy            =      -0.0000000000000000 [Eh]
	 Same-Spin Energy          =      -0.3044088021834450 [Eh]
	 Opposite-Spin Energy      =      -1.0940990590508330 [Eh]
	 Correlation Energy        =      -1.3985078612342781 [Eh]
	 Total Energy              =    -291.0907180088431687 [Eh]

	 ================> DF-SCS-MP2 Energies <==================
	-----------------------------------------------------------
	 SCS Same-Spin Scale       =       0.3333333333333333 [-]
	 SCS Opposite-Spin Scale   =       1.2000000000000000 [-]
	 SCS Same-Spin Energy      =      -0.1014696007278150 [Eh]
	 SCS Opposite-Spin Energy  =      -1.3129188708609996 [Eh]
	 SCS Correlation Energy    =      -1.4143884715888146 [Eh]
	 SCS Total Energy          =    -291.1065986191977117 [Eh]
	-----------------------------------------------------------

  Dipole Moment: [D]
     X:     0.7117      Y:    -0.4812      Z:    -0.7103     Total:     1.1147

*** Psi4 exiting successfully. Buy a developer a beer!
