                               Psi4 1.4a3.dev225

  ==> Input File <==

--------------------------------------------------------------------------
#psi4
#
memory 32 gb

molecule  {
1 1
  N        0.2769550    -0.2036720    -0.3241330
  C       -0.2916907     1.1485512     0.2146875
  C       -0.8318510    -1.2416080    -0.1373660
  C       -1.7487720     1.0080340    -0.1478690
  C       -2.0899640    -0.4391570     0.2222400
  C        1.6014160    -0.6227950     0.2602130
  C        2.7021640     0.3718760    -0.0544870
  H        0.4198120    -0.0821770    -1.3354460
  H        0.2647170     1.9344670    -0.2636010
  H       -0.1049550     1.1121840     1.2781340
  H       -0.5119850    -1.9240980     0.6516280
  H       -0.9170180    -1.8004520    -1.0710850
  H       -1.9040400     1.1951860    -1.2159660
  H       -2.3418250     1.7391150     0.4059550
  H       -2.2892440    -0.5166410     1.2941000
  H       -2.9682270    -0.8151510    -0.3061210
  H        1.4364190    -0.7316030     1.3351050
  H        1.8217380    -1.6082590    -0.1583240
  H        2.8177600     0.5164630    -1.1327800
  H        2.5337300     1.3397110     0.4209800
  H        3.6474560    -0.0228690     0.3252770
units angstrom
no_reorient  #important for SAPT in psi4, default
symmetry c1  #important for SAPT in psi4, default
}

set PROPERTIES_ORIGIN ["COM"]
properties('MP2/aug-cc-pvtz', properties = ['dipole'])
--------------------------------------------------------------------------

    Molecular point group: c1
  Charge       = 1
  Multiplicity = 1
  Basis Set: AUG-CC-PVTZ
    Blend: AUG-CC-PVTZ
  Basis Set: (AUG-CC-PVTZ AUX)
    Blend: AUG-CC-PVTZ-JKFIT

    Orbital Energies [Eh]
    ---------------------

    Doubly Occupied:

       1A    -15.845956     2A    -11.452568     3A    -11.449571
       4A    -11.449059     5A    -11.393981     6A    -11.391900
       7A    -11.380757     8A     -1.480375     9A     -1.259297
      10A     -1.184655    11A     -1.172214    12A     -1.039175
      13A     -1.023785    14A     -0.980000    15A     -0.899617
      16A     -0.849917    17A     -0.824232    18A     -0.786166
      19A     -0.773086    20A     -0.764606    21A     -0.723769
      22A     -0.695861    23A     -0.689422    24A     -0.681571
      25A     -0.669276    26A     -0.664830    27A     -0.657493
      28A     -0.643917

  @DF-RHF Final Energy:  -289.70414259507572

   => Energetics <=

    Nuclear Repulsion Energy =            339.2845934694695416
    One-Electron Energy =               -1052.3233599827563012
    Two-Electron Energy =                 423.3346239182110367
    Total Energy =                       -289.7041425950757230
  Basis Set: (AUG-CC-PVTZ AUX)
    Blend: AUG-CC-PVTZ-RI
    Molecular point group: c1

    Geometry (in Angstrom), charge = 1, multiplicity = 1:

       Center              X                  Y                   Z               Mass
    ------------   -----------------  -----------------  -----------------  -----------------
         N            0.298000413047    -0.205522761109    -0.323931253159    14.003074004430
         C           -0.270645286953     1.146700438891     0.214889246841    12.000000000000
         C           -0.810805586953    -1.243458761109    -0.137164253159    12.000000000000
         C           -1.727726586953     1.006183238891    -0.147667253159    12.000000000000
         C           -2.068918586953    -0.441007761109     0.222441746841    12.000000000000
         C            1.622461413047    -0.624645761109     0.260414746841    12.000000000000
         C            2.723209413047     0.370025238891    -0.054285253159    12.000000000000
         H            0.440857413047    -0.084027761109    -1.335244253159     1.007825032230
         H            0.285762413047     1.932616238891    -0.263399253159     1.007825032230
         H           -0.083909586953     1.110333238891     1.278335746841     1.007825032230
         H           -0.490939586953    -1.925948761109     0.651829746841     1.007825032230
         H           -0.895972586953    -1.802302761109    -1.070883253159     1.007825032230
         H           -1.882994586953     1.193335238891    -1.215764253159     1.007825032230
         H           -2.320779586953     1.737264238891     0.406156746841     1.007825032230
         H           -2.268198586953    -0.518491761109     1.294301746841     1.007825032230
         H           -2.947181586953    -0.817001761109    -0.305919253159     1.007825032230
         H            1.457464413047    -0.733453761109     1.335306746841     1.007825032230
         H            1.842783413047    -1.610109761109    -0.158122253159     1.007825032230
         H            2.838805413047     0.514612238891    -1.132578253159     1.007825032230
         H            2.554775413047     1.337860238891     0.421181746841     1.007825032230
         H            3.668501413047    -0.024719761109     0.325478746841     1.007825032230

  Basis Set: AUG-CC-PVTZ
    Blend: AUG-CC-PVTZ
  Basis Set: (AUG-CC-PVTZ AUX)
    Blend: AUG-CC-PVTZ-JKFIT
	 Reference Energy          =    -289.7041425950757230 [Eh]
	 Singles Energy            =      -0.0000000000000000 [Eh]
	 Same-Spin Energy          =      -0.3031215927005779 [Eh]
	 Opposite-Spin Energy      =      -1.0930373020466226 [Eh]
	 Correlation Energy        =      -1.3961588947472006 [Eh]
	 Total Energy              =    -291.1003014898229253 [Eh]

	 ================> DF-SCS-MP2 Energies <==================
	-----------------------------------------------------------
	 SCS Same-Spin Scale       =       0.3333333333333333 [-]
	 SCS Opposite-Spin Scale   =       1.2000000000000000 [-]
	 SCS Same-Spin Energy      =      -0.1010405309001926 [Eh]
	 SCS Opposite-Spin Energy  =      -1.3116447624559471 [Eh]
	 SCS Correlation Energy    =      -1.4126852933561398 [Eh]
	 SCS Total Energy          =    -291.1168278884318852 [Eh]
	-----------------------------------------------------------

  Dipole Moment: [D]
     X:     0.6780      Y:    -0.4187      Z:    -0.6873     Total:     1.0523

*** Psi4 exiting successfully. Buy a developer a beer!
