                               Psi4 1.3.2 release

  ==> Input File <==

--------------------------------------------------------------------------
#psi4
#
memory 32 gb

molecule  {
1 1
  N        0.2769550    -0.2036720    -0.3241330
  C       -0.3098845     1.1918153     0.2319270
  C       -0.8318510    -1.2416080    -0.1373660
  C       -1.7487720     1.0080340    -0.1478690
  C       -2.0899640    -0.4391570     0.2222400
  C        1.6014160    -0.6227950     0.2602130
  C        2.7021640     0.3718760    -0.0544870
  H        0.4198120    -0.0821770    -1.3354460
  H        0.2647170     1.9344670    -0.2636010
  H       -0.1049550     1.1121840     1.2781340
  H       -0.5119850    -1.9240980     0.6516280
  H       -0.9170180    -1.8004520    -1.0710850
  H       -1.9040400     1.1951860    -1.2159660
  H       -2.3418250     1.7391150     0.4059550
  H       -2.2892440    -0.5166410     1.2941000
  H       -2.9682270    -0.8151510    -0.3061210
  H        1.4364190    -0.7316030     1.3351050
  H        1.8217380    -1.6082590    -0.1583240
  H        2.8177600     0.5164630    -1.1327800
  H        2.5337300     1.3397110     0.4209800
  H        3.6474560    -0.0228690     0.3252770
units angstrom
no_reorient  #important for SAPT in psi4, default
symmetry c1  #important for SAPT in psi4, default
}

set PROPERTIES_ORIGIN ["COM"]
properties('MP2/aug-cc-pvtz', properties = ['dipole'])
--------------------------------------------------------------------------

    Molecular point group: c1
  Charge       = 1
  Multiplicity = 1
  Basis Set: AUG-CC-PVTZ
    Blend: AUG-CC-PVTZ
  Basis Set: (AUG-CC-PVTZ AUX)
    Blend: AUG-CC-PVTZ-JKFIT

    Orbital Energies [Eh]
    ---------------------

    Doubly Occupied:

       1A    -15.841163     2A    -11.456250     3A    -11.447553
       4A    -11.447485     5A    -11.395127     6A    -11.392532
       7A    -11.379798     8A     -1.470789     9A     -1.259511
      10A     -1.186054    11A     -1.169121    12A     -1.038643
      13A     -1.022576    14A     -0.979205    15A     -0.896769
      16A     -0.846208    17A     -0.824242    18A     -0.788345
      19A     -0.771763    20A     -0.766191    21A     -0.719556
      22A     -0.697163    23A     -0.691392    24A     -0.680790
      25A     -0.668009    26A     -0.665763    27A     -0.654511
      28A     -0.644476

  @DF-RHF Final Energy:  -289.69889554684744

   => Energetics <=

    Nuclear Repulsion Energy =            338.5476989530307037
    One-Electron Energy =               -1050.8912196176083853
    Two-Electron Energy =                 422.6446251177302429
    Total Energy =                       -289.6988955468474387
  Basis Set: (AUG-CC-PVTZ AUX)
    Blend: AUG-CC-PVTZ-RI
    Molecular point group: c1

    Geometry (in Angstrom), charge = 1, multiplicity = 1:

       Center              X                  Y                   Z               Mass
    ------------   -----------------  -----------------  -----------------  -----------------
         N            0.300181212933    -0.210708612572    -0.325997665873    14.003074004430
         C           -0.286658287067     1.184778687428     0.230062334127    12.000000000000
         C           -0.808624787067    -1.248644612572    -0.139230665873    12.000000000000
         C           -1.725545787067     1.000997387428    -0.149733665873    12.000000000000
         C           -2.066737787067    -0.446193612572     0.220375334127    12.000000000000
         C            1.624642212933    -0.629831612572     0.258348334127    12.000000000000
         C            2.725390212933     0.364839387428    -0.056351665873    12.000000000000
         H            0.443038212933    -0.089213612572    -1.337310665873     1.007825032230
         H            0.287943212933     1.927430387428    -0.265465665873     1.007825032230
         H           -0.081728787067     1.105147387428     1.276269334127     1.007825032230
         H           -0.488758787067    -1.931134612572     0.649763334127     1.007825032230
         H           -0.893791787067    -1.807488612572    -1.072949665873     1.007825032230
         H           -1.880813787067     1.188149387428    -1.217830665873     1.007825032230
         H           -2.318598787067     1.732078387428     0.404090334127     1.007825032230
         H           -2.266017787067    -0.523677612572     1.292235334127     1.007825032230
         H           -2.945000787067    -0.822187612572    -0.307985665873     1.007825032230
         H            1.459645212933    -0.738639612572     1.333240334127     1.007825032230
         H            1.844964212933    -1.615295612572    -0.160188665873     1.007825032230
         H            2.840986212933     0.509426387428    -1.134644665873     1.007825032230
         H            2.556956212933     1.332674387428     0.419115334127     1.007825032230
         H            3.670682212933    -0.029905612572     0.323412334127     1.007825032230

  Basis Set: AUG-CC-PVTZ
    Blend: AUG-CC-PVTZ
  Basis Set: (AUG-CC-PVTZ AUX)
    Blend: AUG-CC-PVTZ-JKFIT
	 Reference Energy          =    -289.6988955468474387 [Eh]
	 Singles Energy            =      -0.0000000000000000 [Eh]
	 Same-Spin Energy          =      -0.3031329227811073 [Eh]
	 Opposite-Spin Energy      =      -1.0935003290384573 [Eh]
	 Correlation Energy        =      -1.3966332518195645 [Eh]
	 Total Energy              =    -291.0955287986669759 [Eh]

	 ================> DF-SCS-MP2 Energies <==================
	-----------------------------------------------------------
	 SCS Same-Spin Scale       =       0.3333333333333333 [-]
	 SCS Opposite-Spin Scale   =       1.2000000000000000 [-]
	 SCS Same-Spin Energy      =      -0.1010443075937024 [Eh]
	 SCS Opposite-Spin Energy  =      -1.3122003948461487 [Eh]
	 SCS Correlation Energy    =      -1.4132447024398511 [Eh]
	 SCS Total Energy          =    -291.1121402492872789 [Eh]
	-----------------------------------------------------------

  Dipole Moment: [D]
     X:     0.6195      Y:    -0.3554      Z:    -0.6681     Total:     0.9780

*** Psi4 exiting successfully. Buy a developer a beer!
