                               Psi4 1.3.2 release

  ==> Input File <==

--------------------------------------------------------------------------
#psi4
#
memory 32 gb

molecule  {
1 1
  N        0.2769550    -0.2036720    -0.3241330
  C       -0.2309239     1.1098102     0.2283536
  C       -0.8318510    -1.2416080    -0.1373660
  C       -1.7487720     1.0080340    -0.1478690
  C       -2.0899640    -0.4391570     0.2222400
  C        1.6014160    -0.6227950     0.2602130
  C        2.7021640     0.3718760    -0.0544870
  H        0.4198120    -0.0821770    -1.3354460
  H        0.2647170     1.9344670    -0.2636010
  H       -0.1049550     1.1121840     1.2781340
  H       -0.5119850    -1.9240980     0.6516280
  H       -0.9170180    -1.8004520    -1.0710850
  H       -1.9040400     1.1951860    -1.2159660
  H       -2.3418250     1.7391150     0.4059550
  H       -2.2892440    -0.5166410     1.2941000
  H       -2.9682270    -0.8151510    -0.3061210
  H        1.4364190    -0.7316030     1.3351050
  H        1.8217380    -1.6082590    -0.1583240
  H        2.8177600     0.5164630    -1.1327800
  H        2.5337300     1.3397110     0.4209800
  H        3.6474560    -0.0228690     0.3252770
units angstrom
no_reorient  #important for SAPT in psi4, default
symmetry c1  #important for SAPT in psi4, default
}

set PROPERTIES_ORIGIN ["COM"]
properties('MP2/aug-cc-pvtz', properties = ['dipole'])
--------------------------------------------------------------------------

    Molecular point group: c1
  Charge       = 1
  Multiplicity = 1
  Basis Set: AUG-CC-PVTZ
    Blend: AUG-CC-PVTZ
  Basis Set: (AUG-CC-PVTZ AUX)
    Blend: AUG-CC-PVTZ-JKFIT

    Orbital Energies [Eh]
    ---------------------

    Doubly Occupied:

       1A    -15.850490     2A    -11.450800     3A    -11.450625
       4A    -11.447893     5A    -11.395310     6A    -11.390890
       7A    -11.381495     8A     -1.490267     9A     -1.254629
      10A     -1.180779    11A     -1.175640    12A     -1.040621
      13A     -1.027977    14A     -0.978512    15A     -0.903244
      16A     -0.851846    17A     -0.826514    18A     -0.789156
      19A     -0.774403    20A     -0.762015    21A     -0.729276
      22A     -0.700340    23A     -0.688594    24A     -0.678162
      25A     -0.670263    26A     -0.658906    27A     -0.653293
      28A     -0.643057

  @DF-RHF Final Energy:  -289.70368613256420

   => Energetics <=

    Nuclear Repulsion Energy =            339.7097431319920702
    One-Electron Energy =               -1053.1368596528573107
    Two-Electron Energy =                 423.7234303883009829
    Total Energy =                       -289.7036861325642008
  Basis Set: (AUG-CC-PVTZ AUX)
    Blend: AUG-CC-PVTZ-RI
    Molecular point group: c1

    Geometry (in Angstrom), charge = 1, multiplicity = 1:

       Center              X                  Y                   Z               Mass
    ------------   -----------------  -----------------  -----------------  -----------------
         N            0.290716600401    -0.200879071040    -0.325569340272    14.003074004430
         C           -0.217162299599     1.112603128960     0.226917259728    12.000000000000
         C           -0.818089399599    -1.238815071040    -0.138802340272    12.000000000000
         C           -1.735010399599     1.010826928960    -0.149305340272    12.000000000000
         C           -2.076202399599    -0.436364071040     0.220803659728    12.000000000000
         C            1.615177600401    -0.620002071040     0.258776659728    12.000000000000
         C            2.715925600401     0.374668928960    -0.055923340272    12.000000000000
         H            0.433573600401    -0.079384071040    -1.336882340272     1.007825032230
         H            0.278478600401     1.937259928960    -0.265037340272     1.007825032230
         H           -0.091193399599     1.114976928960     1.276697659728     1.007825032230
         H           -0.498223399599    -1.921305071040     0.650191659728     1.007825032230
         H           -0.903256399599    -1.797659071040    -1.072521340272     1.007825032230
         H           -1.890278399599     1.197978928960    -1.217402340272     1.007825032230
         H           -2.328063399599     1.741907928960     0.404518659728     1.007825032230
         H           -2.275482399599    -0.513848071040     1.292663659728     1.007825032230
         H           -2.954465399599    -0.812358071040    -0.307557340272     1.007825032230
         H            1.450180600401    -0.728810071040     1.333668659728     1.007825032230
         H            1.835499600401    -1.605466071040    -0.159760340272     1.007825032230
         H            2.831521600401     0.519255928960    -1.134216340272     1.007825032230
         H            2.547491600401     1.342503928960     0.419543659728     1.007825032230
         H            3.661217600401    -0.020076071040     0.323840659728     1.007825032230

  Basis Set: AUG-CC-PVTZ
    Blend: AUG-CC-PVTZ
  Basis Set: (AUG-CC-PVTZ AUX)
    Blend: AUG-CC-PVTZ-JKFIT
	 Reference Energy          =    -289.7036861325642008 [Eh]
	 Singles Energy            =      -0.0000000000000000 [Eh]
	 Same-Spin Energy          =      -0.3030090738903507 [Eh]
	 Opposite-Spin Energy      =      -1.0927357405344549 [Eh]
	 Correlation Energy        =      -1.3957448144248055 [Eh]
	 Total Energy              =    -291.0994309469890027 [Eh]

	 ================> DF-SCS-MP2 Energies <==================
	-----------------------------------------------------------
	 SCS Same-Spin Scale       =       0.3333333333333333 [-]
	 SCS Opposite-Spin Scale   =       1.2000000000000000 [-]
	 SCS Same-Spin Energy      =      -0.1010030246301169 [Eh]
	 SCS Opposite-Spin Energy  =      -1.3112828886413459 [Eh]
	 SCS Correlation Energy    =      -1.4122859132714627 [Eh]
	 SCS Total Energy          =    -291.1159720458356901 [Eh]
	-----------------------------------------------------------

  Dipole Moment: [D]
     X:     0.7235      Y:    -0.4785      Z:    -0.7095     Total:     1.1206

*** Psi4 exiting successfully. Buy a developer a beer!
