                               Psi4 1.3.2 release

  ==> Input File <==

--------------------------------------------------------------------------
#psi4
#
memory 32 gb

molecule  {
1 1
  N        0.2352450    -0.2908974    -0.2826885
  C       -0.2734970     1.1052870     0.1974480
  C       -0.8318510    -1.2416080    -0.1373660
  C       -1.7487720     1.0080340    -0.1478690
  C       -2.0899640    -0.4391570     0.2222400
  C        1.6014160    -0.6227950     0.2602130
  C        2.7021640     0.3718760    -0.0544870
  H        0.4198120    -0.0821770    -1.3354460
  H        0.2647170     1.9344670    -0.2636010
  H       -0.1049550     1.1121840     1.2781340
  H       -0.5119850    -1.9240980     0.6516280
  H       -0.9170180    -1.8004520    -1.0710850
  H       -1.9040400     1.1951860    -1.2159660
  H       -2.3418250     1.7391150     0.4059550
  H       -2.2892440    -0.5166410     1.2941000
  H       -2.9682270    -0.8151510    -0.3061210
  H        1.4364190    -0.7316030     1.3351050
  H        1.8217380    -1.6082590    -0.1583240
  H        2.8177600     0.5164630    -1.1327800
  H        2.5337300     1.3397110     0.4209800
  H        3.6474560    -0.0228690     0.3252770
units angstrom
no_reorient  #important for SAPT in psi4, default
symmetry c1  #important for SAPT in psi4, default
}

set PROPERTIES_ORIGIN ["COM"]
properties('MP2/aug-cc-pvtz', properties = ['dipole'])
--------------------------------------------------------------------------

    Molecular point group: c1
  Charge       = 1
  Multiplicity = 1
  Basis Set: AUG-CC-PVTZ
    Blend: AUG-CC-PVTZ
  Basis Set: (AUG-CC-PVTZ AUX)
    Blend: AUG-CC-PVTZ-JKFIT

    Orbital Energies [Eh]
    ---------------------

    Doubly Occupied:

       1A    -15.853705     2A    -11.454785     3A    -11.452233
       4A    -11.441784     5A    -11.393146     6A    -11.390438
       7A    -11.385300     8A     -1.495264     9A     -1.258900
      10A     -1.194734    11A     -1.168240    12A     -1.044514
      13A     -1.013172    14A     -0.983717    15A     -0.906832
      16A     -0.854303    17A     -0.822123    18A     -0.785025
      19A     -0.772305    20A     -0.766176    21A     -0.724923
      22A     -0.704371    23A     -0.685934    24A     -0.676759
      25A     -0.667099    26A     -0.662715    27A     -0.657587
      28A     -0.641236

  @DF-RHF Final Energy:  -289.69250872234960

   => Energetics <=

    Nuclear Repulsion Energy =            340.3746505785484260
    One-Electron Energy =               -1054.4196761557279842
    Two-Electron Energy =                 424.3525168548299575
    Total Energy =                       -289.6925087223496007
  Basis Set: (AUG-CC-PVTZ AUX)
    Blend: AUG-CC-PVTZ-RI
    Molecular point group: c1

    Geometry (in Angstrom), charge = 1, multiplicity = 1:

       Center              X                  Y                   Z               Mass
    ------------   -----------------  -----------------  -----------------  -----------------
         N            0.259943736678    -0.275361801090    -0.286217315639    14.003074004430
         C           -0.248798263322     1.120822598910     0.193919184361    12.000000000000
         C           -0.807152263322    -1.226072401090    -0.140894815639    12.000000000000
         C           -1.724073263322     1.023569598910    -0.151397815639    12.000000000000
         C           -2.065265263322    -0.423621401090     0.218711184361    12.000000000000
         C            1.626114736678    -0.607259401090     0.256684184361    12.000000000000
         C            2.726862736678     0.387411598910    -0.058015815639    12.000000000000
         H            0.444510736678    -0.066641401090    -1.338974815639     1.007825032230
         H            0.289415736678     1.950002598910    -0.267129815639     1.007825032230
         H           -0.080256263322     1.127719598910     1.274605184361     1.007825032230
         H           -0.487286263322    -1.908562401090     0.648099184361     1.007825032230
         H           -0.892319263322    -1.784916401090    -1.074613815639     1.007825032230
         H           -1.879341263322     1.210721598910    -1.219494815639     1.007825032230
         H           -2.317126263322     1.754650598910     0.402426184361     1.007825032230
         H           -2.264545263322    -0.501105401090     1.290571184361     1.007825032230
         H           -2.943528263322    -0.799615401090    -0.309649815639     1.007825032230
         H            1.461117736678    -0.716067401090     1.331576184361     1.007825032230
         H            1.846436736678    -1.592723401090    -0.161852815639     1.007825032230
         H            2.842458736678     0.531998598910    -1.136308815639     1.007825032230
         H            2.558428736678     1.355246598910     0.417451184361     1.007825032230
         H            3.672154736678    -0.007333401090     0.321748184361     1.007825032230

  Basis Set: AUG-CC-PVTZ
    Blend: AUG-CC-PVTZ
  Basis Set: (AUG-CC-PVTZ AUX)
    Blend: AUG-CC-PVTZ-JKFIT
	 Reference Energy          =    -289.6925087223496007 [Eh]
	 Singles Energy            =      -0.0000000000000000 [Eh]
	 Same-Spin Energy          =      -0.3043913576332147 [Eh]
	 Opposite-Spin Energy      =      -1.0945984716764672 [Eh]
	 Correlation Energy        =      -1.3989898293096819 [Eh]
	 Total Energy              =    -291.0914985516592992 [Eh]

	 ================> DF-SCS-MP2 Energies <==================
	-----------------------------------------------------------
	 SCS Same-Spin Scale       =       0.3333333333333333 [-]
	 SCS Opposite-Spin Scale   =       1.2000000000000000 [-]
	 SCS Same-Spin Energy      =      -0.1014637858777382 [Eh]
	 SCS Opposite-Spin Energy  =      -1.3135181660117605 [Eh]
	 SCS Correlation Energy    =      -1.4149819518894988 [Eh]
	 SCS Total Energy          =    -291.1074906742391022 [Eh]
	-----------------------------------------------------------

  Dipole Moment: [D]
     X:     0.8487      Y:    -0.2934      Z:    -0.7503     Total:     1.1702

*** Psi4 exiting successfully. Buy a developer a beer!
