                               Psi4 1.3.2 release

  ==> Input File <==

--------------------------------------------------------------------------
#psi4
#
memory 32 gb

molecule  {
1 1
  N        0.3443604    -0.1476175    -0.3829832
  C       -0.2734970     1.1052870     0.1974480
  C       -0.8318510    -1.2416080    -0.1373660
  C       -1.7487720     1.0080340    -0.1478690
  C       -2.0899640    -0.4391570     0.2222400
  C        1.6014160    -0.6227950     0.2602130
  C        2.7021640     0.3718760    -0.0544870
  H        0.4198120    -0.0821770    -1.3354460
  H        0.2647170     1.9344670    -0.2636010
  H       -0.1049550     1.1121840     1.2781340
  H       -0.5119850    -1.9240980     0.6516280
  H       -0.9170180    -1.8004520    -1.0710850
  H       -1.9040400     1.1951860    -1.2159660
  H       -2.3418250     1.7391150     0.4059550
  H       -2.2892440    -0.5166410     1.2941000
  H       -2.9682270    -0.8151510    -0.3061210
  H        1.4364190    -0.7316030     1.3351050
  H        1.8217380    -1.6082590    -0.1583240
  H        2.8177600     0.5164630    -1.1327800
  H        2.5337300     1.3397110     0.4209800
  H        3.6474560    -0.0228690     0.3252770
units angstrom
no_reorient  #important for SAPT in psi4, default
symmetry c1  #important for SAPT in psi4, default
}

set PROPERTIES_ORIGIN ["COM"]
properties('MP2/aug-cc-pvtz', properties = ['dipole'])
--------------------------------------------------------------------------

    Molecular point group: c1
  Charge       = 1
  Multiplicity = 1
  Basis Set: AUG-CC-PVTZ
    Blend: AUG-CC-PVTZ
  Basis Set: (AUG-CC-PVTZ AUX)
    Blend: AUG-CC-PVTZ-JKFIT

    Orbital Energies [Eh]
    ---------------------

    Doubly Occupied:

       1A    -15.842240     2A    -11.458751     3A    -11.449641
       4A    -11.448979     5A    -11.394826     6A    -11.393702
       7A    -11.377259     8A     -1.487098     9A     -1.261279
      10A     -1.180518    11A     -1.173494    12A     -1.041197
      13A     -1.036246    14A     -0.978820    15A     -0.894701
      16A     -0.853241    17A     -0.829368    18A     -0.787083
      19A     -0.782675    20A     -0.756275    21A     -0.728718
      22A     -0.699826    23A     -0.687963    24A     -0.673162
      25A     -0.669549    26A     -0.659749    27A     -0.654964
      28A     -0.644082

  @DF-RHF Final Energy:  -289.69579015224161

   => Energetics <=

    Nuclear Repulsion Energy =            339.3354524805354799
    One-Electron Energy =               -1052.3716732872380817
    Two-Electron Energy =                 423.3404306544610449
    Total Energy =                       -289.6957901522416137
  Basis Set: (AUG-CC-PVTZ AUX)
    Blend: AUG-CC-PVTZ-RI
    Molecular point group: c1

    Geometry (in Angstrom), charge = 1, multiplicity = 1:

       Center              X                  Y                   Z               Mass
    ------------   -----------------  -----------------  -----------------  -----------------
         N            0.353796815572    -0.152122920432    -0.372483474144    14.003074004430
         C           -0.264060584428     1.100781579568     0.207947725856    12.000000000000
         C           -0.822414584428    -1.246113420432    -0.126866274144    12.000000000000
         C           -1.739335584428     1.003528579568    -0.137369274144    12.000000000000
         C           -2.080527584428    -0.443662420432     0.232739725856    12.000000000000
         C            1.610852415572    -0.627300420432     0.270712725856    12.000000000000
         C            2.711600415572     0.367370579568    -0.043987274144    12.000000000000
         H            0.429248415572    -0.086682420432    -1.324946274144     1.007825032230
         H            0.274153415572     1.929961579568    -0.253101274144     1.007825032230
         H           -0.095518584428     1.107678579568     1.288633725856     1.007825032230
         H           -0.502548584428    -1.928603420432     0.662127725856     1.007825032230
         H           -0.907581584428    -1.804957420432    -1.060585274144     1.007825032230
         H           -1.894603584428     1.190680579568    -1.205466274144     1.007825032230
         H           -2.332388584428     1.734609579568     0.416454725856     1.007825032230
         H           -2.279807584428    -0.521146420432     1.304599725856     1.007825032230
         H           -2.958790584428    -0.819656420432    -0.295621274144     1.007825032230
         H            1.445855415572    -0.736108420432     1.345604725856     1.007825032230
         H            1.831174415572    -1.612764420432    -0.147824274144     1.007825032230
         H            2.827196415572     0.511957579568    -1.122280274144     1.007825032230
         H            2.543166415572     1.335205579568     0.431479725856     1.007825032230
         H            3.656892415572    -0.027374420432     0.335776725856     1.007825032230

  Basis Set: AUG-CC-PVTZ
    Blend: AUG-CC-PVTZ
  Basis Set: (AUG-CC-PVTZ AUX)
    Blend: AUG-CC-PVTZ-JKFIT
	 Reference Energy          =    -289.6957901522416137 [Eh]
	 Singles Energy            =      -0.0000000000000000 [Eh]
	 Same-Spin Energy          =      -0.3028130835310406 [Eh]
	 Opposite-Spin Energy      =      -1.0925733793447776 [Eh]
	 Correlation Energy        =      -1.3953864628758184 [Eh]
	 Total Energy              =    -291.0911766151174334 [Eh]

	 ================> DF-SCS-MP2 Energies <==================
	-----------------------------------------------------------
	 SCS Same-Spin Scale       =       0.3333333333333333 [-]
	 SCS Opposite-Spin Scale   =       1.2000000000000000 [-]
	 SCS Same-Spin Energy      =      -0.1009376945103469 [Eh]
	 SCS Opposite-Spin Energy  =      -1.3110880552137332 [Eh]
	 SCS Correlation Energy    =      -1.4120257497240800 [Eh]
	 SCS Total Energy          =    -291.1078159019656937 [Eh]
	-----------------------------------------------------------

  Dipole Moment: [D]
     X:     0.5146      Y:    -0.5874      Z:    -0.6172     Total:     0.9954

*** Psi4 exiting successfully. Buy a developer a beer!
