                               Psi4 1.3.2 release

  ==> Input File <==

--------------------------------------------------------------------------
#psi4
#
memory 32 gb

molecule  {
1 1
  N        0.2769550    -0.2036720    -0.3241330
  C       -0.2734970     1.1052870     0.1974480
  C       -0.8267494    -1.2361666    -0.0844765
  C       -1.7487720     1.0080340    -0.1478690
  C       -2.0899640    -0.4391570     0.2222400
  C        1.6014160    -0.6227950     0.2602130
  C        2.7021640     0.3718760    -0.0544870
  H        0.4198120    -0.0821770    -1.3354460
  H        0.2647170     1.9344670    -0.2636010
  H       -0.1049550     1.1121840     1.2781340
  H       -0.5119850    -1.9240980     0.6516280
  H       -0.9170180    -1.8004520    -1.0710850
  H       -1.9040400     1.1951860    -1.2159660
  H       -2.3418250     1.7391150     0.4059550
  H       -2.2892440    -0.5166410     1.2941000
  H       -2.9682270    -0.8151510    -0.3061210
  H        1.4364190    -0.7316030     1.3351050
  H        1.8217380    -1.6082590    -0.1583240
  H        2.8177600     0.5164630    -1.1327800
  H        2.5337300     1.3397110     0.4209800
  H        3.6474560    -0.0228690     0.3252770
units angstrom
no_reorient  #important for SAPT in psi4, default
symmetry c1  #important for SAPT in psi4, default
}

set PROPERTIES_ORIGIN ["COM"]
properties('MP2/aug-cc-pvtz', properties = ['dipole'])
--------------------------------------------------------------------------

    Molecular point group: c1
  Charge       = 1
  Multiplicity = 1
  Basis Set: AUG-CC-PVTZ
    Blend: AUG-CC-PVTZ
  Basis Set: (AUG-CC-PVTZ AUX)
    Blend: AUG-CC-PVTZ-JKFIT

    Orbital Energies [Eh]
    ---------------------

    Doubly Occupied:

       1A    -15.850291     2A    -11.451508     3A    -11.451346
       4A    -11.449767     5A    -11.393583     6A    -11.390899
       7A    -11.381605     8A     -1.491252     9A     -1.260247
      10A     -1.182419    11A     -1.176868    12A     -1.040005
      13A     -1.027112    14A     -0.980836    15A     -0.901090
      16A     -0.856116    17A     -0.823709    18A     -0.787153
      19A     -0.775161    20A     -0.760309    21A     -0.730359
      22A     -0.695925    23A     -0.687575    24A     -0.676712
      25A     -0.673240    26A     -0.665237    27A     -0.657657
      28A     -0.639849

  @DF-RHF Final Energy:  -289.70267892692146

   => Energetics <=

    Nuclear Repulsion Energy =            340.2179148690912598
    One-Electron Energy =               -1054.1255297796158175
    Two-Electron Energy =                 424.2049359836030931
    Total Energy =                       -289.7026789269214646
  Basis Set: (AUG-CC-PVTZ AUX)
    Blend: AUG-CC-PVTZ-RI
    Molecular point group: c1

    Geometry (in Angstrom), charge = 1, multiplicity = 1:

       Center              X                  Y                   Z               Mass
    ------------   -----------------  -----------------  -----------------  -----------------
         N            0.295208121850    -0.200989131085    -0.328204440505    14.003074004430
         C           -0.255243878150     1.107969868915     0.193376559495    12.000000000000
         C           -0.808496278150    -1.233483731085    -0.088547940505    12.000000000000
         C           -1.730518878150     1.010716868915    -0.151940440505    12.000000000000
         C           -2.071710878150    -0.436474131085     0.218168559495    12.000000000000
         C            1.619669121850    -0.620112131085     0.256141559495    12.000000000000
         C            2.720417121850     0.374558868915    -0.058558440505    12.000000000000
         H            0.438065121850    -0.079494131085    -1.339517440505     1.007825032230
         H            0.282970121850     1.937149868915    -0.267672440505     1.007825032230
         H           -0.086701878150     1.114866868915     1.274062559495     1.007825032230
         H           -0.493731878150    -1.921415131085     0.647556559495     1.007825032230
         H           -0.898764878150    -1.797769131085    -1.075156440505     1.007825032230
         H           -1.885786878150     1.197868868915    -1.220037440505     1.007825032230
         H           -2.323571878150     1.741797868915     0.401883559495     1.007825032230
         H           -2.270990878150    -0.513958131085     1.290028559495     1.007825032230
         H           -2.949973878150    -0.812468131085    -0.310192440505     1.007825032230
         H            1.454672121850    -0.728920131085     1.331033559495     1.007825032230
         H            1.839991121850    -1.605576131085    -0.162395440505     1.007825032230
         H            2.836013121850     0.519145868915    -1.136851440505     1.007825032230
         H            2.551983121850     1.342393868915     0.416908559495     1.007825032230
         H            3.665709121850    -0.020186131085     0.321205559495     1.007825032230

  Basis Set: AUG-CC-PVTZ
    Blend: AUG-CC-PVTZ
  Basis Set: (AUG-CC-PVTZ AUX)
    Blend: AUG-CC-PVTZ-JKFIT
	 Reference Energy          =    -289.7026789269214646 [Eh]
	 Singles Energy            =      -0.0000000000000000 [Eh]
	 Same-Spin Energy          =      -0.3033622472380894 [Eh]
	 Opposite-Spin Energy      =      -1.0929796819405753 [Eh]
	 Correlation Energy        =      -1.3963419291786647 [Eh]
	 Total Energy              =    -291.0990208561001396 [Eh]

	 ================> DF-SCS-MP2 Energies <==================
	-----------------------------------------------------------
	 SCS Same-Spin Scale       =       0.3333333333333333 [-]
	 SCS Opposite-Spin Scale   =       1.2000000000000000 [-]
	 SCS Same-Spin Energy      =      -0.1011207490793631 [Eh]
	 SCS Opposite-Spin Energy  =      -1.3115756183286902 [Eh]
	 SCS Correlation Energy    =      -1.4126963674080533 [Eh]
	 SCS Total Energy          =    -291.1153752943295103 [Eh]
	-----------------------------------------------------------

  Dipole Moment: [D]
     X:     0.7277      Y:    -0.4694      Z:    -0.6950     Total:     1.1103

*** Psi4 exiting successfully. Buy a developer a beer!
