                               Psi4 1.3.2 release

  ==> Input File <==

--------------------------------------------------------------------------
#psi4
#
memory 32 gb

molecule  {
1 1
  N        0.2659141    -0.2253034    -0.3140311
  C       -0.2734970     1.1052870     0.1974480
  C       -0.8318510    -1.2416080    -0.1373660
  C       -1.7487720     1.0080340    -0.1478690
  C       -2.0899640    -0.4391570     0.2222400
  C        1.6014160    -0.6227950     0.2602130
  C        2.7021640     0.3718760    -0.0544870
  H        0.4198120    -0.0821770    -1.3354460
  H        0.2647170     1.9344670    -0.2636010
  H       -0.1049550     1.1121840     1.2781340
  H       -0.5119850    -1.9240980     0.6516280
  H       -0.9170180    -1.8004520    -1.0710850
  H       -1.9040400     1.1951860    -1.2159660
  H       -2.3418250     1.7391150     0.4059550
  H       -2.2892440    -0.5166410     1.2941000
  H       -2.9682270    -0.8151510    -0.3061210
  H        1.4364190    -0.7316030     1.3351050
  H        1.8217380    -1.6082590    -0.1583240
  H        2.8177600     0.5164630    -1.1327800
  H        2.5337300     1.3397110     0.4209800
  H        3.6474560    -0.0228690     0.3252770
units angstrom
no_reorient  #important for SAPT in psi4, default
symmetry c1  #important for SAPT in psi4, default
}

set PROPERTIES_ORIGIN ["COM"]
properties('MP2/aug-cc-pvtz', properties = ['dipole'])
--------------------------------------------------------------------------

    Molecular point group: c1
  Charge       = 1
  Multiplicity = 1
  Basis Set: AUG-CC-PVTZ
    Blend: AUG-CC-PVTZ
  Basis Set: (AUG-CC-PVTZ AUX)
    Blend: AUG-CC-PVTZ-JKFIT

    Orbital Energies [Eh]
    ---------------------

    Doubly Occupied:

       1A    -15.851117     2A    -11.451615     3A    -11.450876
       4A    -11.448285     5A    -11.393166     6A    -11.391051
       7A    -11.382532     8A     -1.491624     9A     -1.259118
      10A     -1.185790    11A     -1.173883    12A     -1.041108
      13A     -1.021864    14A     -0.981762    15A     -0.903713
      16A     -0.853778    17A     -0.824048    18A     -0.784646
      19A     -0.772619    20A     -0.764457    21A     -0.728244
      22A     -0.694919    23A     -0.689396    24A     -0.680248
      25A     -0.670452    26A     -0.663755    27A     -0.657326
      28A     -0.642669

  @DF-RHF Final Energy:  -289.70503127667160

   => Energetics <=

    Nuclear Repulsion Energy =            340.1210069493141077
    One-Electron Energy =               -1053.9439527451552294
    Two-Electron Energy =                 424.1179145191695739
    Total Energy =                       -289.7050312766716047
  Basis Set: (AUG-CC-PVTZ AUX)
    Blend: AUG-CC-PVTZ-RI
    Molecular point group: c1

    Geometry (in Angstrom), charge = 1, multiplicity = 1:

       Center              X                  Y                   Z               Mass
    ------------   -----------------  -----------------  -----------------  -----------------
         N            0.286323051256    -0.218942644335    -0.313175925611    14.003074004430
         C           -0.253088048744     1.111647755665     0.198303174389    12.000000000000
         C           -0.811442048744    -1.235247244335    -0.136510825611    12.000000000000
         C           -1.728363048744     1.014394755665    -0.147013825611    12.000000000000
         C           -2.069555048744    -0.432796244335     0.223095174389    12.000000000000
         C            1.621824951256    -0.616434244335     0.261068174389    12.000000000000
         C            2.722572951256     0.378236755665    -0.053631825611    12.000000000000
         H            0.440220951256    -0.075816244335    -1.334590825611     1.007825032230
         H            0.285125951256     1.940827755665    -0.262745825611     1.007825032230
         H           -0.084546048744     1.118544755665     1.278989174389     1.007825032230
         H           -0.491576048744    -1.917737244335     0.652483174389     1.007825032230
         H           -0.896609048744    -1.794091244335    -1.070229825611     1.007825032230
         H           -1.883631048744     1.201546755665    -1.215110825611     1.007825032230
         H           -2.321416048744     1.745475755665     0.406810174389     1.007825032230
         H           -2.268835048744    -0.510280244335     1.294955174389     1.007825032230
         H           -2.947818048744    -0.808790244335    -0.305265825611     1.007825032230
         H            1.456827951256    -0.725242244335     1.335960174389     1.007825032230
         H            1.842146951256    -1.601898244335    -0.157468825611     1.007825032230
         H            2.838168951256     0.522823755665    -1.131924825611     1.007825032230
         H            2.554138951256     1.346071755665     0.421835174389     1.007825032230
         H            3.667864951256    -0.016508244335     0.326132174389     1.007825032230

  Basis Set: AUG-CC-PVTZ
    Blend: AUG-CC-PVTZ
  Basis Set: (AUG-CC-PVTZ AUX)
    Blend: AUG-CC-PVTZ-JKFIT
	 Reference Energy          =    -289.7050312766716047 [Eh]
	 Singles Energy            =      -0.0000000000000000 [Eh]
	 Same-Spin Energy          =      -0.3034314961202960 [Eh]
	 Opposite-Spin Energy      =      -1.0930416902140121 [Eh]
	 Correlation Energy        =      -1.3964731863343081 [Eh]
	 Total Energy              =    -291.1015044630059379 [Eh]

	 ================> DF-SCS-MP2 Energies <==================
	-----------------------------------------------------------
	 SCS Same-Spin Scale       =       0.3333333333333333 [-]
	 SCS Opposite-Spin Scale   =       1.2000000000000000 [-]
	 SCS Same-Spin Energy      =      -0.1011438320400986 [Eh]
	 SCS Opposite-Spin Energy  =      -1.3116500282568144 [Eh]
	 SCS Correlation Energy    =      -1.4127938602969130 [Eh]
	 SCS Total Energy          =    -291.1178251369685199 [Eh]
	-----------------------------------------------------------

  Dipole Moment: [D]
     X:     0.7615      Y:    -0.4303      Z:    -0.7170     Total:     1.1309

*** Psi4 exiting successfully. Buy a developer a beer!
