                               Psi4 1.3.2 release

  ==> Input File <==

--------------------------------------------------------------------------
#psi4
#
memory 32 gb

molecule  {
1 1
  N        0.2596715    -0.2166992    -0.3090119
  C       -0.2734970     1.1052870     0.1974480
  C       -0.8318510    -1.2416080    -0.1373660
  C       -1.7487720     1.0080340    -0.1478690
  C       -2.0899640    -0.4391570     0.2222400
  C        1.6014160    -0.6227950     0.2602130
  C        2.7021640     0.3718760    -0.0544870
  H        0.4198120    -0.0821770    -1.3354460
  H        0.2647170     1.9344670    -0.2636010
  H       -0.1049550     1.1121840     1.2781340
  H       -0.5119850    -1.9240980     0.6516280
  H       -0.9170180    -1.8004520    -1.0710850
  H       -1.9040400     1.1951860    -1.2159660
  H       -2.3418250     1.7391150     0.4059550
  H       -2.2892440    -0.5166410     1.2941000
  H       -2.9682270    -0.8151510    -0.3061210
  H        1.4364190    -0.7316030     1.3351050
  H        1.8217380    -1.6082590    -0.1583240
  H        2.8177600     0.5164630    -1.1327800
  H        2.5337300     1.3397110     0.4209800
  H        3.6474560    -0.0228690     0.3252770
units angstrom
no_reorient  #important for SAPT in psi4, default
symmetry c1  #important for SAPT in psi4, default
}

set PROPERTIES_ORIGIN ["COM"]
properties('MP2/aug-cc-pvtz', properties = ['dipole'])
--------------------------------------------------------------------------

    Molecular point group: c1
  Charge       = 1
  Multiplicity = 1
  Basis Set: AUG-CC-PVTZ
    Blend: AUG-CC-PVTZ
  Basis Set: (AUG-CC-PVTZ AUX)
    Blend: AUG-CC-PVTZ-JKFIT

    Orbital Energies [Eh]
    ---------------------

    Doubly Occupied:

       1A    -15.851524     2A    -11.452329     3A    -11.449814
       4A    -11.448375     5A    -11.392836     6A    -11.390784
       7A    -11.382699     8A     -1.492222     9A     -1.258600
      10A     -1.185672    11A     -1.174888    12A     -1.040601
      13A     -1.020936    14A     -0.981967    15A     -0.904325
      16A     -0.854147    17A     -0.824062    18A     -0.784681
      19A     -0.771981    20A     -0.763751    21A     -0.729602
      22A     -0.694318    23A     -0.689914    24A     -0.679015
      25A     -0.671148    26A     -0.663826    27A     -0.657266
      28A     -0.642564

  @DF-RHF Final Energy:  -289.70480739353860

   => Energetics <=

    Nuclear Repulsion Energy =            340.2108868988564723
    One-Electron Energy =               -1054.1236943239050561
    Two-Electron Energy =                 424.2080000315100392
    Total Energy =                       -289.7048073935386014
  Basis Set: (AUG-CC-PVTZ AUX)
    Blend: AUG-CC-PVTZ-RI
    Molecular point group: c1

    Geometry (in Angstrom), charge = 1, multiplicity = 1:

       Center              X                  Y                   Z               Mass
    ------------   -----------------  -----------------  -----------------  -----------------
         N            0.280953623748    -0.211541941397    -0.308858777220    14.003074004430
         C           -0.252214876252     1.110444258603     0.197601122780    12.000000000000
         C           -0.810568876252    -1.236450741397    -0.137212877220    12.000000000000
         C           -1.727489876252     1.013191258603    -0.147715877220    12.000000000000
         C           -2.068681876252    -0.433999741397     0.222393122780    12.000000000000
         C            1.622698123748    -0.617637741397     0.260366122780    12.000000000000
         C            2.723446123748     0.377033258603    -0.054333877220    12.000000000000
         H            0.441094123748    -0.077019741397    -1.335292877220     1.007825032230
         H            0.285999123748     1.939624258603    -0.263447877220     1.007825032230
         H           -0.083672876252     1.117341258603     1.278287122780     1.007825032230
         H           -0.490702876252    -1.918940741397     0.651781122780     1.007825032230
         H           -0.895735876252    -1.795294741397    -1.070931877220     1.007825032230
         H           -1.882757876252     1.200343258603    -1.215812877220     1.007825032230
         H           -2.320542876252     1.744272258603     0.406108122780     1.007825032230
         H           -2.267961876252    -0.511483741397     1.294253122780     1.007825032230
         H           -2.946944876252    -0.809993741397    -0.305967877220     1.007825032230
         H            1.457701123748    -0.726445741397     1.335258122780     1.007825032230
         H            1.843020123748    -1.603101741397    -0.158170877220     1.007825032230
         H            2.839042123748     0.521620258603    -1.132626877220     1.007825032230
         H            2.555012123748     1.344868258603     0.421133122780     1.007825032230
         H            3.668738123748    -0.017711741397     0.325430122780     1.007825032230

  Basis Set: AUG-CC-PVTZ
    Blend: AUG-CC-PVTZ
  Basis Set: (AUG-CC-PVTZ AUX)
    Blend: AUG-CC-PVTZ-JKFIT
	 Reference Energy          =    -289.7048073935386014 [Eh]
	 Singles Energy            =      -0.0000000000000000 [Eh]
	 Same-Spin Energy          =      -0.3034922076747115 [Eh]
	 Opposite-Spin Energy      =      -1.0931235739731573 [Eh]
	 Correlation Energy        =      -1.3966157816478688 [Eh]
	 Total Energy              =    -291.1014231751864827 [Eh]

	 ================> DF-SCS-MP2 Energies <==================
	-----------------------------------------------------------
	 SCS Same-Spin Scale       =       0.3333333333333333 [-]
	 SCS Opposite-Spin Scale   =       1.2000000000000000 [-]
	 SCS Same-Spin Energy      =      -0.1011640692249038 [Eh]
	 SCS Opposite-Spin Energy  =      -1.3117482887677887 [Eh]
	 SCS Correlation Energy    =      -1.4129123579926925 [Eh]
	 SCS Total Energy          =    -291.1177197515312969 [Eh]
	-----------------------------------------------------------

  Dipole Moment: [D]
     X:     0.7821      Y:    -0.4488      Z:    -0.7246     Total:     1.1567

*** Psi4 exiting successfully. Buy a developer a beer!
