                               Psi4 1.3.2 release

  ==> Input File <==

--------------------------------------------------------------------------
#psi4
#
memory 32 gb

molecule  {
1 1
  N        0.2940708    -0.1902461    -0.3390952
  C       -0.2734970     1.1052870     0.1974480
  C       -0.8318510    -1.2416080    -0.1373660
  C       -1.7487720     1.0080340    -0.1478690
  C       -2.0899640    -0.4391570     0.2222400
  C        1.6014160    -0.6227950     0.2602130
  C        2.7021640     0.3718760    -0.0544870
  H        0.4198120    -0.0821770    -1.3354460
  H        0.2647170     1.9344670    -0.2636010
  H       -0.1049550     1.1121840     1.2781340
  H       -0.5119850    -1.9240980     0.6516280
  H       -0.9170180    -1.8004520    -1.0710850
  H       -1.9040400     1.1951860    -1.2159660
  H       -2.3418250     1.7391150     0.4059550
  H       -2.2892440    -0.5166410     1.2941000
  H       -2.9682270    -0.8151510    -0.3061210
  H        1.4364190    -0.7316030     1.3351050
  H        1.8217380    -1.6082590    -0.1583240
  H        2.8177600     0.5164630    -1.1327800
  H        2.5337300     1.3397110     0.4209800
  H        3.6474560    -0.0228690     0.3252770
units angstrom
no_reorient  #important for SAPT in psi4, default
symmetry c1  #important for SAPT in psi4, default
}

set PROPERTIES_ORIGIN ["COM"]
properties('MP2/aug-cc-pvtz', properties = ['dipole'])
--------------------------------------------------------------------------

    Molecular point group: c1
  Charge       = 1
  Multiplicity = 1
  Basis Set: AUG-CC-PVTZ
    Blend: AUG-CC-PVTZ
  Basis Set: (AUG-CC-PVTZ AUX)
    Blend: AUG-CC-PVTZ-JKFIT

    Orbital Energies [Eh]
    ---------------------

    Doubly Occupied:

       1A    -15.848210     2A    -11.452532     3A    -11.450707
       4A    -11.449642     5A    -11.393634     6A    -11.391905
       7A    -11.380505     8A     -1.489670     9A     -1.259812
      10A     -1.180911    11A     -1.176277    12A     -1.039833
      13A     -1.028368    14A     -0.980518    15A     -0.900573
      16A     -0.853497    17A     -0.825917    18A     -0.785050
      19A     -0.776981    20A     -0.760209    21A     -0.729488
      22A     -0.694940    23A     -0.688305    24A     -0.679069
      25A     -0.670937    26A     -0.663388    27A     -0.656904
      28A     -0.643397

  @DF-RHF Final Energy:  -289.70589881901361

   => Energetics <=

    Nuclear Repulsion Energy =            339.8565182306181782
    One-Electron Energy =               -1053.4224768512453920
    Two-Electron Energy =                 423.8600598016136587
    Total Energy =                       -289.7058988190136120
  Basis Set: (AUG-CC-PVTZ AUX)
    Blend: AUG-CC-PVTZ-RI
    Molecular point group: c1

    Geometry (in Angstrom), charge = 1, multiplicity = 1:

       Center              X                  Y                   Z               Mass
    ------------   -----------------  -----------------  -----------------  -----------------
         N            0.310541383284    -0.188788921371    -0.334734229523    14.003074004430
         C           -0.257026416716     1.106744178629     0.201808970477    12.000000000000
         C           -0.815380416716    -1.240150821371    -0.133005029523    12.000000000000
         C           -1.732301416716     1.009491178629    -0.143508029523    12.000000000000
         C           -2.073493416716    -0.437699821371     0.226600970477    12.000000000000
         C            1.617886583284    -0.621337821371     0.264573970477    12.000000000000
         C            2.718634583284     0.373333178629    -0.050126029523    12.000000000000
         H            0.436282583284    -0.080719821371    -1.331085029523     1.007825032230
         H            0.281187583284     1.935924178629    -0.259240029523     1.007825032230
         H           -0.088484416716     1.113641178629     1.282494970477     1.007825032230
         H           -0.495514416716    -1.922640821371     0.655988970477     1.007825032230
         H           -0.900547416716    -1.798994821371    -1.066724029523     1.007825032230
         H           -1.887569416716     1.196643178629    -1.211605029523     1.007825032230
         H           -2.325354416716     1.740572178629     0.410315970477     1.007825032230
         H           -2.272773416716    -0.515183821371     1.298460970477     1.007825032230
         H           -2.951756416716    -0.813693821371    -0.301760029523     1.007825032230
         H            1.452889583284    -0.730145821371     1.339465970477     1.007825032230
         H            1.838208583284    -1.606801821371    -0.153963029523     1.007825032230
         H            2.834230583284     0.517920178629    -1.128419029523     1.007825032230
         H            2.550200583284     1.341168178629     0.425340970477     1.007825032230
         H            3.663926583284    -0.021411821371     0.329637970477     1.007825032230

  Basis Set: AUG-CC-PVTZ
    Blend: AUG-CC-PVTZ
  Basis Set: (AUG-CC-PVTZ AUX)
    Blend: AUG-CC-PVTZ-JKFIT
	 Reference Energy          =    -289.7058988190136120 [Eh]
	 Singles Energy            =      -0.0000000000000000 [Eh]
	 Same-Spin Energy          =      -0.3030509323951122 [Eh]
	 Opposite-Spin Energy      =      -1.0925342925856611 [Eh]
	 Correlation Energy        =      -1.3955852249807734 [Eh]
	 Total Energy              =    -291.1014840439943896 [Eh]

	 ================> DF-SCS-MP2 Energies <==================
	-----------------------------------------------------------
	 SCS Same-Spin Scale       =       0.3333333333333333 [-]
	 SCS Opposite-Spin Scale   =       1.2000000000000000 [-]
	 SCS Same-Spin Energy      =      -0.1010169774650374 [Eh]
	 SCS Opposite-Spin Energy  =      -1.3110411511027933 [Eh]
	 SCS Correlation Energy    =      -1.4120581285678306 [Eh]
	 SCS Total Energy          =    -291.1179569475814333 [Eh]
	-----------------------------------------------------------

  Dipole Moment: [D]
     X:     0.6746      Y:    -0.5028      Z:    -0.6833     Total:     1.0839

*** Psi4 exiting successfully. Buy a developer a beer!
