                               Psi4 1.4a3.dev225

  ==> Input File <==

--------------------------------------------------------------------------
#psi4
#
memory 32 gb

molecule  {
0 1
  F       -1.9734470     0.4735540    -0.9939180
  F       -1.9413570    -1.5269070    -0.1417860
  F       -1.9373460     0.2097040     1.1676710
  C        0.0587940    -0.2544720    -0.0183930
  C        0.7438138     1.0260390     0.0087149
  C        0.7507890    -1.4682550    -0.0178400
  C        2.1403840     0.9368280     0.0127460
  C       -1.4402130    -0.2782400     0.0012850
  C        0.0310770     2.3081630    -0.0188960
  C        2.1451100    -1.4771990    -0.0107000
  C        2.8415060    -0.2700650     0.0090350
  H        0.1981450    -2.4017980    -0.0309650
  H        2.6907970     1.8755160     0.0309210
  H       -0.3505540     2.5311140    -1.0192600
  H       -0.8159800     2.3277740     0.6689790
  H        0.7236060     3.1036700     0.2672330
  H        2.6805350    -2.4229320    -0.0122850
  H        3.9287950    -0.2645730     0.0170060
units angstrom
no_reorient  #important for SAPT in psi4, default
symmetry c1  #important for SAPT in psi4, default
}

set PROPERTIES_ORIGIN ["COM"]
properties('MP2/aug-cc-pvtz', properties = ['dipole'])
--------------------------------------------------------------------------

    Molecular point group: c1
  Charge       = 0
  Multiplicity = 1
  Basis Set: AUG-CC-PVTZ
    Blend: AUG-CC-PVTZ
  Basis Set: (AUG-CC-PVTZ AUX)
    Blend: AUG-CC-PVTZ-JKFIT

    Orbital Energies [Eh]
    ---------------------

    Doubly Occupied:

       1A    -26.334601     2A    -26.331544     3A    -26.330588
       4A    -11.507718     5A    -11.273523     6A    -11.268140
       7A    -11.259959     8A    -11.256987     9A    -11.248933
      10A    -11.248164    11A    -11.232933    12A     -1.716817
      13A     -1.625987    14A     -1.622807    15A     -1.176824
      16A     -1.072603    17A     -1.060308    18A     -0.976082
      19A     -0.937124    20A     -0.861502    21A     -0.832782
      22A     -0.810995    23A     -0.802111    24A     -0.773505
      25A     -0.704253    26A     -0.703856    27A     -0.689161
      28A     -0.665286    29A     -0.656376    30A     -0.649559
      31A     -0.643486    32A     -0.633972    33A     -0.592062
      34A     -0.588516    35A     -0.581619    36A     -0.554996
      37A     -0.515740    38A     -0.505927    39A     -0.500799
      40A     -0.359502    41A     -0.341079

  @DF-RHF Final Energy:  -605.57347035263604

   => Energetics <=

    Nuclear Repulsion Energy =            631.5104240037277350
    One-Electron Energy =               -2087.2703343299308472
    Two-Electron Energy =                 850.1864399735671896
    Total Energy =                       -605.5734703526360363
  Basis Set: (AUG-CC-PVTZ AUX)
    Blend: AUG-CC-PVTZ-RI
    Molecular point group: c1

    Geometry (in Angstrom), charge = 0, multiplicity = 1:

       Center              X                  Y                   Z               Mass
    ------------   -----------------  -----------------  -----------------  -----------------
         F           -1.880974806787     0.504597211610    -0.994666269352    18.998403162730
         F           -1.848884806787    -1.495863788390    -0.142534269352    18.998403162730
         F           -1.844873806787     0.240747211610     1.166922730648    18.998403162730
         C            0.151266193213    -0.223428788390    -0.019141269352    12.000000000000
         C            0.836285993213     1.057082211610     0.007966630648    12.000000000000
         C            0.843261193213    -1.437211788390    -0.018588269352    12.000000000000
         C            2.232856193213     0.967871211610     0.011997730648    12.000000000000
         C           -1.347740806787    -0.247196788390     0.000536730648    12.000000000000
         C            0.123549193213     2.339206211610    -0.019644269352    12.000000000000
         C            2.237582193213    -1.446155788390    -0.011448269352    12.000000000000
         C            2.933978193213    -0.239021788390     0.008286730648    12.000000000000
         H            0.290617193213    -2.370754788390    -0.031713269352     1.007825032230
         H            2.783269193213     1.906559211610     0.030172730648     1.007825032230
         H           -0.258081806787     2.562157211610    -1.020008269352     1.007825032230
         H           -0.723507806787     2.358817211610     0.668230730648     1.007825032230
         H            0.816078193213     3.134713211610     0.266484730648     1.007825032230
         H            2.773007193213    -2.391888788390    -0.013033269352     1.007825032230
         H            4.021267193213    -0.233529788390     0.016257730648     1.007825032230

  Basis Set: AUG-CC-PVTZ
    Blend: AUG-CC-PVTZ
  Basis Set: (AUG-CC-PVTZ AUX)
    Blend: AUG-CC-PVTZ-JKFIT
	 Reference Energy          =    -605.5734703526360363 [Eh]
	 Singles Energy            =      -0.0000000000000000 [Eh]
	 Same-Spin Energy          =      -0.5637972976295857 [Eh]
	 Opposite-Spin Energy      =      -1.6981014531759346 [Eh]
	 Correlation Energy        =      -2.2618987508055204 [Eh]
	 Total Energy              =    -607.8353691034415078 [Eh]

	 ================> DF-SCS-MP2 Energies <==================
	-----------------------------------------------------------
	 SCS Same-Spin Scale       =       0.3333333333333333 [-]
	 SCS Opposite-Spin Scale   =       1.2000000000000000 [-]
	 SCS Same-Spin Energy      =      -0.1879324325431952 [Eh]
	 SCS Opposite-Spin Energy  =      -2.0377217438111215 [Eh]
	 SCS Correlation Energy    =      -2.2256541763543165 [Eh]
	 SCS Total Energy          =    -607.7991245289903190 [Eh]
	-----------------------------------------------------------

  Dipole Moment: [D]
     X:     2.5665      Y:     0.4802      Z:    -0.0663     Total:     2.6119

*** Psi4 exiting successfully. Buy a developer a beer!
