                               Psi4 1.4a3.dev225

  ==> Input File <==

--------------------------------------------------------------------------
#psi4
#
memory 32 gb

molecule  {
0 1
  F       -1.9734470     0.4735540    -0.9939180
  F       -1.9413570    -1.5269070    -0.1417860
  F       -1.9373460     0.2097040     1.1676710
  C        0.0587940    -0.2544720    -0.0183930
  C        0.7415540     0.9772520     0.0078750
  C        0.7507890    -1.4682550    -0.0178400
  C        2.1403840     0.9368280     0.0127460
  C       -1.4402130    -0.2782400     0.0012850
  C        0.0310770     2.3081630    -0.0188960
  C        2.1451100    -1.4771990    -0.0107000
  C        2.8415060    -0.2700650     0.0090350
  H        0.1981450    -2.4017980    -0.0309650
  H        2.6907970     1.8755160     0.0309210
  H       -0.3505540     2.5311140    -1.0192600
  H       -0.8159800     2.3277740     0.6689790
  H        0.8503454     3.2492554     0.3195973
  H        2.6805350    -2.4229320    -0.0122850
  H        3.9287950    -0.2645730     0.0170060
units angstrom
no_reorient  #important for SAPT in psi4, default
symmetry c1  #important for SAPT in psi4, default
}

set PROPERTIES_ORIGIN ["COM"]
properties('MP2/aug-cc-pvtz', properties = ['dipole'])
--------------------------------------------------------------------------

    Molecular point group: c1
  Charge       = 0
  Multiplicity = 1
  Basis Set: AUG-CC-PVTZ
    Blend: AUG-CC-PVTZ
  Basis Set: (AUG-CC-PVTZ AUX)
    Blend: AUG-CC-PVTZ-JKFIT

    Orbital Energies [Eh]
    ---------------------

    Doubly Occupied:

       1A    -26.336523     2A    -26.333474     3A    -26.332321
       4A    -11.510005     5A    -11.272389     6A    -11.266603
       7A    -11.260634     8A    -11.257011     9A    -11.256632
      10A    -11.249644    11A    -11.248665    12A     -1.718672
      13A     -1.627838    14A     -1.624582    15A     -1.181420
      16A     -1.072474    17A     -1.055536    18A     -0.971770
      19A     -0.931767    20A     -0.862970    21A     -0.834797
      22A     -0.812808    23A     -0.804738    24A     -0.774620
      25A     -0.705993    26A     -0.705195    27A     -0.689721
      28A     -0.665132    29A     -0.658090    30A     -0.646731
      31A     -0.645039    32A     -0.635722    33A     -0.590826
      34A     -0.587221    35A     -0.581731    36A     -0.528345
      37A     -0.510182    38A     -0.508531    39A     -0.496464
      40A     -0.361255    41A     -0.345093

  @DF-RHF Final Energy:  -605.55703062741020

   => Energetics <=

    Nuclear Repulsion Energy =            631.1519951350190922
    One-Electron Energy =               -2086.4997268196443656
    Two-Electron Energy =                 849.7907010572149602
    Total Energy =                       -605.5570306274101995
  Basis Set: (AUG-CC-PVTZ AUX)
    Blend: AUG-CC-PVTZ-RI
    Molecular point group: c1

    Geometry (in Angstrom), charge = 0, multiplicity = 1:

       Center              X                  Y                   Z               Mass
    ------------   -----------------  -----------------  -----------------  -----------------
         F           -1.881603445022     0.507338351451    -0.994933031341    18.998403162730
         F           -1.849513445022    -1.493122648549    -0.142801031341    18.998403162730
         F           -1.845502445022     0.243488351451     1.166655968659    18.998403162730
         C            0.150637554978    -0.220687648549    -0.019408031341    12.000000000000
         C            0.833397554978     1.011036351451     0.006859968659    12.000000000000
         C            0.842632554978    -1.434470648549    -0.018855031341    12.000000000000
         C            2.232227554978     0.970612351451     0.011730968659    12.000000000000
         C           -1.348369445022    -0.244455648549     0.000269968659    12.000000000000
         C            0.122920554978     2.341947351451    -0.019911031341    12.000000000000
         C            2.236953554978    -1.443414648549    -0.011715031341    12.000000000000
         C            2.933349554978    -0.236280648549     0.008019968659    12.000000000000
         H            0.289988554978    -2.368013648549    -0.031980031341     1.007825032230
         H            2.782640554978     1.909300351451     0.029905968659     1.007825032230
         H           -0.258710445022     2.564898351451    -1.020275031341     1.007825032230
         H           -0.724136445022     2.361558351451     0.667963968659     1.007825032230
         H            0.942188954978     3.283039751451     0.318582268659     1.007825032230
         H            2.772378554978    -2.389147648549    -0.013300031341     1.007825032230
         H            4.020638554978    -0.230788648549     0.015990968659     1.007825032230

  Basis Set: AUG-CC-PVTZ
    Blend: AUG-CC-PVTZ
  Basis Set: (AUG-CC-PVTZ AUX)
    Blend: AUG-CC-PVTZ-JKFIT
	 Reference Energy          =    -605.5570306274101995 [Eh]
	 Singles Energy            =      -0.0000000000000000 [Eh]
	 Same-Spin Energy          =      -0.5634608282804163 [Eh]
	 Opposite-Spin Energy      =      -1.6991661703644563 [Eh]
	 Correlation Energy        =      -2.2626269986448726 [Eh]
	 Total Energy              =    -607.8196576260551183 [Eh]

	 ================> DF-SCS-MP2 Energies <==================
	-----------------------------------------------------------
	 SCS Same-Spin Scale       =       0.3333333333333333 [-]
	 SCS Opposite-Spin Scale   =       1.2000000000000000 [-]
	 SCS Same-Spin Energy      =      -0.1878202760934721 [Eh]
	 SCS Opposite-Spin Energy  =      -2.0389994044373476 [Eh]
	 SCS Correlation Energy    =      -2.2268196805308196 [Eh]
	 SCS Total Energy          =    -607.7838503079410657 [Eh]
	-----------------------------------------------------------

  Dipole Moment: [D]
     X:     2.5517      Y:     0.2981      Z:    -0.0878     Total:     2.5705

*** Psi4 exiting successfully. Buy a developer a beer!
