                               Psi4 1.4a3.dev225

  ==> Input File <==

--------------------------------------------------------------------------
#psi4
#
memory 32 gb

molecule  {
0 1
  F       -1.9734470     0.4735540    -0.9939180
  F       -1.9413570    -1.5269070    -0.1417860
  F       -1.9373460     0.2097040     1.1676710
  C        0.0587940    -0.2544720    -0.0183930
  C        0.7415540     0.9772520     0.0078750
  C        0.7507890    -1.4682550    -0.0178400
  C        2.1403840     0.9368280     0.0127460
  C       -1.4402130    -0.2782400     0.0012850
  C        0.0310770     2.3081630    -0.0188960
  C        2.1451100    -1.4771990    -0.0107000
  C        2.8415060    -0.2700650     0.0090350
  H        0.1981450    -2.4017980    -0.0309650
  H        2.6907970     1.8755160     0.0309210
  H       -0.3505540     2.5311140    -1.0192600
  H       -0.8582186     2.2395331     0.6099962
  H        0.7236060     3.1036700     0.2672330
  H        2.6805350    -2.4229320    -0.0122850
  H        3.9287950    -0.2645730     0.0170060
units angstrom
no_reorient  #important for SAPT in psi4, default
symmetry c1  #important for SAPT in psi4, default
}

set PROPERTIES_ORIGIN ["COM"]
properties('MP2/aug-cc-pvtz', properties = ['dipole'])
--------------------------------------------------------------------------

    Molecular point group: c1
  Charge       = 0
  Multiplicity = 1
  Basis Set: AUG-CC-PVTZ
    Blend: AUG-CC-PVTZ
  Basis Set: (AUG-CC-PVTZ AUX)
    Blend: AUG-CC-PVTZ-JKFIT

    Orbital Energies [Eh]
    ---------------------

    Doubly Occupied:

       1A    -26.335831     2A    -26.332547     3A    -26.331920
       4A    -11.509139     5A    -11.269913     6A    -11.264589
       7A    -11.259761     8A    -11.256554     9A    -11.248405
      10A    -11.247743    11A    -11.234179    12A     -1.718071
      13A     -1.627162    14A     -1.624086    15A     -1.180554
      16A     -1.072271    17A     -1.057121    18A     -0.973872
      19A     -0.937366    20A     -0.862462    21A     -0.836686
      22A     -0.812216    23A     -0.804328    24A     -0.774036
      25A     -0.705388    26A     -0.704739    27A     -0.688995
      28A     -0.667508    29A     -0.657445    30A     -0.649364
      31A     -0.644667    32A     -0.634635    33A     -0.589733
      34A     -0.583103    35A     -0.575720    36A     -0.562225
      37A     -0.510258    38A     -0.508252    39A     -0.504489
      40A     -0.360438    41A     -0.343318

  @DF-RHF Final Energy:  -605.57599341056164

   => Energetics <=

    Nuclear Repulsion Energy =            632.3560201075180203
    One-Electron Energy =               -2088.9418493592957020
    Two-Electron Energy =                 851.0098358412161588
    Total Energy =                       -605.5759934105616367
  Basis Set: (AUG-CC-PVTZ AUX)
    Blend: AUG-CC-PVTZ-RI
    Molecular point group: c1

    Geometry (in Angstrom), charge = 0, multiplicity = 1:

       Center              X                  Y                   Z               Mass
    ------------   -----------------  -----------------  -----------------  -----------------
         F           -1.880539400820     0.508810741459    -0.994231885416    18.998403162730
         F           -1.848449400820    -1.491650258541    -0.142099885416    18.998403162730
         F           -1.844438400820     0.244960741459     1.167357114584    18.998403162730
         C            0.151701599180    -0.219215258541    -0.018706885416    12.000000000000
         C            0.834461599180     1.012508741459     0.007561114584    12.000000000000
         C            0.843696599180    -1.432998258541    -0.018153885416    12.000000000000
         C            2.233291599180     0.972084741459     0.012432114584    12.000000000000
         C           -1.347305400820    -0.242983258541     0.000971114584    12.000000000000
         C            0.123984599180     2.343419741459    -0.019209885416    12.000000000000
         C            2.238017599180    -1.441942258541    -0.011013885416    12.000000000000
         C            2.934413599180    -0.234808258541     0.008721114584    12.000000000000
         H            0.291052599180    -2.366541258541    -0.031278885416     1.007825032230
         H            2.783704599180     1.910772741459     0.030607114584     1.007825032230
         H           -0.257646400820     2.566370741459    -1.019573885416     1.007825032230
         H           -0.765311000820     2.274789841459     0.609682314584     1.007825032230
         H            0.816513599180     3.138926741459     0.266919114584     1.007825032230
         H            2.773442599180    -2.387675258541    -0.012598885416     1.007825032230
         H            4.021702599180    -0.229316258541     0.016692114584     1.007825032230

  Basis Set: AUG-CC-PVTZ
    Blend: AUG-CC-PVTZ
  Basis Set: (AUG-CC-PVTZ AUX)
    Blend: AUG-CC-PVTZ-JKFIT
	 Reference Energy          =    -605.5759934105616367 [Eh]
	 Singles Energy            =      -0.0000000000000000 [Eh]
	 Same-Spin Energy          =      -0.5635166791041926 [Eh]
	 Opposite-Spin Energy      =      -1.6975315429123119 [Eh]
	 Correlation Energy        =      -2.2610482220165045 [Eh]
	 Total Energy              =    -607.8370416325781207 [Eh]

	 ================> DF-SCS-MP2 Energies <==================
	-----------------------------------------------------------
	 SCS Same-Spin Scale       =       0.3333333333333333 [-]
	 SCS Opposite-Spin Scale   =       1.2000000000000000 [-]
	 SCS Same-Spin Energy      =      -0.1878388930347308 [Eh]
	 SCS Opposite-Spin Energy  =      -2.0370378514947740 [Eh]
	 SCS Correlation Energy    =      -2.2248767445295048 [Eh]
	 SCS Total Energy          =    -607.8008701550911610 [Eh]
	-----------------------------------------------------------

  Dipole Moment: [D]
     X:     2.5724      Y:     0.4193      Z:    -0.0922     Total:     2.6080

*** Psi4 exiting successfully. Buy a developer a beer!
