                               Psi4 1.4a3.dev225

  ==> Input File <==

--------------------------------------------------------------------------
#psi4
#
memory 32 gb

molecule  {
0 1
  F       -1.9734470     0.4735540    -0.9939180
  F       -1.9413570    -1.5269070    -0.1417860
  F       -1.9373460     0.2097040     1.1676710
  C        0.0587940    -0.2544720    -0.0183930
  C        0.7415540     0.9772520     0.0078750
  C        0.7507890    -1.4682550    -0.0178400
  C        2.1403840     0.9368280     0.0127460
  C       -1.4402130    -0.2782400     0.0012850
  C        0.0404941     2.2905223    -0.0185412
  C        2.1451100    -1.4771990    -0.0107000
  C        2.8415060    -0.2700650     0.0090350
  H        0.1981450    -2.4017980    -0.0309650
  H        2.6907970     1.8755160     0.0309210
  H       -0.3505540     2.5311140    -1.0192600
  H       -0.8159800     2.3277740     0.6689790
  H        0.7236060     3.1036700     0.2672330
  H        2.6805350    -2.4229320    -0.0122850
  H        3.9287950    -0.2645730     0.0170060
units angstrom
no_reorient  #important for SAPT in psi4, default
symmetry c1  #important for SAPT in psi4, default
}

set PROPERTIES_ORIGIN ["COM"]
properties('MP2/aug-cc-pvtz', properties = ['dipole'])
--------------------------------------------------------------------------

    Molecular point group: c1
  Charge       = 0
  Multiplicity = 1
  Basis Set: AUG-CC-PVTZ
    Blend: AUG-CC-PVTZ
  Basis Set: (AUG-CC-PVTZ AUX)
    Blend: AUG-CC-PVTZ-JKFIT

    Orbital Energies [Eh]
    ---------------------

    Doubly Occupied:

       1A    -26.335442     2A    -26.331773     3A    -26.330911
       4A    -11.508662     5A    -11.269599     6A    -11.264821
       7A    -11.259801     8A    -11.256684     9A    -11.248858
      10A    -11.248248    11A    -11.234436    12A     -1.717298
      13A     -1.626562    14A     -1.623087    15A     -1.181317
      16A     -1.072882    17A     -1.058341    18A     -0.973720
      19A     -0.936601    20A     -0.862149    21A     -0.836799
      22A     -0.811440    23A     -0.803774    24A     -0.774066
      25A     -0.704594    26A     -0.704184    27A     -0.689776
      28A     -0.665987    29A     -0.656709    30A     -0.649152
      31A     -0.643787    32A     -0.635303    33A     -0.590567
      34A     -0.583874    35A     -0.581916    36A     -0.550913
      37A     -0.510566    38A     -0.507788    39A     -0.506664
      40A     -0.360545    41A     -0.343786

  @DF-RHF Final Energy:  -605.57684538213948

   => Energetics <=

    Nuclear Repulsion Energy =            632.4244154239992213
    One-Electron Energy =               -2089.0957585144037694
    Two-Electron Energy =                 851.0944977082651803
    Total Energy =                       -605.5768453821394814
  Basis Set: (AUG-CC-PVTZ AUX)
    Blend: AUG-CC-PVTZ-RI
    Molecular point group: c1

    Geometry (in Angstrom), charge = 0, multiplicity = 1:

       Center              X                  Y                   Z               Mass
    ------------   -----------------  -----------------  -----------------  -----------------
         F           -1.881511436642     0.509577733173    -0.994629898214    18.998403162730
         F           -1.849421436642    -1.490883266827    -0.142497898214    18.998403162730
         F           -1.845410436642     0.245727733173     1.166959101786    18.998403162730
         C            0.150729563358    -0.218448266827    -0.019104898214    12.000000000000
         C            0.833489563358     1.013275733173     0.007163101786    12.000000000000
         C            0.842724563358    -1.432231266827    -0.018551898214    12.000000000000
         C            2.232319563358     0.972851733173     0.012034101786    12.000000000000
         C           -1.348277436642    -0.242216266827     0.000573101786    12.000000000000
         C            0.132429663358     2.326546033173    -0.019253098214    12.000000000000
         C            2.237045563358    -1.441175266827    -0.011411898214    12.000000000000
         C            2.933441563358    -0.234041266827     0.008323101786    12.000000000000
         H            0.290080563358    -2.365774266827    -0.031676898214     1.007825032230
         H            2.782732563358     1.911539733173     0.030209101786     1.007825032230
         H           -0.258618436642     2.567137733173    -1.019971898214     1.007825032230
         H           -0.724044436642     2.363797733173     0.668267101786     1.007825032230
         H            0.815541563358     3.139693733173     0.266521101786     1.007825032230
         H            2.772470563358    -2.386908266827    -0.012996898214     1.007825032230
         H            4.020730563358    -0.228549266827     0.016294101786     1.007825032230

  Basis Set: AUG-CC-PVTZ
    Blend: AUG-CC-PVTZ
  Basis Set: (AUG-CC-PVTZ AUX)
    Blend: AUG-CC-PVTZ-JKFIT
	 Reference Energy          =    -605.5768453821394814 [Eh]
	 Singles Energy            =      -0.0000000000000000 [Eh]
	 Same-Spin Energy          =      -0.5635477508770143 [Eh]
	 Opposite-Spin Energy      =      -1.6975293007826311 [Eh]
	 Correlation Energy        =      -2.2610770516596452 [Eh]
	 Total Energy              =    -607.8379224337991218 [Eh]

	 ================> DF-SCS-MP2 Energies <==================
	-----------------------------------------------------------
	 SCS Same-Spin Scale       =       0.3333333333333333 [-]
	 SCS Opposite-Spin Scale   =       1.2000000000000000 [-]
	 SCS Same-Spin Energy      =      -0.1878492502923381 [Eh]
	 SCS Opposite-Spin Energy  =      -2.0370351609391570 [Eh]
	 SCS Correlation Energy    =      -2.2248844112314949 [Eh]
	 SCS Total Energy          =    -607.8017297933710097 [Eh]
	-----------------------------------------------------------

  Dipole Moment: [D]
     X:     2.5926      Y:     0.4368      Z:    -0.0632     Total:     2.6299

*** Psi4 exiting successfully. Buy a developer a beer!
