                               Psi4 1.4a3.dev225

  ==> Input File <==

--------------------------------------------------------------------------
#psi4
#
memory 32 gb

molecule  {
0 1
  F       -1.9734470     0.4735540    -0.9939180
  F       -1.9413570    -1.5269070    -0.1417860
  F       -1.9373460     0.2097040     1.1676710
  C        0.0587940    -0.2544720    -0.0183930
  C        0.7415540     0.9772520     0.0078750
  C        0.7507890    -1.4682550    -0.0178400
  C        2.1403840     0.9368280     0.0127460
  C       -1.4402130    -0.2782400     0.0012850
  C        0.0310770     2.3081630    -0.0188960
  C        2.1451100    -1.4771990    -0.0107000
  C        2.8415060    -0.2700650     0.0090350
  H        0.1981450    -2.4017980    -0.0309650
  H        2.6907970     1.8755160     0.0309210
  H       -0.3505540     2.5311140    -1.0192600
  H       -0.8452010     2.2689109     0.6304563
  H        0.7236060     3.1036700     0.2672330
  H        2.6805350    -2.4229320    -0.0122850
  H        3.9287950    -0.2645730     0.0170060
units angstrom
no_reorient  #important for SAPT in psi4, default
symmetry c1  #important for SAPT in psi4, default
}

set PROPERTIES_ORIGIN ["COM"]
properties('MP2/aug-cc-pvtz', properties = ['dipole'])
--------------------------------------------------------------------------

    Molecular point group: c1
  Charge       = 0
  Multiplicity = 1
  Basis Set: AUG-CC-PVTZ
    Blend: AUG-CC-PVTZ
  Basis Set: (AUG-CC-PVTZ AUX)
    Blend: AUG-CC-PVTZ-JKFIT

    Orbital Energies [Eh]
    ---------------------

    Doubly Occupied:

       1A    -26.335688     2A    -26.332292     3A    -26.331603
       4A    -11.508961     5A    -11.270052     6A    -11.264657
       7A    -11.259745     8A    -11.256582     9A    -11.248536
      10A    -11.247914    11A    -11.234111    12A     -1.717810
      13A     -1.626954    14A     -1.623761    15A     -1.180547
      16A     -1.072151    17A     -1.057084    18A     -0.973751
      19A     -0.937274    20A     -0.862281    21A     -0.836792
      22A     -0.811959    23A     -0.804107    24A     -0.774034
      25A     -0.705115    26A     -0.704537    27A     -0.689045
      28A     -0.666934    29A     -0.657207    30A     -0.649103
      31A     -0.644381    32A     -0.634644    33A     -0.589741
      34A     -0.583340    35A     -0.577724    36A     -0.559509
      37A     -0.509957    38A     -0.508357    39A     -0.505393
      40A     -0.360444    41A     -0.343642

  @DF-RHF Final Energy:  -605.57680679104681

   => Energetics <=

    Nuclear Repulsion Energy =            632.2522085663840699
    One-Electron Energy =               -2088.7425915564858769
    Two-Electron Energy =                 850.9135761990550009
    Total Energy =                       -605.5768067910468062
  Basis Set: (AUG-CC-PVTZ AUX)
    Blend: AUG-CC-PVTZ-RI
    Molecular point group: c1

    Geometry (in Angstrom), charge = 0, multiplicity = 1:

       Center              X                  Y                   Z               Mass
    ------------   -----------------  -----------------  -----------------  -----------------
         F           -1.880621371857     0.508625751237    -0.994360721423    18.998403162730
         F           -1.848531371857    -1.491835248763    -0.142228721423    18.998403162730
         F           -1.844520371857     0.244775751237     1.167228278577    18.998403162730
         C            0.151619628143    -0.219400248763    -0.018835721423    12.000000000000
         C            0.834379628143     1.012323751237     0.007432278577    12.000000000000
         C            0.843614628143    -1.433183248763    -0.018282721423    12.000000000000
         C            2.233209628143     0.971899751237     0.012303278577    12.000000000000
         C           -1.347387371857    -0.243168248763     0.000842278577    12.000000000000
         C            0.123902628143     2.343234751237    -0.019338721423    12.000000000000
         C            2.237935628143    -1.442127248763    -0.011142721423    12.000000000000
         C            2.934331628143    -0.234993248763     0.008592278577    12.000000000000
         H            0.290970628143    -2.366726248763    -0.031407721423     1.007825032230
         H            2.783622628143     1.910587751237     0.030478278577     1.007825032230
         H           -0.257728371857     2.566185751237    -1.019702721423     1.007825032230
         H           -0.752375371857     2.303982651237     0.630013578577     1.007825032230
         H            0.816431628143     3.138741751237     0.266790278577     1.007825032230
         H            2.773360628143    -2.387860248763    -0.012727721423     1.007825032230
         H            4.021620628143    -0.229501248763     0.016563278577     1.007825032230

  Basis Set: AUG-CC-PVTZ
    Blend: AUG-CC-PVTZ
  Basis Set: (AUG-CC-PVTZ AUX)
    Blend: AUG-CC-PVTZ-JKFIT
	 Reference Energy          =    -605.5768067910468062 [Eh]
	 Singles Energy            =      -0.0000000000000000 [Eh]
	 Same-Spin Energy          =      -0.5634415988327439 [Eh]
	 Opposite-Spin Energy      =      -1.6974401972611286 [Eh]
	 Correlation Energy        =      -2.2608817960938725 [Eh]
	 Total Energy              =    -607.8376885871406330 [Eh]

	 ================> DF-SCS-MP2 Energies <==================
	-----------------------------------------------------------
	 SCS Same-Spin Scale       =       0.3333333333333333 [-]
	 SCS Opposite-Spin Scale   =       1.2000000000000000 [-]
	 SCS Same-Spin Energy      =      -0.1878138662775813 [Eh]
	 SCS Opposite-Spin Energy  =      -2.0369282367133543 [Eh]
	 SCS Correlation Energy    =      -2.2247421029909358 [Eh]
	 SCS Total Energy          =    -607.8015488940377509 [Eh]
	-----------------------------------------------------------

  Dipole Moment: [D]
     X:     2.5799      Y:     0.4238      Z:    -0.0822     Total:     2.6158

*** Psi4 exiting successfully. Buy a developer a beer!
