                               Psi4 1.4a3.dev225

  ==> Input File <==

--------------------------------------------------------------------------
#psi4
#
memory 32 gb

molecule  {
0 1
  F       -1.9967809     0.4987057    -0.9612893
  F       -1.9413570    -1.5269070    -0.1417860
  F       -1.9373460     0.2097040     1.1676710
  C        0.0587940    -0.2544720    -0.0183930
  C        0.7415540     0.9772520     0.0078750
  C        0.7507890    -1.4682550    -0.0178400
  C        2.1403840     0.9368280     0.0127460
  C       -1.4402130    -0.2782400     0.0012850
  C        0.0310770     2.3081630    -0.0188960
  C        2.1451100    -1.4771990    -0.0107000
  C        2.8415060    -0.2700650     0.0090350
  H        0.1981450    -2.4017980    -0.0309650
  H        2.6907970     1.8755160     0.0309210
  H       -0.3505540     2.5311140    -1.0192600
  H       -0.8159800     2.3277740     0.6689790
  H        0.7236060     3.1036700     0.2672330
  H        2.6805350    -2.4229320    -0.0122850
  H        3.9287950    -0.2645730     0.0170060
units angstrom
no_reorient  #important for SAPT in psi4, default
symmetry c1  #important for SAPT in psi4, default
}

set PROPERTIES_ORIGIN ["COM"]
properties('MP2/aug-cc-pvtz', properties = ['dipole'])
--------------------------------------------------------------------------

    Molecular point group: c1
  Charge       = 0
  Multiplicity = 1
  Basis Set: AUG-CC-PVTZ
    Blend: AUG-CC-PVTZ
  Basis Set: (AUG-CC-PVTZ AUX)
    Blend: AUG-CC-PVTZ-JKFIT

    Orbital Energies [Eh]
    ---------------------

    Doubly Occupied:

       1A    -26.336285     2A    -26.330940     3A    -26.327918
       4A    -11.508288     5A    -11.270849     6A    -11.265413
       7A    -11.260345     8A    -11.257190     9A    -11.249150
      10A    -11.248524    11A    -11.233857    12A     -1.717253
      13A     -1.627778    14A     -1.619673    15A     -1.180964
      16A     -1.072208    17A     -1.057329    18A     -0.973533
      19A     -0.937111    20A     -0.862131    21A     -0.837628
      22A     -0.808971    23A     -0.804431    24A     -0.774197
      25A     -0.705298    26A     -0.702049    27A     -0.689632
      28A     -0.666374    29A     -0.654491    30A     -0.649108
      31A     -0.641472    32A     -0.634988    33A     -0.590283
      34A     -0.584845    35A     -0.581204    36A     -0.553942
      37A     -0.509646    38A     -0.509123    39A     -0.507035
      40A     -0.361069    41A     -0.344616

  @DF-RHF Final Energy:  -605.57739562228574

   => Energetics <=

    Nuclear Repulsion Energy =            632.0305517159036981
    One-Electron Energy =               -2088.3216121269961150
    Two-Electron Energy =                 850.7136647888067955
    Total Energy =                       -605.5773956222857350
  Basis Set: (AUG-CC-PVTZ AUX)
    Blend: AUG-CC-PVTZ-RI
    Molecular point group: c1

    Geometry (in Angstrom), charge = 0, multiplicity = 1:

       Center              X                  Y                   Z               Mass
    ------------   -----------------  -----------------  -----------------  -----------------
         F           -1.901369472270     0.530421213225    -0.965847719027    18.998403162730
         F           -1.845945572270    -1.495191486775    -0.146344419027    18.998403162730
         F           -1.841934572270     0.241419513225     1.163112580973    18.998403162730
         C            0.154205427730    -0.222756486775    -0.022951419027    12.000000000000
         C            0.836965427730     1.008967513225     0.003316580973    12.000000000000
         C            0.846200427730    -1.436539486775    -0.022398419027    12.000000000000
         C            2.235795427730     0.968543513225     0.008187580973    12.000000000000
         C           -1.344801572270    -0.246524486775    -0.003273419027    12.000000000000
         C            0.126488427730     2.339878513225    -0.023454419027    12.000000000000
         C            2.240521427730    -1.445483486775    -0.015258419027    12.000000000000
         C            2.936917427730    -0.238349486775     0.004476580973    12.000000000000
         H            0.293556427730    -2.370082486775    -0.035523419027     1.007825032230
         H            2.786208427730     1.907231513225     0.026362580973     1.007825032230
         H           -0.255142572270     2.562829513225    -1.023818419027     1.007825032230
         H           -0.720568572270     2.359489513225     0.664420580973     1.007825032230
         H            0.819017427730     3.135385513225     0.262674580973     1.007825032230
         H            2.775946427730    -2.391216486775    -0.016843419027     1.007825032230
         H            4.024206427730    -0.232857486775     0.012447580973     1.007825032230

  Basis Set: AUG-CC-PVTZ
    Blend: AUG-CC-PVTZ
  Basis Set: (AUG-CC-PVTZ AUX)
    Blend: AUG-CC-PVTZ-JKFIT
	 Reference Energy          =    -605.5773956222857350 [Eh]
	 Singles Energy            =      -0.0000000000000000 [Eh]
	 Same-Spin Energy          =      -0.5633140199087208 [Eh]
	 Opposite-Spin Energy      =      -1.6972183293294076 [Eh]
	 Correlation Energy        =      -2.2605323492381286 [Eh]
	 Total Energy              =    -607.8379279715238681 [Eh]

	 ================> DF-SCS-MP2 Energies <==================
	-----------------------------------------------------------
	 SCS Same-Spin Scale       =       0.3333333333333333 [-]
	 SCS Opposite-Spin Scale   =       1.2000000000000000 [-]
	 SCS Same-Spin Energy      =      -0.1877713399695736 [Eh]
	 SCS Opposite-Spin Energy  =      -2.0366619951952889 [Eh]
	 SCS Correlation Energy    =      -2.2244333351648624 [Eh]
	 SCS Total Energy          =    -607.8018289574506525 [Eh]
	-----------------------------------------------------------

  Dipole Moment: [D]
     X:     2.6559      Y:     0.3991      Z:    -0.0989     Total:     2.6876

*** Psi4 exiting successfully. Buy a developer a beer!
