                               Psi4 1.4a3.dev225

  ==> Input File <==

--------------------------------------------------------------------------
#psi4
#
memory 32 gb

molecule  {
0 1
  F       -1.9734470     0.4735540    -0.9939180
  F       -1.9413570    -1.5269070    -0.1417860
  F       -1.9373460     0.2097040     1.1676710
  C        0.0587940    -0.2544720    -0.0183930
  C        0.7421479     0.8795897     0.0062140
  C        0.7507890    -1.4682550    -0.0178400
  C        2.1403840     0.9368280     0.0127460
  C       -1.4402130    -0.2782400     0.0012850
  C        0.0310770     2.3081630    -0.0188960
  C        2.1451100    -1.4771990    -0.0107000
  C        2.8415060    -0.2700650     0.0090350
  H        0.1981450    -2.4017980    -0.0309650
  H        2.6907970     1.8755160     0.0309210
  H       -0.3505540     2.5311140    -1.0192600
  H       -0.8159800     2.3277740     0.6689790
  H        0.7236060     3.1036700     0.2672330
  H        2.6805350    -2.4229320    -0.0122850
  H        3.9287950    -0.2645730     0.0170060
units angstrom
no_reorient  #important for SAPT in psi4, default
symmetry c1  #important for SAPT in psi4, default
}

set PROPERTIES_ORIGIN ["COM"]
properties('MP2/aug-cc-pvtz', properties = ['dipole'])
--------------------------------------------------------------------------

    Molecular point group: c1
  Charge       = 0
  Multiplicity = 1
  Basis Set: AUG-CC-PVTZ
    Blend: AUG-CC-PVTZ
  Basis Set: (AUG-CC-PVTZ AUX)
    Blend: AUG-CC-PVTZ-JKFIT

    Orbital Energies [Eh]
    ---------------------

    Doubly Occupied:

       1A    -26.337111     2A    -26.332452     3A    -26.331872
       4A    -11.510612     5A    -11.263998     6A    -11.259498
       7A    -11.256783     8A    -11.256031     9A    -11.248877
      10A    -11.248420    11A    -11.235661    12A     -1.718371
      13A     -1.627776    14A     -1.623841    15A     -1.190136
      16A     -1.075496    17A     -1.048487    18A     -0.970136
      19A     -0.935999    20A     -0.863667    21A     -0.845400
      22A     -0.812475    23A     -0.806480    24A     -0.774656
      25A     -0.705452    26A     -0.704844    27A     -0.690739
      28A     -0.667042    29A     -0.657586    30A     -0.647743
      31A     -0.644613    32A     -0.636425    33A     -0.592171
      34A     -0.578573    35A     -0.575089    36A     -0.551182
      37A     -0.521753    38A     -0.515068    39A     -0.483338
      40A     -0.366692    41A     -0.346885

  @DF-RHF Final Energy:  -605.56799110515294

   => Energetics <=

    Nuclear Repulsion Energy =            633.1936272102714156
    One-Electron Energy =               -2090.6043741636758568
    Two-Electron Energy =                 851.8427558482514996
    Total Energy =                       -605.5679911051529416
  Basis Set: (AUG-CC-PVTZ AUX)
    Blend: AUG-CC-PVTZ-RI
    Molecular point group: c1

    Geometry (in Angstrom), charge = 0, multiplicity = 1:

       Center              X                  Y                   Z               Mass
    ------------   -----------------  -----------------  -----------------  -----------------
         F           -1.880849903308     0.515577478826    -0.994478760430    18.998403162730
         F           -1.848759903308    -1.484883521174    -0.142346760430    18.998403162730
         F           -1.844748903308     0.251727478826     1.167110239570    18.998403162730
         C            0.151391096692    -0.212448521174    -0.018953760430    12.000000000000
         C            0.834744996692     0.921613178826     0.005653239570    12.000000000000
         C            0.843386096692    -1.426231521174    -0.018400760430    12.000000000000
         C            2.232981096692     0.978851478826     0.012185239570    12.000000000000
         C           -1.347615903308    -0.236216521174     0.000724239570    12.000000000000
         C            0.123674096692     2.350186478826    -0.019456760430    12.000000000000
         C            2.237707096692    -1.435175521174    -0.011260760430    12.000000000000
         C            2.934103096692    -0.228041521174     0.008474239570    12.000000000000
         H            0.290742096692    -2.359774521174    -0.031525760430     1.007825032230
         H            2.783394096692     1.917539478826     0.030360239570     1.007825032230
         H           -0.257956903308     2.573137478826    -1.019820760430     1.007825032230
         H           -0.723382903308     2.369797478826     0.668418239570     1.007825032230
         H            0.816203096692     3.145693478826     0.266672239570     1.007825032230
         H            2.773132096692    -2.380908521174    -0.012845760430     1.007825032230
         H            4.021392096692    -0.222549521174     0.016445239570     1.007825032230

  Basis Set: AUG-CC-PVTZ
    Blend: AUG-CC-PVTZ
  Basis Set: (AUG-CC-PVTZ AUX)
    Blend: AUG-CC-PVTZ-JKFIT
	 Reference Energy          =    -605.5679911051529416 [Eh]
	 Singles Energy            =      -0.0000000000000000 [Eh]
	 Same-Spin Energy          =      -0.5628079978398259 [Eh]
	 Opposite-Spin Energy      =      -1.6968347832597135 [Eh]
	 Correlation Energy        =      -2.2596427810995392 [Eh]
	 Total Energy              =    -607.8276338862524426 [Eh]

	 ================> DF-SCS-MP2 Energies <==================
	-----------------------------------------------------------
	 SCS Same-Spin Scale       =       0.3333333333333333 [-]
	 SCS Opposite-Spin Scale   =       1.2000000000000000 [-]
	 SCS Same-Spin Energy      =      -0.1876026659466086 [Eh]
	 SCS Opposite-Spin Energy  =      -2.0362017399116561 [Eh]
	 SCS Correlation Energy    =      -2.2238044058582647 [Eh]
	 SCS Total Energy          =    -607.7917955110111734 [Eh]
	-----------------------------------------------------------

  Dipole Moment: [D]
     X:     2.6480      Y:     0.3469      Z:    -0.0559     Total:     2.6712

*** Psi4 exiting successfully. Buy a developer a beer!
