                               Psi4 1.4a3.dev225

  ==> Input File <==

--------------------------------------------------------------------------
#psi4
#
memory 32 gb

molecule  {
0 1
  F       -1.9734470     0.4735540    -0.9939180
  F       -1.9413570    -1.5269070    -0.1417860
  F       -1.9373460     0.2097040     1.1676710
  C        0.0587940    -0.2544720    -0.0183930
  C        0.7415540     0.9772520     0.0078750
  C        0.7507890    -1.4682550    -0.0178400
  C        2.1403840     0.9368280     0.0127460
  C       -1.4402130    -0.2782400     0.0012850
  C        0.0310770     2.3081630    -0.0188960
  C        2.1451100    -1.4771990    -0.0107000
  C        2.7912741    -0.1835972     0.0093009
  H        0.1981450    -2.4017980    -0.0309650
  H        2.6907970     1.8755160     0.0309210
  H       -0.3505540     2.5311140    -1.0192600
  H       -0.8159800     2.3277740     0.6689790
  H        0.7236060     3.1036700     0.2672330
  H        2.6805350    -2.4229320    -0.0122850
  H        3.9287950    -0.2645730     0.0170060
units angstrom
no_reorient  #important for SAPT in psi4, default
symmetry c1  #important for SAPT in psi4, default
}

set PROPERTIES_ORIGIN ["COM"]
properties('MP2/aug-cc-pvtz', properties = ['dipole'])
--------------------------------------------------------------------------

    Molecular point group: c1
  Charge       = 0
  Multiplicity = 1
  Basis Set: AUG-CC-PVTZ
    Blend: AUG-CC-PVTZ
  Basis Set: (AUG-CC-PVTZ AUX)
    Blend: AUG-CC-PVTZ-JKFIT

    Orbital Energies [Eh]
    ---------------------

    Doubly Occupied:

       1A    -26.335289     2A    -26.331389     3A    -26.330527
       4A    -11.508184     5A    -11.272787     6A    -11.262931
       7A    -11.257549     8A    -11.254142     9A    -11.252353
      10A    -11.237043    11A    -11.235015    12A     -1.717014
      13A     -1.626347    14A     -1.622747    15A     -1.185752
      16A     -1.074898    17A     -1.059112    18A     -0.980424
      19A     -0.933446    20A     -0.856203    21A     -0.840164
      22A     -0.811157    23A     -0.803826    24A     -0.773990
      25A     -0.704402    26A     -0.703883    27A     -0.685484
      28A     -0.667021    29A     -0.656464    30A     -0.650897
      31A     -0.643530    32A     -0.634389    33A     -0.595313
      34A     -0.586386    35A     -0.575745    36A     -0.550192
      37A     -0.516880    38A     -0.512335    39A     -0.491426
      40A     -0.373063    41A     -0.337776

  @DF-RHF Final Energy:  -605.56396444057361

   => Energetics <=

    Nuclear Repulsion Energy =            633.2828067534300089
    One-Electron Energy =               -2090.7985924700883515
    Two-Electron Energy =                 851.9518212760846154
    Total Energy =                       -605.5639644405736135
  Basis Set: (AUG-CC-PVTZ AUX)
    Blend: AUG-CC-PVTZ-RI
    Molecular point group: c1

    Geometry (in Angstrom), charge = 0, multiplicity = 1:

       Center              X                  Y                   Z               Mass
    ------------   -----------------  -----------------  -----------------  -----------------
         F           -1.877039158801     0.501772034208    -0.994623232797    18.998403162730
         F           -1.844949158801    -1.498688965792    -0.142491232797    18.998403162730
         F           -1.840938158801     0.237922034208     1.166965767203    18.998403162730
         C            0.155201841199    -0.226253965792    -0.019098232797    12.000000000000
         C            0.837961841199     1.005470034208     0.007169767203    12.000000000000
         C            0.847196841199    -1.440036965792    -0.018545232797    12.000000000000
         C            2.236791841199     0.965046034208     0.012040767203    12.000000000000
         C           -1.343805158801    -0.250021965792     0.000579767203    12.000000000000
         C            0.127484841199     2.336381034208    -0.019601232797    12.000000000000
         C            2.241517841199    -1.448980965792    -0.011405232797    12.000000000000
         C            2.887681941199    -0.155379165792     0.008595667203    12.000000000000
         H            0.294552841199    -2.373579965792    -0.031670232797     1.007825032230
         H            2.787204841199     1.903734034208     0.030215767203     1.007825032230
         H           -0.254146158801     2.559332034208    -1.019965232797     1.007825032230
         H           -0.719572158801     2.355992034208     0.668273767203     1.007825032230
         H            0.820013841199     3.131888034208     0.266527767203     1.007825032230
         H            2.776942841199    -2.394713965792    -0.012990232797     1.007825032230
         H            4.025202841199    -0.236354965792     0.016300767203     1.007825032230

  Basis Set: AUG-CC-PVTZ
    Blend: AUG-CC-PVTZ
  Basis Set: (AUG-CC-PVTZ AUX)
    Blend: AUG-CC-PVTZ-JKFIT
	 Reference Energy          =    -605.5639644405736135 [Eh]
	 Singles Energy            =      -0.0000000000000000 [Eh]
	 Same-Spin Energy          =      -0.5633250445568143 [Eh]
	 Opposite-Spin Energy      =      -1.6976416509232006 [Eh]
	 Correlation Energy        =      -2.2609666954800147 [Eh]
	 Total Energy              =    -607.8249311360535785 [Eh]

	 ================> DF-SCS-MP2 Energies <==================
	-----------------------------------------------------------
	 SCS Same-Spin Scale       =       0.3333333333333333 [-]
	 SCS Opposite-Spin Scale   =       1.2000000000000000 [-]
	 SCS Same-Spin Energy      =      -0.1877750148522714 [Eh]
	 SCS Opposite-Spin Energy  =      -2.0371699811078408 [Eh]
	 SCS Correlation Energy    =      -2.2249449959601120 [Eh]
	 SCS Total Energy          =    -607.7889094365336859 [Eh]
	-----------------------------------------------------------

  Dipole Moment: [D]
     X:     2.5658      Y:     0.4250      Z:    -0.0632     Total:     2.6015

*** Psi4 exiting successfully. Buy a developer a beer!
