                               Psi4 1.4a3.dev225

  ==> Input File <==

--------------------------------------------------------------------------
#psi4
#
memory 32 gb

molecule  {
0 1
  F       -1.9734470     0.4735540    -0.9939180
  F       -1.9413570    -1.5269070    -0.1417860
  F       -1.9373460     0.2097040     1.1676710
  C        0.0587940    -0.2544720    -0.0183930
  C        0.7534331     1.1232278     0.0104084
  C        0.7507890    -1.4682550    -0.0178400
  C        2.1403840     0.9368280     0.0127460
  C       -1.4402130    -0.2782400     0.0012850
  C        0.0310770     2.3081630    -0.0188960
  C        2.1451100    -1.4771990    -0.0107000
  C        2.8415060    -0.2700650     0.0090350
  H        0.1981450    -2.4017980    -0.0309650
  H        2.6907970     1.8755160     0.0309210
  H       -0.3505540     2.5311140    -1.0192600
  H       -0.8159800     2.3277740     0.6689790
  H        0.7236060     3.1036700     0.2672330
  H        2.6805350    -2.4229320    -0.0122850
  H        3.9287950    -0.2645730     0.0170060
units angstrom
no_reorient  #important for SAPT in psi4, default
symmetry c1  #important for SAPT in psi4, default
}

set PROPERTIES_ORIGIN ["COM"]
properties('MP2/aug-cc-pvtz', properties = ['dipole'])
--------------------------------------------------------------------------

    Molecular point group: c1
  Charge       = 0
  Multiplicity = 1
  Basis Set: AUG-CC-PVTZ
    Blend: AUG-CC-PVTZ
  Basis Set: (AUG-CC-PVTZ AUX)
    Blend: AUG-CC-PVTZ-JKFIT

    Orbital Energies [Eh]
    ---------------------

    Doubly Occupied:

       1A    -26.332955     2A    -26.330994     3A    -26.329859
       4A    -11.505983     5A    -11.279701     6A    -11.273186
       7A    -11.260122     8A    -11.257665     9A    -11.249095
      10A    -11.248530    11A    -11.230976    12A     -1.715809
      13A     -1.624822    14A     -1.622140    15A     -1.171510
      16A     -1.083213    17A     -1.060393    18A     -0.981514
      19A     -0.936499    20A     -0.861089    21A     -0.825255
      22A     -0.810065    23A     -0.798546    24A     -0.771685
      25A     -0.703839    26A     -0.703133    27A     -0.690341
      28A     -0.664279    29A     -0.655670    30A     -0.652587
      31A     -0.642822    32A     -0.633547    33A     -0.601153
      34A     -0.597393    35A     -0.580428    36A     -0.556422
      37A     -0.527869    38A     -0.501131    39A     -0.479856
      40A     -0.360014    41A     -0.332880

  @DF-RHF Final Energy:  -605.54886760942736

   => Energetics <=

    Nuclear Repulsion Energy =            630.4877422800776685
    One-Electron Energy =               -2085.1832752515852007
    Two-Electron Energy =                 849.1466653620800571
    Total Energy =                       -605.5488676094273615
  Basis Set: (AUG-CC-PVTZ AUX)
    Blend: AUG-CC-PVTZ-RI
    Molecular point group: c1

    Geometry (in Angstrom), charge = 0, multiplicity = 1:

       Center              X                  Y                   Z               Mass
    ------------   -----------------  -----------------  -----------------  -----------------
         F           -1.881696028974     0.497310328065    -0.994793242185    18.998403162730
         F           -1.849606028974    -1.503150671935    -0.142661242185    18.998403162730
         F           -1.845595028974     0.233460328065     1.166795757815    18.998403162730
         C            0.150544971026    -0.230715671935    -0.019268242185    12.000000000000
         C            0.845184071026     1.146984128065     0.009533157815    12.000000000000
         C            0.842539971026    -1.444498671935    -0.018715242185    12.000000000000
         C            2.232134971026     0.960584328065     0.011870757815    12.000000000000
         C           -1.348462028974    -0.254483671935     0.000409757815    12.000000000000
         C            0.122827971026     2.331919328065    -0.019771242185    12.000000000000
         C            2.236860971026    -1.453442671935    -0.011575242185    12.000000000000
         C            2.933256971026    -0.246308671935     0.008159757815    12.000000000000
         H            0.289895971026    -2.378041671935    -0.031840242185     1.007825032230
         H            2.782547971026     1.899272328065     0.030045757815     1.007825032230
         H           -0.258803028974     2.554870328065    -1.020135242185     1.007825032230
         H           -0.724229028974     2.351530328065     0.668103757815     1.007825032230
         H            0.815356971026     3.127426328065     0.266357757815     1.007825032230
         H            2.772285971026    -2.399175671935    -0.013160242185     1.007825032230
         H            4.020545971026    -0.240816671935     0.016130757815     1.007825032230

  Basis Set: AUG-CC-PVTZ
    Blend: AUG-CC-PVTZ
  Basis Set: (AUG-CC-PVTZ AUX)
    Blend: AUG-CC-PVTZ-JKFIT
	 Reference Energy          =    -605.5488676094273615 [Eh]
	 Singles Energy            =      -0.0000000000000000 [Eh]
	 Same-Spin Energy          =      -0.5650872192937331 [Eh]
	 Opposite-Spin Energy      =      -1.7006807217268682 [Eh]
	 Correlation Energy        =      -2.2657679410206013 [Eh]
	 Total Energy              =    -607.8146355504479743 [Eh]

	 ================> DF-SCS-MP2 Energies <==================
	-----------------------------------------------------------
	 SCS Same-Spin Scale       =       0.3333333333333333 [-]
	 SCS Opposite-Spin Scale   =       1.2000000000000000 [-]
	 SCS Same-Spin Energy      =      -0.1883624064312444 [Eh]
	 SCS Opposite-Spin Energy  =      -2.0408168660722419 [Eh]
	 SCS Correlation Energy    =      -2.2291792725034862 [Eh]
	 SCS Total Energy          =    -607.7780468819308908 [Eh]
	-----------------------------------------------------------

  Dipole Moment: [D]
     X:     2.4980      Y:     0.5935      Z:    -0.0740     Total:     2.5686

*** Psi4 exiting successfully. Buy a developer a beer!
