                               Psi4 1.4a3.dev225

  ==> Input File <==

--------------------------------------------------------------------------
#psi4
#
memory 32 gb

molecule  {
0 1
  F       -1.9734470     0.4735540    -0.9939180
  F       -1.9413570    -1.5269070    -0.1417860
  F       -1.9373460     0.2097040     1.1676710
  C        0.0587940    -0.2544720    -0.0183930
  C        0.7415540     0.9772520     0.0078750
  C        0.7507890    -1.4682550    -0.0178400
  C        2.1403840     0.9368280     0.0127460
  C       -1.4402130    -0.2782400     0.0012850
  C        0.0310770     2.3081630    -0.0188960
  C        2.1451100    -1.4771990    -0.0107000
  C        2.8415060    -0.2700650     0.0090350
  H        0.1981450    -2.4017980    -0.0309650
  H        2.6907970     1.8755160     0.0309210
  H       -0.3505540     2.5311140    -1.0192600
  H       -0.8159800     2.3277740     0.6689790
  H        0.7236060     3.1036700     0.2672330
  H        2.6805350    -2.4229320    -0.0122850
  H        3.9487942    -0.2644720     0.0171526
units angstrom
no_reorient  #important for SAPT in psi4, default
symmetry c1  #important for SAPT in psi4, default
}

set PROPERTIES_ORIGIN ["COM"]
properties('MP2/aug-cc-pvtz', properties = ['dipole'])
--------------------------------------------------------------------------

    Molecular point group: c1
  Charge       = 0
  Multiplicity = 1
  Basis Set: AUG-CC-PVTZ
    Blend: AUG-CC-PVTZ
  Basis Set: (AUG-CC-PVTZ AUX)
    Blend: AUG-CC-PVTZ-JKFIT

    Orbital Energies [Eh]
    ---------------------

    Doubly Occupied:

       1A    -26.335469     2A    -26.331873     3A    -26.331026
       4A    -11.508681     5A    -11.270481     6A    -11.264868
       7A    -11.259851     8A    -11.258913     9A    -11.248985
      10A    -11.248426    11A    -11.234051    12A     -1.717366
      13A     -1.626616    14A     -1.623184    15A     -1.180592
      16A     -1.071634    17A     -1.057095    18A     -0.973367
      19A     -0.937079    20A     -0.861273    21A     -0.836974
      22A     -0.811514    23A     -0.803762    24A     -0.773665
      25A     -0.704646    26A     -0.704171    27A     -0.687274
      28A     -0.665962    29A     -0.656798    30A     -0.648677
      31A     -0.643883    32A     -0.634155    33A     -0.589133
      34A     -0.584934    35A     -0.580297    36A     -0.553735
      37A     -0.509155    38A     -0.508905    39A     -0.505941
      40A     -0.360549    41A     -0.344377

  @DF-RHF Final Energy:  -605.57689302147378

   => Energetics <=

    Nuclear Repulsion Energy =            631.9465965953895648
    One-Electron Energy =               -2088.1482981031467716
    Two-Electron Energy =                 850.6248084862834276
    Total Energy =                       -605.5768930214737793
  Basis Set: (AUG-CC-PVTZ AUX)
    Blend: AUG-CC-PVTZ-RI
    Molecular point group: c1

    Geometry (in Angstrom), charge = 0, multiplicity = 1:

       Center              X                  Y                   Z               Mass
    ------------   -----------------  -----------------  -----------------  -----------------
         F           -1.880931308466     0.508254457881    -0.994604219656    18.998403162730
         F           -1.848841308466    -1.492206542119    -0.142472219656    18.998403162730
         F           -1.844830308466     0.244404457881     1.166984780344    18.998403162730
         C            0.151309691534    -0.219771542119    -0.019079219656    12.000000000000
         C            0.834069691534     1.011952457881     0.007188780344    12.000000000000
         C            0.843304691534    -1.433554542119    -0.018526219656    12.000000000000
         C            2.232899691534     0.971528457881     0.012059780344    12.000000000000
         C           -1.347697308466    -0.243539542119     0.000598780344    12.000000000000
         C            0.123592691534     2.342863457881    -0.019582219656    12.000000000000
         C            2.237625691534    -1.442498542119    -0.011386219656    12.000000000000
         C            2.934021691534    -0.235364542119     0.008348780344    12.000000000000
         H            0.290660691534    -2.367097542119    -0.031651219656     1.007825032230
         H            2.783312691534     1.910216457881     0.030234780344     1.007825032230
         H           -0.258038308466     2.565814457881    -1.019946219656     1.007825032230
         H           -0.723464308466     2.362474457881     0.668292780344     1.007825032230
         H            0.816121691534     3.138370457881     0.266546780344     1.007825032230
         H            2.773050691534    -2.388231542119    -0.012971219656     1.007825032230
         H            4.041309891534    -0.229771542119     0.016466380344     1.007825032230

  Basis Set: AUG-CC-PVTZ
    Blend: AUG-CC-PVTZ
  Basis Set: (AUG-CC-PVTZ AUX)
    Blend: AUG-CC-PVTZ-JKFIT
	 Reference Energy          =    -605.5768930214737793 [Eh]
	 Singles Energy            =      -0.0000000000000000 [Eh]
	 Same-Spin Energy          =      -0.5633769201752915 [Eh]
	 Opposite-Spin Energy      =      -1.6974824158672774 [Eh]
	 Correlation Energy        =      -2.2608593360425688 [Eh]
	 Total Energy              =    -607.8377523575163650 [Eh]

	 ================> DF-SCS-MP2 Energies <==================
	-----------------------------------------------------------
	 SCS Same-Spin Scale       =       0.3333333333333333 [-]
	 SCS Opposite-Spin Scale   =       1.2000000000000000 [-]
	 SCS Same-Spin Energy      =      -0.1877923067250972 [Eh]
	 SCS Opposite-Spin Energy  =      -2.0369788990407329 [Eh]
	 SCS Correlation Energy    =      -2.2247712057658302 [Eh]
	 SCS Total Energy          =    -607.8016642272395984 [Eh]
	-----------------------------------------------------------

  Dipole Moment: [D]
     X:     2.5890      Y:     0.4339      Z:    -0.0627     Total:     2.6258

*** Psi4 exiting successfully. Buy a developer a beer!
