                               Psi4 1.4a3.dev225

  ==> Input File <==

--------------------------------------------------------------------------
#psi4
#
memory 32 gb

molecule  {
0 1
  F       -1.9734470     0.4735540    -0.9939180
  F       -1.9413570    -1.5269070    -0.1417860
  F       -1.9373460     0.2097040     1.1676710
  C        0.0587940    -0.2544720    -0.0183930
  C        0.7415540     0.9772520     0.0078750
  C        0.7507890    -1.4682550    -0.0178400
  C        2.1403840     0.9368280     0.0127460
  C       -1.4402130    -0.2782400     0.0012850
  C        0.0310770     2.3081630    -0.0188960
  C        2.1451100    -1.4771990    -0.0107000
  C        2.9240170    -0.3215954     0.0096333
  H        0.1981450    -2.4017980    -0.0309650
  H        2.6907970     1.8755160     0.0309210
  H       -0.3505540     2.5311140    -1.0192600
  H       -0.8159800     2.3277740     0.6689790
  H        0.7236060     3.1036700     0.2672330
  H        2.6805350    -2.4229320    -0.0122850
  H        3.9287950    -0.2645730     0.0170060
units angstrom
no_reorient  #important for SAPT in psi4, default
symmetry c1  #important for SAPT in psi4, default
}

set PROPERTIES_ORIGIN ["COM"]
properties('MP2/aug-cc-pvtz', properties = ['dipole'])
--------------------------------------------------------------------------

    Molecular point group: c1
  Charge       = 0
  Multiplicity = 1
  Basis Set: AUG-CC-PVTZ
    Blend: AUG-CC-PVTZ
  Basis Set: (AUG-CC-PVTZ AUX)
    Blend: AUG-CC-PVTZ-JKFIT

    Orbital Energies [Eh]
    ---------------------

    Doubly Occupied:

       1A    -26.335893     2A    -26.332498     3A    -26.331687
       4A    -11.509377     5A    -11.269159     6A    -11.267193
       7A    -11.261147     8A    -11.259888     9A    -11.256742
      10A    -11.251089    11A    -11.233507    12A     -1.717900
      13A     -1.627083    14A     -1.623764    15A     -1.175384
      16A     -1.070839    17A     -1.052997    18A     -0.970381
      19A     -0.937701    20A     -0.868042    21A     -0.835041
      22A     -0.812030    23A     -0.802835    24A     -0.777126
      25A     -0.705080    26A     -0.704570    27A     -0.697329
      28A     -0.665208    29A     -0.657291    30A     -0.648241
      31A     -0.644399    32A     -0.633794    33A     -0.594630
      34A     -0.583840    35A     -0.579883    36A     -0.555024
      37A     -0.518461    38A     -0.504150    39A     -0.494226
      40A     -0.354839    41A     -0.344388

  @DF-RHF Final Energy:  -605.56401879329587

   => Energetics <=

    Nuclear Repulsion Energy =            630.2918804933249248
    One-Electron Energy =               -2084.7824954954517125
    Two-Electron Energy =                 848.9265962088309152
    Total Energy =                       -605.5640187932958725
  Basis Set: (AUG-CC-PVTZ AUX)
    Blend: AUG-CC-PVTZ-RI
    Molecular point group: c1

    Geometry (in Angstrom), charge = 0, multiplicity = 1:

       Center              X                  Y                   Z               Mass
    ------------   -----------------  -----------------  -----------------  -----------------
         F           -1.886991767062     0.512118666874    -0.994648155011    18.998403162730
         F           -1.854901767062    -1.488342333126    -0.142516155011    18.998403162730
         F           -1.850890767062     0.248268666874     1.166940844989    18.998403162730
         C            0.145249232938    -0.215907333126    -0.019123155011    12.000000000000
         C            0.828009232938     1.015816666874     0.007144844989    12.000000000000
         C            0.837244232938    -1.429690333126    -0.018570155011    12.000000000000
         C            2.226839232938     0.975392666874     0.012015844989    12.000000000000
         C           -1.353757767062    -0.239675333126     0.000554844989    12.000000000000
         C            0.117532232938     2.346727666874    -0.019626155011    12.000000000000
         C            2.231565232938    -1.438634333126    -0.011430155011    12.000000000000
         C            3.010472232938    -0.283030733126     0.008903144989    12.000000000000
         H            0.284600232938    -2.363233333126    -0.031695155011     1.007825032230
         H            2.777252232938     1.914080666874     0.030190844989     1.007825032230
         H           -0.264098767062     2.569678666874    -1.019990155011     1.007825032230
         H           -0.729524767062     2.366338666874     0.668248844989     1.007825032230
         H            0.810061232938     3.142234666874     0.266502844989     1.007825032230
         H            2.766990232938    -2.384367333126    -0.013015155011     1.007825032230
         H            4.015250232938    -0.226008333126     0.016275844989     1.007825032230

  Basis Set: AUG-CC-PVTZ
    Blend: AUG-CC-PVTZ
  Basis Set: (AUG-CC-PVTZ AUX)
    Blend: AUG-CC-PVTZ-JKFIT
	 Reference Energy          =    -605.5640187932958725 [Eh]
	 Singles Energy            =      -0.0000000000000000 [Eh]
	 Same-Spin Energy          =      -0.5634080038271414 [Eh]
	 Opposite-Spin Energy      =      -1.6986244760214482 [Eh]
	 Correlation Energy        =      -2.2620324798485898 [Eh]
	 Total Energy              =    -607.8260512731444578 [Eh]

	 ================> DF-SCS-MP2 Energies <==================
	-----------------------------------------------------------
	 SCS Same-Spin Scale       =       0.3333333333333333 [-]
	 SCS Opposite-Spin Scale   =       1.2000000000000000 [-]
	 SCS Same-Spin Energy      =      -0.1878026679423805 [Eh]
	 SCS Opposite-Spin Energy  =      -2.0383493712257379 [Eh]
	 SCS Correlation Energy    =      -2.2261520391681184 [Eh]
	 SCS Total Energy          =    -607.7901708324640140 [Eh]
	-----------------------------------------------------------

  Dipole Moment: [D]
     X:     2.6073      Y:     0.4401      Z:    -0.0619     Total:     2.6449

*** Psi4 exiting successfully. Buy a developer a beer!
