                               Psi4 1.4a3.dev225

  ==> Input File <==

--------------------------------------------------------------------------
#psi4
#
memory 32 gb

molecule  {
0 1
  F       -1.9734470     0.4735540    -0.9939180
  F       -1.9413570    -1.5269070    -0.1417860
  F       -1.9373460     0.2097040     1.1676710
  C        0.0587940    -0.2544720    -0.0183930
  C        0.7415540     0.9772520     0.0078750
  C        0.7507890    -1.4682550    -0.0178400
  C        2.1403840     0.9368280     0.0127460
  C       -1.4598685    -0.2505282    -0.0353991
  C        0.0310770     2.3081630    -0.0188960
  C        2.1451100    -1.4771990    -0.0107000
  C        2.8415060    -0.2700650     0.0090350
  H        0.1981450    -2.4017980    -0.0309650
  H        2.6907970     1.8755160     0.0309210
  H       -0.3505540     2.5311140    -1.0192600
  H       -0.8159800     2.3277740     0.6689790
  H        0.7236060     3.1036700     0.2672330
  H        2.6805350    -2.4229320    -0.0122850
  H        3.9287950    -0.2645730     0.0170060
units angstrom
no_reorient  #important for SAPT in psi4, default
symmetry c1  #important for SAPT in psi4, default
}

set PROPERTIES_ORIGIN ["COM"]
properties('MP2/aug-cc-pvtz', properties = ['dipole'])
--------------------------------------------------------------------------

    Molecular point group: c1
  Charge       = 0
  Multiplicity = 1
  Basis Set: AUG-CC-PVTZ
    Blend: AUG-CC-PVTZ
  Basis Set: (AUG-CC-PVTZ AUX)
    Blend: AUG-CC-PVTZ-JKFIT

    Orbital Energies [Eh]
    ---------------------

    Doubly Occupied:

       1A    -26.351534     2A    -26.328742     3A    -26.324654
       4A    -11.509095     5A    -11.268450     6A    -11.264558
       7A    -11.257984     8A    -11.254975     9A    -11.247743
      10A    -11.247136    11A    -11.234555    12A     -1.728081
      13A     -1.639257    14A     -1.614790    15A     -1.178331
      16A     -1.069782    17A     -1.054318    18A     -0.974029
      19A     -0.938563    20A     -0.863088    21A     -0.836886
      22A     -0.818266    23A     -0.807928    24A     -0.776069
      25A     -0.711622    26A     -0.701645    27A     -0.688090
      28A     -0.669400    29A     -0.658772    30A     -0.647731
      31A     -0.642625    32A     -0.633369    33A     -0.587768
      34A     -0.585061    35A     -0.578146    36A     -0.553965
      37A     -0.507803    38A     -0.507167    39A     -0.504609
      40A     -0.358471    41A     -0.343221

  @DF-RHF Final Energy:  -605.57608231199606

   => Energetics <=

    Nuclear Repulsion Energy =            632.0781728501987118
    One-Electron Energy =               -2088.3719565313544990
    Two-Electron Energy =                 850.7177013691596130
    Total Energy =                       -605.5760823119960605
  Basis Set: (AUG-CC-PVTZ AUX)
    Blend: AUG-CC-PVTZ-RI
    Molecular point group: c1

    Geometry (in Angstrom), charge = 0, multiplicity = 1:

       Center              X                  Y                   Z               Mass
    ------------   -----------------  -----------------  -----------------  -----------------
         F           -1.879331672610     0.506177357966    -0.991852848277    18.998403162730
         F           -1.847241672610    -1.494283642034    -0.139720848277    18.998403162730
         F           -1.843230672610     0.242327357966     1.169736151723    18.998403162730
         C            0.152909327390    -0.221848642034    -0.016327848277    12.000000000000
         C            0.835669327390     1.009875357966     0.009940151723    12.000000000000
         C            0.844904327390    -1.435631642034    -0.015774848277    12.000000000000
         C            2.234499327390     0.969451357966     0.014811151723    12.000000000000
         C           -1.365753172610    -0.217904842034    -0.033333948277    12.000000000000
         C            0.125192327390     2.340786357966    -0.016830848277    12.000000000000
         C            2.239225327390    -1.444575642034    -0.008634848277    12.000000000000
         C            2.935621327390    -0.237441642034     0.011100151723    12.000000000000
         H            0.292260327390    -2.369174642034    -0.028899848277     1.007825032230
         H            2.784912327390     1.908139357966     0.032986151723     1.007825032230
         H           -0.256438672610     2.563737357966    -1.017194848277     1.007825032230
         H           -0.721864672610     2.360397357966     0.671044151723     1.007825032230
         H            0.817721327390     3.136293357966     0.269298151723     1.007825032230
         H            2.774650327390    -2.390308642034    -0.010219848277     1.007825032230
         H            4.022910327390    -0.231949642034     0.019071151723     1.007825032230

  Basis Set: AUG-CC-PVTZ
    Blend: AUG-CC-PVTZ
  Basis Set: (AUG-CC-PVTZ AUX)
    Blend: AUG-CC-PVTZ-JKFIT
	 Reference Energy          =    -605.5760823119960605 [Eh]
	 Singles Energy            =      -0.0000000000000000 [Eh]
	 Same-Spin Energy          =      -0.5631794846203504 [Eh]
	 Opposite-Spin Energy      =      -1.6968244120888722 [Eh]
	 Correlation Energy        =      -2.2600038967092226 [Eh]
	 Total Energy              =    -607.8360862087052965 [Eh]

	 ================> DF-SCS-MP2 Energies <==================
	-----------------------------------------------------------
	 SCS Same-Spin Scale       =       0.3333333333333333 [-]
	 SCS Opposite-Spin Scale   =       1.2000000000000000 [-]
	 SCS Same-Spin Energy      =      -0.1877264948734501 [Eh]
	 SCS Opposite-Spin Energy  =      -2.0361892945066464 [Eh]
	 SCS Correlation Energy    =      -2.2239157893800967 [Eh]
	 SCS Total Energy          =    -607.7999981013761044 [Eh]
	-----------------------------------------------------------

  Dipole Moment: [D]
     X:     2.4130      Y:     0.6231      Z:    -0.3335     Total:     2.5144

*** Psi4 exiting successfully. Buy a developer a beer!
