                               Psi4 1.4a3.dev225

  ==> Input File <==

--------------------------------------------------------------------------
#psi4
#
memory 32 gb

molecule  {
0 1
  F       -1.9734470     0.4735540    -0.9939180
  F       -1.9413570    -1.5269070    -0.1417860
  F       -1.9373460     0.2097040     1.1676710
  C        0.0587940    -0.2544720    -0.0183930
  C        0.7415540     0.9772520     0.0078750
  C        0.7507890    -1.4682550    -0.0178400
  C        2.1403840     0.9368280     0.0127460
  C       -1.4402130    -0.2782400     0.0012850
  C        0.0310770     2.3081630    -0.0188960
  C        2.1451100    -1.4771990    -0.0107000
  C        2.8415060    -0.2700650     0.0090350
  H        0.1981450    -2.4017980    -0.0309650
  H        2.6907970     1.8755160     0.0309210
  H       -0.3505540     2.5311140    -1.0192600
  H       -0.8159800     2.3277740     0.6689790
  H        0.7236060     3.1036700     0.2672330
  H        2.7051685    -2.4664427    -0.0123579
  H        3.9287950    -0.2645730     0.0170060
units angstrom
no_reorient  #important for SAPT in psi4, default
symmetry c1  #important for SAPT in psi4, default
}

set PROPERTIES_ORIGIN ["COM"]
properties('MP2/aug-cc-pvtz', properties = ['dipole'])
--------------------------------------------------------------------------

    Molecular point group: c1
  Charge       = 0
  Multiplicity = 1
  Basis Set: AUG-CC-PVTZ
    Blend: AUG-CC-PVTZ
  Basis Set: (AUG-CC-PVTZ AUX)
    Blend: AUG-CC-PVTZ-JKFIT

    Orbital Energies [Eh]
    ---------------------

    Doubly Occupied:

       1A    -26.335556     2A    -26.331988     3A    -26.331138
       4A    -11.508844     5A    -11.270539     6A    -11.265140
       7A    -11.260215     8A    -11.257197     9A    -11.254375
      10A    -11.248595    11A    -11.234116    12A     -1.717469
      13A     -1.626709    14A     -1.623291    15A     -1.180688
      16A     -1.071428    17A     -1.057030    18A     -0.973490
      19A     -0.936270    20A     -0.862179    21A     -0.836473
      22A     -0.811618    23A     -0.803695    24A     -0.771219
      25A     -0.704724    26A     -0.704180    27A     -0.687555
      28A     -0.665939    29A     -0.656896    30A     -0.648045
      31A     -0.643981    32A     -0.633424    33A     -0.588875
      34A     -0.584942    35A     -0.577608    36A     -0.554098
      37A     -0.509445    38A     -0.508934    39A     -0.504460
      40A     -0.360765    41A     -0.344500

  @DF-RHF Final Energy:  -605.57506718426112

   => Energetics <=

    Nuclear Repulsion Energy =            631.7923274154547926
    One-Electron Energy =               -2087.8395227572314070
    Two-Electron Energy =                 850.4721281575154990
    Total Energy =                       -605.5750671842611155
  Basis Set: (AUG-CC-PVTZ AUX)
    Blend: AUG-CC-PVTZ-RI
    Molecular point group: c1

    Geometry (in Angstrom), charge = 0, multiplicity = 1:

       Center              X                  Y                   Z               Mass
    ------------   -----------------  -----------------  -----------------  -----------------
         F           -1.880960490372     0.508529078107    -0.994602837478    18.998403162730
         F           -1.848870490372    -1.491931921893    -0.142470837478    18.998403162730
         F           -1.844859490372     0.244679078107     1.166986162522    18.998403162730
         C            0.151280509628    -0.219496921893    -0.019077837478    12.000000000000
         C            0.834040509628     1.012227078107     0.007190162522    12.000000000000
         C            0.843275509628    -1.433279921893    -0.018524837478    12.000000000000
         C            2.232870509628     0.971803078107     0.012061162522    12.000000000000
         C           -1.347726490372    -0.243264921893     0.000600162522    12.000000000000
         C            0.123563509628     2.343138078107    -0.019580837478    12.000000000000
         C            2.237596509628    -1.442223921893    -0.011384837478    12.000000000000
         C            2.933992509628    -0.235089921893     0.008350162522    12.000000000000
         H            0.290631509628    -2.366822921893    -0.031649837478     1.007825032230
         H            2.783283509628     1.910491078107     0.030236162522     1.007825032230
         H           -0.258067490372     2.566089078107    -1.019944837478     1.007825032230
         H           -0.723493490372     2.362749078107     0.668294162522     1.007825032230
         H            0.816092509628     3.138645078107     0.266548162522     1.007825032230
         H            2.797655009628    -2.431467621893    -0.013042737478     1.007825032230
         H            4.021281509628    -0.229597921893     0.016321162522     1.007825032230

  Basis Set: AUG-CC-PVTZ
    Blend: AUG-CC-PVTZ
  Basis Set: (AUG-CC-PVTZ AUX)
    Blend: AUG-CC-PVTZ-JKFIT
	 Reference Energy          =    -605.5750671842611155 [Eh]
	 Singles Energy            =      -0.0000000000000000 [Eh]
	 Same-Spin Energy          =      -0.5634355615966558 [Eh]
	 Opposite-Spin Energy      =      -1.6977438033383589 [Eh]
	 Correlation Energy        =      -2.2611793649350149 [Eh]
	 Total Energy              =    -607.8362465491961757 [Eh]

	 ================> DF-SCS-MP2 Energies <==================
	-----------------------------------------------------------
	 SCS Same-Spin Scale       =       0.3333333333333333 [-]
	 SCS Opposite-Spin Scale   =       1.2000000000000000 [-]
	 SCS Same-Spin Energy      =      -0.1878118538655519 [Eh]
	 SCS Opposite-Spin Energy  =      -2.0372925640060306 [Eh]
	 SCS Correlation Energy    =      -2.2251044178715826 [Eh]
	 SCS Total Energy          =    -607.8001716021326502 [Eh]
	-----------------------------------------------------------

  Dipole Moment: [D]
     X:     2.5862      Y:     0.4481      Z:    -0.0625     Total:     2.6254

*** Psi4 exiting successfully. Buy a developer a beer!
