                               Psi4 1.4a3.dev225

  ==> Input File <==

--------------------------------------------------------------------------
#psi4
#
memory 32 gb

molecule  {
0 1
  F       -1.9734470     0.4735540    -0.9939180
  F       -1.9413570    -1.5269070    -0.1417860
  F       -1.9373460     0.2097040     1.1676710
  C        0.0587940    -0.2544720    -0.0183930
  C        0.7415540     0.9772520     0.0078750
  C        0.7260251    -1.4248183    -0.0178598
  C        2.1403840     0.9368280     0.0127460
  C       -1.4402130    -0.2782400     0.0012850
  C        0.0310770     2.3081630    -0.0188960
  C        2.1451100    -1.4771990    -0.0107000
  C        2.8415060    -0.2700650     0.0090350
  H        0.1981450    -2.4017980    -0.0309650
  H        2.6907970     1.8755160     0.0309210
  H       -0.3505540     2.5311140    -1.0192600
  H       -0.8159800     2.3277740     0.6689790
  H        0.7236060     3.1036700     0.2672330
  H        2.6805350    -2.4229320    -0.0122850
  H        3.9287950    -0.2645730     0.0170060
units angstrom
no_reorient  #important for SAPT in psi4, default
symmetry c1  #important for SAPT in psi4, default
}

set PROPERTIES_ORIGIN ["COM"]
properties('MP2/aug-cc-pvtz', properties = ['dipole'])
--------------------------------------------------------------------------

    Molecular point group: c1
  Charge       = 0
  Multiplicity = 1
  Basis Set: AUG-CC-PVTZ
    Blend: AUG-CC-PVTZ
  Basis Set: (AUG-CC-PVTZ AUX)
    Blend: AUG-CC-PVTZ-JKFIT

    Orbital Energies [Eh]
    ---------------------

    Doubly Occupied:

       1A    -26.335416     2A    -26.332288     3A    -26.331493
       4A    -11.508856     5A    -11.269844     6A    -11.260938
       7A    -11.258650     8A    -11.255828     9A    -11.250869
      10A    -11.247350    11A    -11.233772    12A     -1.717646
      13A     -1.626738    14A     -1.623606    15A     -1.184431
      16A     -1.072473    17A     -1.057936    18A     -0.971854
      19A     -0.938863    20A     -0.859896    21A     -0.838510
      22A     -0.811893    23A     -0.803096    24A     -0.777363
      25A     -0.704936    26A     -0.704207    27A     -0.687131
      28A     -0.665770    29A     -0.657117    30A     -0.651741
      31A     -0.644170    32A     -0.631896    33A     -0.587083
      34A     -0.585307    35A     -0.581447    36A     -0.553373
      37A     -0.511484    38A     -0.510544    39A     -0.502076
      40A     -0.367113    41A     -0.339924

  @DF-RHF Final Energy:  -605.57470633769776

   => Energetics <=

    Nuclear Repulsion Energy =            632.9375500847947933
    One-Electron Energy =               -2090.1146518348550671
    Two-Electron Energy =                 851.6023954123625117
    Total Energy =                       -605.5747063376977621
  Basis Set: (AUG-CC-PVTZ AUX)
    Blend: AUG-CC-PVTZ-RI
    Molecular point group: c1

    Geometry (in Angstrom), charge = 0, multiplicity = 1:

       Center              X                  Y                   Z               Mass
    ------------   -----------------  -----------------  -----------------  -----------------
         F           -1.878948662264     0.504998358790    -0.994601811988    18.998403162730
         F           -1.846858662264    -1.495462641210    -0.142469811988    18.998403162730
         F           -1.842847662264     0.241148358790     1.166987188012    18.998403162730
         C            0.153292337736    -0.223027641210    -0.019076811988    12.000000000000
         C            0.836052337736     1.008696358790     0.007191188012    12.000000000000
         C            0.820523437736    -1.393373941210    -0.018543611988    12.000000000000
         C            2.234882337736     0.968272358790     0.012062188012    12.000000000000
         C           -1.345714662264    -0.246795641210     0.000601188012    12.000000000000
         C            0.125575337736     2.339607358790    -0.019579811988    12.000000000000
         C            2.239608337736    -1.445754641210    -0.011383811988    12.000000000000
         C            2.936004337736    -0.238620641210     0.008351188012    12.000000000000
         H            0.292643337736    -2.370353641210    -0.031648811988     1.007825032230
         H            2.785295337736     1.906960358790     0.030237188012     1.007825032230
         H           -0.256055662264     2.562558358790    -1.019943811988     1.007825032230
         H           -0.721481662264     2.359218358790     0.668295188012     1.007825032230
         H            0.818104337736     3.135114358790     0.266549188012     1.007825032230
         H            2.775033337736    -2.391487641210    -0.012968811988     1.007825032230
         H            4.023293337736    -0.233128641210     0.016322188012     1.007825032230

  Basis Set: AUG-CC-PVTZ
    Blend: AUG-CC-PVTZ
  Basis Set: (AUG-CC-PVTZ AUX)
    Blend: AUG-CC-PVTZ-JKFIT
	 Reference Energy          =    -605.5747063376977621 [Eh]
	 Singles Energy            =      -0.0000000000000000 [Eh]
	 Same-Spin Energy          =      -0.5632360972684056 [Eh]
	 Opposite-Spin Energy      =      -1.6973263415805346 [Eh]
	 Correlation Energy        =      -2.2605624388489405 [Eh]
	 Total Energy              =    -607.8352687765467408 [Eh]

	 ================> DF-SCS-MP2 Energies <==================
	-----------------------------------------------------------
	 SCS Same-Spin Scale       =       0.3333333333333333 [-]
	 SCS Opposite-Spin Scale   =       1.2000000000000000 [-]
	 SCS Same-Spin Energy      =      -0.1877453657561352 [Eh]
	 SCS Opposite-Spin Energy  =      -2.0367916098966417 [Eh]
	 SCS Correlation Energy    =      -2.2245369756527769 [Eh]
	 SCS Total Energy          =    -607.7992433133505301 [Eh]
	-----------------------------------------------------------

  Dipole Moment: [D]
     X:     2.5931      Y:     0.4168      Z:    -0.0629     Total:     2.6271

*** Psi4 exiting successfully. Buy a developer a beer!
