                               Psi4 1.4a3.dev225

  ==> Input File <==

--------------------------------------------------------------------------
#psi4
#
memory 32 gb

molecule  {
0 1
  F       -1.9734470     0.4735540    -0.9939180
  F       -1.9413570    -1.5269070    -0.1417860
  F       -1.9373460     0.2097040     1.1676710
  C        0.0587940    -0.2544720    -0.0183930
  C        0.7415540     0.9772520     0.0078750
  C        0.7606946    -1.4856297    -0.0178321
  C        2.1403840     0.9368280     0.0127460
  C       -1.4402130    -0.2782400     0.0012850
  C        0.0310770     2.3081630    -0.0188960
  C        2.1451100    -1.4771990    -0.0107000
  C        2.8415060    -0.2700650     0.0090350
  H        0.1981450    -2.4017980    -0.0309650
  H        2.6907970     1.8755160     0.0309210
  H       -0.3505540     2.5311140    -1.0192600
  H       -0.8159800     2.3277740     0.6689790
  H        0.7236060     3.1036700     0.2672330
  H        2.6805350    -2.4229320    -0.0122850
  H        3.9287950    -0.2645730     0.0170060
units angstrom
no_reorient  #important for SAPT in psi4, default
symmetry c1  #important for SAPT in psi4, default
}

set PROPERTIES_ORIGIN ["COM"]
properties('MP2/aug-cc-pvtz', properties = ['dipole'])
--------------------------------------------------------------------------

    Molecular point group: c1
  Charge       = 0
  Multiplicity = 1
  Basis Set: AUG-CC-PVTZ
    Blend: AUG-CC-PVTZ
  Basis Set: (AUG-CC-PVTZ AUX)
    Blend: AUG-CC-PVTZ-JKFIT

    Orbital Energies [Eh]
    ---------------------

    Doubly Occupied:

       1A    -26.335414     2A    -26.331643     3A    -26.330781
       4A    -11.508527     5A    -11.270553     6A    -11.266202
       7A    -11.259973     8A    -11.256954     9A    -11.248632
      10A    -11.247976    11A    -11.234053    12A     -1.717187
      13A     -1.626495    14A     -1.622954    15A     -1.179246
      16A     -1.072229    17A     -1.056346    18A     -0.974301
      19A     -0.936424    20A     -0.862761    21A     -0.836540
      22A     -0.811299    23A     -0.803943    24A     -0.772678
      25A     -0.704490    26A     -0.704135    27A     -0.690133
      28A     -0.665995    29A     -0.656609    30A     -0.647384
      31A     -0.643702    32A     -0.635869    33A     -0.591329
      34A     -0.584774    35A     -0.579763    36A     -0.554101
      37A     -0.511184    38A     -0.508101    39A     -0.504932
      40A     -0.357989    41A     -0.346074

  @DF-RHF Final Energy:  -605.57687766564959

   => Energetics <=

    Nuclear Repulsion Energy =            631.7084028163767471
    One-Electron Energy =               -2087.6712193536941413
    Two-Electron Energy =                 850.3859388716678041
    Total Energy =                       -605.5768776656495902
  Basis Set: (AUG-CC-PVTZ AUX)
    Blend: AUG-CC-PVTZ-RI
    Molecular point group: c1

    Geometry (in Angstrom), charge = 0, multiplicity = 1:

       Center              X                  Y                   Z               Mass
    ------------   -----------------  -----------------  -----------------  -----------------
         F           -1.881548062700     0.509557789404    -0.994603888840    18.998403162730
         F           -1.849458062700    -1.490903210596    -0.142471888840    18.998403162730
         F           -1.845447062700     0.245707789404     1.166985111160    18.998403162730
         C            0.150692937300    -0.218468210596    -0.019078888840    12.000000000000
         C            0.833452937300     1.013255789404     0.007189111160    12.000000000000
         C            0.852593537300    -1.449625910596    -0.018517988840    12.000000000000
         C            2.232282937300     0.972831789404     0.012060111160    12.000000000000
         C           -1.348314062700    -0.242236210596     0.000599111160    12.000000000000
         C            0.122975937300     2.344166789404    -0.019581888840    12.000000000000
         C            2.237008937300    -1.441195210596    -0.011385888840    12.000000000000
         C            2.933404937300    -0.234061210596     0.008349111160    12.000000000000
         H            0.290043937300    -2.365794210596    -0.031650888840     1.007825032230
         H            2.782695937300     1.911519789404     0.030235111160     1.007825032230
         H           -0.258655062700     2.567117789404    -1.019945888840     1.007825032230
         H           -0.724081062700     2.363777789404     0.668293111160     1.007825032230
         H            0.815504937300     3.139673789404     0.266547111160     1.007825032230
         H            2.772433937300    -2.386928210596    -0.012970888840     1.007825032230
         H            4.020693937300    -0.228569210596     0.016320111160     1.007825032230

  Basis Set: AUG-CC-PVTZ
    Blend: AUG-CC-PVTZ
  Basis Set: (AUG-CC-PVTZ AUX)
    Blend: AUG-CC-PVTZ-JKFIT
	 Reference Energy          =    -605.5768776656495902 [Eh]
	 Singles Energy            =      -0.0000000000000000 [Eh]
	 Same-Spin Energy          =      -0.5633589287441986 [Eh]
	 Opposite-Spin Energy      =      -1.6973999430268962 [Eh]
	 Correlation Energy        =      -2.2607588717710949 [Eh]
	 Total Energy              =    -607.8376365374207353 [Eh]

	 ================> DF-SCS-MP2 Energies <==================
	-----------------------------------------------------------
	 SCS Same-Spin Scale       =       0.3333333333333333 [-]
	 SCS Opposite-Spin Scale   =       1.2000000000000000 [-]
	 SCS Same-Spin Energy      =      -0.1877863095813995 [Eh]
	 SCS Opposite-Spin Energy  =      -2.0368799316322752 [Eh]
	 SCS Correlation Energy    =      -2.2246662412136748 [Eh]
	 SCS Total Energy          =    -607.8015439068632304 [Eh]
	-----------------------------------------------------------

  Dipole Moment: [D]
     X:     2.5975      Y:     0.4396      Z:    -0.0625     Total:     2.6352

*** Psi4 exiting successfully. Buy a developer a beer!
