                               Psi4 1.4a3.dev225

  ==> Input File <==

--------------------------------------------------------------------------
#psi4
#
memory 32 gb

molecule  {
0 1
  F       -1.9734470     0.4735540    -0.9939180
  F       -1.9413570    -1.5269070    -0.1417860
  F       -1.9373460     0.2097040     1.1676710
  C        0.0587940    -0.2544720    -0.0183930
  C        0.7415540     0.9772520     0.0078750
  C        0.7507890    -1.4682550    -0.0178400
  C        2.1403840     0.9368280     0.0127460
  C       -1.4402130    -0.2782400     0.0012850
  C        0.0310770     2.3081630    -0.0188960
  C        2.1451100    -1.4771990    -0.0107000
  C        2.8415060    -0.2700650     0.0090350
  H        0.1981450    -2.4017980    -0.0309650
  H        2.6907970     1.8755160     0.0309210
  H       -0.3505540     2.5311140    -1.0192600
  H       -0.8159800     2.3277740     0.6689790
  H        0.7236060     3.1036700     0.2672330
  H        2.6706816    -2.4055277    -0.0122558
  H        3.9287950    -0.2645730     0.0170060
units angstrom
no_reorient  #important for SAPT in psi4, default
symmetry c1  #important for SAPT in psi4, default
}

set PROPERTIES_ORIGIN ["COM"]
properties('MP2/aug-cc-pvtz', properties = ['dipole'])
--------------------------------------------------------------------------

    Molecular point group: c1
  Charge       = 0
  Multiplicity = 1
  Basis Set: AUG-CC-PVTZ
    Blend: AUG-CC-PVTZ
  Basis Set: (AUG-CC-PVTZ AUX)
    Blend: AUG-CC-PVTZ-JKFIT

    Orbital Energies [Eh]
    ---------------------

    Doubly Occupied:

       1A    -26.335369     2A    -26.331768     3A    -26.330924
       4A    -11.508548     5A    -11.270288     6A    -11.264673
       7A    -11.259545     8A    -11.256456     9A    -11.248119
      10A    -11.246475    11A    -11.233926    12A     -1.717265
      13A     -1.626516    14A     -1.623084    15A     -1.180521
      16A     -1.072229    17A     -1.057053    18A     -0.973597
      19A     -0.937578    20A     -0.861865    21A     -0.837333
      22A     -0.811413    23A     -0.803729    24A     -0.775311
      25A     -0.704566    26A     -0.704173    27A     -0.689891
      28A     -0.665903    29A     -0.656700    30A     -0.648970
      31A     -0.643785    32A     -0.635186    33A     -0.590403
      34A     -0.584918    35A     -0.581472    36A     -0.553813
      37A     -0.509464    38A     -0.508756    39A     -0.507112
      40A     -0.360348    41A     -0.344188

  @DF-RHF Final Energy:  -605.57767032837955

   => Energetics <=

    Nuclear Repulsion Energy =            632.1596665813444815
    One-Electron Energy =               -2088.5682018115608116
    Two-Electron Energy =                 850.8308649018367760
    Total Energy =                       -605.5776703283795541
  Basis Set: (AUG-CC-PVTZ AUX)
    Blend: AUG-CC-PVTZ-RI
    Molecular point group: c1

    Geometry (in Angstrom), charge = 0, multiplicity = 1:

       Center              X                  Y                   Z               Mass
    ------------   -----------------  -----------------  -----------------  -----------------
         F           -1.880743328458     0.508145500052    -0.994603480395    18.998403162730
         F           -1.848653328458    -1.492315499948    -0.142471480395    18.998403162730
         F           -1.844642328458     0.244295500052     1.166985519605    18.998403162730
         C            0.151497671542    -0.219880499948    -0.019078480395    12.000000000000
         C            0.834257671542     1.011843500052     0.007189519605    12.000000000000
         C            0.843492671542    -1.433663499948    -0.018525480395    12.000000000000
         C            2.233087671542     0.971419500052     0.012060519605    12.000000000000
         C           -1.347509328458    -0.243648499948     0.000599519605    12.000000000000
         C            0.123780671542     2.342754500052    -0.019581480395    12.000000000000
         C            2.237813671542    -1.442607499948    -0.011385480395    12.000000000000
         C            2.934209671542    -0.235473499948     0.008349519605    12.000000000000
         H            0.290848671542    -2.367206499948    -0.031650480395     1.007825032230
         H            2.783500671542     1.910107500052     0.030235519605     1.007825032230
         H           -0.257850328458     2.565705500052    -1.019945480395     1.007825032230
         H           -0.723276328458     2.362365500052     0.668293519605     1.007825032230
         H            0.816309671542     3.138261500052     0.266547519605     1.007825032230
         H            2.763385271542    -2.370936199948    -0.012941280395     1.007825032230
         H            4.021498671542    -0.229981499948     0.016320519605     1.007825032230

  Basis Set: AUG-CC-PVTZ
    Blend: AUG-CC-PVTZ
  Basis Set: (AUG-CC-PVTZ AUX)
    Blend: AUG-CC-PVTZ-JKFIT
	 Reference Energy          =    -605.5776703283795541 [Eh]
	 Singles Energy            =      -0.0000000000000000 [Eh]
	 Same-Spin Energy          =      -0.5633052289864356 [Eh]
	 Opposite-Spin Energy      =      -1.6971858090571896 [Eh]
	 Correlation Energy        =      -2.2604910380436252 [Eh]
	 Total Energy              =    -607.8381613664231509 [Eh]

	 ================> DF-SCS-MP2 Energies <==================
	-----------------------------------------------------------
	 SCS Same-Spin Scale       =       0.3333333333333333 [-]
	 SCS Opposite-Spin Scale   =       1.2000000000000000 [-]
	 SCS Same-Spin Energy      =      -0.1877684096621452 [Eh]
	 SCS Opposite-Spin Energy  =      -2.0366229708686276 [Eh]
	 SCS Correlation Energy    =      -2.2243913805307729 [Eh]
	 SCS Total Energy          =    -607.8020617089102871 [Eh]
	-----------------------------------------------------------

  Dipole Moment: [D]
     X:     2.5999      Y:     0.4283      Z:    -0.0626     Total:     2.6357

*** Psi4 exiting successfully. Buy a developer a beer!
