                               Psi4 1.4a3.dev225

  ==> Input File <==

--------------------------------------------------------------------------
#psi4
#
memory 32 gb

molecule  {
0 1
  F       -1.9734470     0.4735540    -0.9939180
  F       -1.9413570    -1.5269070    -0.1417860
  F       -1.9373460     0.2097040     1.1676710
  C        0.0587940    -0.2544720    -0.0183930
  C        0.7415540     0.9772520     0.0078750
  C        0.7507890    -1.4682550    -0.0178400
  C        2.1403840     0.9368280     0.0127460
  C       -1.4402130    -0.2782400     0.0012850
  C        0.1252477     2.1317564    -0.0153476
  C        2.1451100    -1.4771990    -0.0107000
  C        2.8415060    -0.2700650     0.0090350
  H        0.1981450    -2.4017980    -0.0309650
  H        2.6907970     1.8755160     0.0309210
  H       -0.3505540     2.5311140    -1.0192600
  H       -0.8159800     2.3277740     0.6689790
  H        0.7236060     3.1036700     0.2672330
  H        2.6805350    -2.4229320    -0.0122850
  H        3.9287950    -0.2645730     0.0170060
units angstrom
no_reorient  #important for SAPT in psi4, default
symmetry c1  #important for SAPT in psi4, default
}

set PROPERTIES_ORIGIN ["COM"]
properties('MP2/aug-cc-pvtz', properties = ['dipole'])
--------------------------------------------------------------------------

    Molecular point group: c1
  Charge       = 0
  Multiplicity = 1
  Basis Set: AUG-CC-PVTZ
    Blend: AUG-CC-PVTZ
  Basis Set: (AUG-CC-PVTZ AUX)
    Blend: AUG-CC-PVTZ-JKFIT

    Orbital Energies [Eh]
    ---------------------

    Doubly Occupied:

       1A    -26.335564     2A    -26.331180     3A    -26.330176
       4A    -11.508858     5A    -11.265158     6A    -11.260455
       7A    -11.259166     8A    -11.256949     9A    -11.249245
      10A    -11.248428    11A    -11.242780    12A     -1.717006
      13A     -1.626419    14A     -1.622514    15A     -1.192653
      16A     -1.091511    17A     -1.065559    18A     -0.976167
      19A     -0.932871    20A     -0.864450    21A     -0.832879
      22A     -0.811119    23A     -0.804286    24A     -0.773480
      25A     -0.705582    26A     -0.704224    27A     -0.697399
      28A     -0.667742    29A     -0.656398    30A     -0.656035
      31A     -0.643312    32A     -0.642755    33A     -0.608687
      34A     -0.587713    35A     -0.575389    36A     -0.535521
      37A     -0.523513    38A     -0.493373    39A     -0.481097
      40A     -0.361301    41A     -0.335583

  @DF-RHF Final Energy:  -605.52535710457903

   => Energetics <=

    Nuclear Repulsion Energy =            636.0084705818757129
    One-Electron Energy =               -2096.1186615611622983
    Two-Electron Energy =                 854.5848338747074422
    Total Energy =                       -605.5253571045790295
  Basis Set: (AUG-CC-PVTZ AUX)
    Blend: AUG-CC-PVTZ-RI
    Molecular point group: c1

    Geometry (in Angstrom), charge = 0, multiplicity = 1:

       Center              X                  Y                   Z               Mass
    ------------   -----------------  -----------------  -----------------  -----------------
         F           -1.887865971457     0.521481456897    -0.994869343410    18.998403162730
         F           -1.855775971457    -1.478979543103    -0.142737343410    18.998403162730
         F           -1.851764971457     0.257631456897     1.166719656590    18.998403162730
         C            0.144375028543    -0.206544543103    -0.019344343410    12.000000000000
         C            0.827135028543     1.025179456897     0.006923656590    12.000000000000
         C            0.836370028543    -1.420327543103    -0.018791343410    12.000000000000
         C            2.225965028543     0.984755456897     0.011794656590    12.000000000000
         C           -1.354631971457    -0.230312543103     0.000333656590    12.000000000000
         C            0.210828728543     2.179683856897    -0.016298943410    12.000000000000
         C            2.230691028543    -1.429271543103    -0.011651343410    12.000000000000
         C            2.927087028543    -0.222137543103     0.008083656590    12.000000000000
         H            0.283726028543    -2.353870543103    -0.031916343410     1.007825032230
         H            2.776378028543     1.923443456897     0.029969656590     1.007825032230
         H           -0.264972971457     2.579041456897    -1.020211343410     1.007825032230
         H           -0.730398971457     2.375701456897     0.668027656590     1.007825032230
         H            0.809187028543     3.151597456897     0.266281656590     1.007825032230
         H            2.766116028543    -2.375004543103    -0.013236343410     1.007825032230
         H            4.014376028543    -0.216645543103     0.016054656590     1.007825032230

  Basis Set: AUG-CC-PVTZ
    Blend: AUG-CC-PVTZ
  Basis Set: (AUG-CC-PVTZ AUX)
    Blend: AUG-CC-PVTZ-JKFIT
	 Reference Energy          =    -605.5253571045790295 [Eh]
	 Singles Energy            =      -0.0000000000000000 [Eh]
	 Same-Spin Energy          =      -0.5671394870132918 [Eh]
	 Opposite-Spin Energy      =      -1.7022369591525508 [Eh]
	 Correlation Energy        =      -2.2693764461658423 [Eh]
	 Total Energy              =    -607.7947335507449225 [Eh]

	 ================> DF-SCS-MP2 Energies <==================
	-----------------------------------------------------------
	 SCS Same-Spin Scale       =       0.3333333333333333 [-]
	 SCS Opposite-Spin Scale   =       1.2000000000000000 [-]
	 SCS Same-Spin Energy      =      -0.1890464956710972 [Eh]
	 SCS Opposite-Spin Energy  =      -2.0426843509830608 [Eh]
	 SCS Correlation Energy    =      -2.2317308466541581 [Eh]
	 SCS Total Energy          =    -607.7570879512331885 [Eh]
	-----------------------------------------------------------

  Dipole Moment: [D]
     X:     2.5513      Y:     0.4693      Z:    -0.0720     Total:     2.5951

*** Psi4 exiting successfully. Buy a developer a beer!
