                               Psi4 1.4a3.dev225

  ==> Input File <==

--------------------------------------------------------------------------
#psi4
#
memory 32 gb

molecule  {
0 1
  F       -1.9734470     0.4735540    -0.9939180
  F       -1.9413570    -1.5269070    -0.1417860
  F       -1.9373460     0.2097040     1.1676710
  C        0.0587940    -0.2544720    -0.0183930
  C        0.7415540     0.9772520     0.0078750
  C        0.7408834    -1.4508803    -0.0178479
  C        2.1403840     0.9368280     0.0127460
  C       -1.4402130    -0.2782400     0.0012850
  C        0.0310770     2.3081630    -0.0188960
  C        2.1451100    -1.4771990    -0.0107000
  C        2.8415060    -0.2700650     0.0090350
  H        0.1981450    -2.4017980    -0.0309650
  H        2.6907970     1.8755160     0.0309210
  H       -0.3505540     2.5311140    -1.0192600
  H       -0.8159800     2.3277740     0.6689790
  H        0.7236060     3.1036700     0.2672330
  H        2.6805350    -2.4229320    -0.0122850
  H        3.9287950    -0.2645730     0.0170060
units angstrom
no_reorient  #important for SAPT in psi4, default
symmetry c1  #important for SAPT in psi4, default
}

set PROPERTIES_ORIGIN ["COM"]
properties('MP2/aug-cc-pvtz', properties = ['dipole'])
--------------------------------------------------------------------------

    Molecular point group: c1
  Charge       = 0
  Multiplicity = 1
  Basis Set: AUG-CC-PVTZ
    Blend: AUG-CC-PVTZ
  Basis Set: (AUG-CC-PVTZ AUX)
    Blend: AUG-CC-PVTZ-JKFIT

    Orbital Energies [Eh]
    ---------------------

    Doubly Occupied:

       1A    -26.335419     2A    -26.332010     3A    -26.331183
       4A    -11.508722     5A    -11.270148     6A    -11.263295
       7A    -11.259387     8A    -11.256312     9A    -11.249624
      10A    -11.247875    11A    -11.233894    12A     -1.717450
      13A     -1.626637    14A     -1.623324    15A     -1.181991
      16A     -1.071929    17A     -1.057557    18A     -0.972829
      19A     -0.937870    20A     -0.861128    21A     -0.837589
      22A     -0.811636    23A     -0.803456    24A     -0.775399
      25A     -0.704729    26A     -0.704183    27A     -0.688288
      28A     -0.665838    29A     -0.656896    30A     -0.649927
      31A     -0.643970    32A     -0.633521    33A     -0.588373
      34A     -0.585084    35A     -0.581281    36A     -0.553675
      37A     -0.509679    38A     -0.509077    39A     -0.505997
      40A     -0.363042    41A     -0.342495

  @DF-RHF Final Energy:  -605.57721120022075

   => Energetics <=

    Nuclear Repulsion Energy =            632.4011121271564662
    One-Electron Energy =               -2089.0512056581983416
    Two-Electron Energy =                 851.0728823308211304
    Total Energy =                       -605.5772112002207450
  Basis Set: (AUG-CC-PVTZ AUX)
    Blend: AUG-CC-PVTZ-RI
    Molecular point group: c1

    Geometry (in Angstrom), charge = 0, multiplicity = 1:

       Center              X                  Y                   Z               Mass
    ------------   -----------------  -----------------  -----------------  -----------------
         F           -1.880062686738     0.506952398340    -0.994602704210    18.998403162730
         F           -1.847972686738    -1.493508601660    -0.142470704210    18.998403162730
         F           -1.843961686738     0.243102398340     1.166986295790    18.998403162730
         C            0.152178313262    -0.221073601660    -0.019077704210    12.000000000000
         C            0.834938313262     1.010650398340     0.007190295790    12.000000000000
         C            0.834267713262    -1.417481901660    -0.018532604210    12.000000000000
         C            2.233768313262     0.970226398340     0.012061295790    12.000000000000
         C           -1.346828686738    -0.244841601660     0.000600295790    12.000000000000
         C            0.124461313262     2.341561398340    -0.019580704210    12.000000000000
         C            2.238494313262    -1.443800601660    -0.011384704210    12.000000000000
         C            2.934890313262    -0.236666601660     0.008350295790    12.000000000000
         H            0.291529313262    -2.368399601660    -0.031649704210     1.007825032230
         H            2.784181313262     1.908914398340     0.030236295790     1.007825032230
         H           -0.257169686738     2.564512398340    -1.019944704210     1.007825032230
         H           -0.722595686738     2.361172398340     0.668294295790     1.007825032230
         H            0.816990313262     3.137068398340     0.266548295790     1.007825032230
         H            2.773919313262    -2.389533601660    -0.012969704210     1.007825032230
         H            4.022179313262    -0.231174601660     0.016321295790     1.007825032230

  Basis Set: AUG-CC-PVTZ
    Blend: AUG-CC-PVTZ
  Basis Set: (AUG-CC-PVTZ AUX)
    Blend: AUG-CC-PVTZ-JKFIT
	 Reference Energy          =    -605.5772112002207450 [Eh]
	 Singles Energy            =      -0.0000000000000000 [Eh]
	 Same-Spin Energy          =      -0.5633069656348296 [Eh]
	 Opposite-Spin Energy      =      -1.6972922174868255 [Eh]
	 Correlation Energy        =      -2.2605991831216552 [Eh]
	 Total Energy              =    -607.8378103833423438 [Eh]

	 ================> DF-SCS-MP2 Energies <==================
	-----------------------------------------------------------
	 SCS Same-Spin Scale       =       0.3333333333333333 [-]
	 SCS Opposite-Spin Scale   =       1.2000000000000000 [-]
	 SCS Same-Spin Energy      =      -0.1877689885449432 [Eh]
	 SCS Opposite-Spin Energy  =      -2.0367506609841906 [Eh]
	 SCS Correlation Energy    =      -2.2245196495291339 [Eh]
	 SCS Total Energy          =    -607.8017308497499016 [Eh]
	-----------------------------------------------------------

  Dipole Moment: [D]
     X:     2.5952      Y:     0.4267      Z:    -0.0627     Total:     2.6308

*** Psi4 exiting successfully. Buy a developer a beer!
