                               Psi4 1.4a3.dev225

  ==> Input File <==

--------------------------------------------------------------------------
#psi4
#
memory 32 gb

molecule  {
0 1
  F       -1.9615346     0.4606327    -1.0097801
  F       -1.9413570    -1.5269070    -0.1417860
  F       -1.9373460     0.2097040     1.1676710
  C        0.0587940    -0.2544720    -0.0183930
  C        0.7415540     0.9772520     0.0078750
  C        0.7507890    -1.4682550    -0.0178400
  C        2.1403840     0.9368280     0.0127460
  C       -1.4402130    -0.2782400     0.0012850
  C        0.0310770     2.3081630    -0.0188960
  C        2.1451100    -1.4771990    -0.0107000
  C        2.8415060    -0.2700650     0.0090350
  H        0.1981450    -2.4017980    -0.0309650
  H        2.6907970     1.8755160     0.0309210
  H       -0.3505540     2.5311140    -1.0192600
  H       -0.8159800     2.3277740     0.6689790
  H        0.7236060     3.1036700     0.2672330
  H        2.6805350    -2.4229320    -0.0122850
  H        3.9287950    -0.2645730     0.0170060
units angstrom
no_reorient  #important for SAPT in psi4, default
symmetry c1  #important for SAPT in psi4, default
}

set PROPERTIES_ORIGIN ["COM"]
properties('MP2/aug-cc-pvtz', properties = ['dipole'])
--------------------------------------------------------------------------

    Molecular point group: c1
  Charge       = 0
  Multiplicity = 1
  Basis Set: AUG-CC-PVTZ
    Blend: AUG-CC-PVTZ
  Basis Set: (AUG-CC-PVTZ AUX)
    Blend: AUG-CC-PVTZ-JKFIT

    Orbital Energies [Eh]
    ---------------------

    Doubly Occupied:

       1A    -26.334982     2A    -26.332474     3A    -26.332220
       4A    -11.508801     5A    -11.270097     6A    -11.264497
       7A    -11.259398     8A    -11.256351     9A    -11.248625
      10A    -11.248098    11A    -11.234034    12A     -1.717382
      13A     -1.625972    14A     -1.624801    15A     -1.180342
      16A     -1.071821    17A     -1.056887    18A     -0.973549
      19A     -0.937181    20A     -0.861860    21A     -0.836744
      22A     -0.812691    23A     -0.803329    24A     -0.773965
      25A     -0.705682    26A     -0.703796    27A     -0.688940
      28A     -0.665692    29A     -0.658009    30A     -0.648434
      31A     -0.644690    32A     -0.634516    33A     -0.589553
      34A     -0.584938    35A     -0.580320    36A     -0.553860
      37A     -0.509150    38A     -0.508622    39A     -0.506347
      40A     -0.360145    41A     -0.344086

  @DF-RHF Final Energy:  -605.57737117360557

   => Energetics <=

    Nuclear Repulsion Energy =            632.0718792958912218
    One-Electron Energy =               -2088.3927389653290447
    Two-Electron Energy =                 850.7434884958322527
    Total Energy =                       -605.5773711736055702
  Basis Set: (AUG-CC-PVTZ AUX)
    Blend: AUG-CC-PVTZ-RI
    Molecular point group: c1

    Geometry (in Angstrom), charge = 0, multiplicity = 1:

       Center              X                  Y                   Z               Mass
    ------------   -----------------  -----------------  -----------------  -----------------
         F           -1.870307011579     0.496867590124    -1.008582518677    18.998403162730
         F           -1.850129411579    -1.490672109876    -0.140588418677    18.998403162730
         F           -1.846118411579     0.245938890124     1.168868581323    18.998403162730
         C            0.150021588421    -0.218237109876    -0.017195418677    12.000000000000
         C            0.832781588421     1.013486890124     0.009072581323    12.000000000000
         C            0.842016588421    -1.432020109876    -0.016642418677    12.000000000000
         C            2.231611588421     0.973062890124     0.013943581323    12.000000000000
         C           -1.348985411579    -0.242005109876     0.002482581323    12.000000000000
         C            0.122304588421     2.344397890124    -0.017698418677    12.000000000000
         C            2.236337588421    -1.440964109876    -0.009502418677    12.000000000000
         C            2.932733588421    -0.233830109876     0.010232581323    12.000000000000
         H            0.289372588421    -2.365563109876    -0.029767418677     1.007825032230
         H            2.782024588421     1.911750890124     0.032118581323     1.007825032230
         H           -0.259326411579     2.567348890124    -1.018062418677     1.007825032230
         H           -0.724752411579     2.364008890124     0.670176581323     1.007825032230
         H            0.814833588421     3.139904890124     0.268430581323     1.007825032230
         H            2.771762588421    -2.386697109876    -0.011087418677     1.007825032230
         H            4.020022588421    -0.228338109876     0.018203581323     1.007825032230

  Basis Set: AUG-CC-PVTZ
    Blend: AUG-CC-PVTZ
  Basis Set: (AUG-CC-PVTZ AUX)
    Blend: AUG-CC-PVTZ-JKFIT
	 Reference Energy          =    -605.5773711736055702 [Eh]
	 Singles Energy            =      -0.0000000000000000 [Eh]
	 Same-Spin Energy          =      -0.5633587395296118 [Eh]
	 Opposite-Spin Energy      =      -1.6973898459073919 [Eh]
	 Correlation Energy        =      -2.2607485854370037 [Eh]
	 Total Energy              =    -607.8381197590425700 [Eh]

	 ================> DF-SCS-MP2 Energies <==================
	-----------------------------------------------------------
	 SCS Same-Spin Scale       =       0.3333333333333333 [-]
	 SCS Opposite-Spin Scale   =       1.2000000000000000 [-]
	 SCS Same-Spin Energy      =      -0.1877862465098706 [Eh]
	 SCS Opposite-Spin Energy  =      -2.0368678150888702 [Eh]
	 SCS Correlation Energy    =      -2.2246540615987409 [Eh]
	 SCS Total Energy          =    -607.8020252352042689 [Eh]
	-----------------------------------------------------------

  Dipole Moment: [D]
     X:     2.5662      Y:     0.4506      Z:    -0.0450     Total:     2.6058

*** Psi4 exiting successfully. Buy a developer a beer!
