                               Psi4 1.4a3.dev225

  ==> Input File <==

--------------------------------------------------------------------------
#psi4
#
memory 32 gb

molecule  {
0 1
  F       -1.9734470     0.4735540    -0.9939180
  F       -1.9413570    -1.5269070    -0.1417860
  F       -1.9373460     0.2097040     1.1676710
  C        0.0587940    -0.2544720    -0.0183930
  C        0.7415540     0.9772520     0.0078750
  C        0.7507890    -1.4682550    -0.0178400
  C        2.1403840     0.9368280     0.0127460
  C       -1.4402130    -0.2782400     0.0012850
  C        0.0310770     2.3081630    -0.0188960
  C        2.1876667    -1.5007701    -0.0106771
  C        2.8415060    -0.2700650     0.0090350
  H        0.1981450    -2.4017980    -0.0309650
  H        2.6907970     1.8755160     0.0309210
  H       -0.3505540     2.5311140    -1.0192600
  H       -0.8159800     2.3277740     0.6689790
  H        0.7236060     3.1036700     0.2672330
  H        2.6805350    -2.4229320    -0.0122850
  H        3.9287950    -0.2645730     0.0170060
units angstrom
no_reorient  #important for SAPT in psi4, default
symmetry c1  #important for SAPT in psi4, default
}

set PROPERTIES_ORIGIN ["COM"]
properties('MP2/aug-cc-pvtz', properties = ['dipole'])
--------------------------------------------------------------------------

    Molecular point group: c1
  Charge       = 0
  Multiplicity = 1
  Basis Set: AUG-CC-PVTZ
    Blend: AUG-CC-PVTZ
  Basis Set: (AUG-CC-PVTZ AUX)
    Blend: AUG-CC-PVTZ-JKFIT

    Orbital Energies [Eh]
    ---------------------

    Doubly Occupied:

       1A    -26.335330     2A    -26.332051     3A    -26.331155
       4A    -11.508947     5A    -11.270963     6A    -11.265684
       7A    -11.264470     8A    -11.256928     9A    -11.250220
      10A    -11.248076    11A    -11.234165    12A     -1.717417
      13A     -1.626587    14A     -1.623318    15A     -1.177533
      16A     -1.071558    17A     -1.054635    18A     -0.971201
      19A     -0.939039    20A     -0.860108    21A     -0.838282
      22A     -0.811595    23A     -0.803969    24A     -0.777037
      25A     -0.704664    26A     -0.703928    27A     -0.688599
      28A     -0.665608    29A     -0.656852    30A     -0.649330
      31A     -0.643949    32A     -0.637274    33A     -0.588843
      34A     -0.584642    35A     -0.583321    36A     -0.552495
      37A     -0.514386    38A     -0.505647    39A     -0.503044
      40A     -0.361494    41A     -0.340976

  @DF-RHF Final Energy:  -605.57424659298590

   => Energetics <=

    Nuclear Repulsion Energy =            631.1014406605726208
    One-Electron Energy =               -2086.4407308982731593
    Two-Electron Energy =                 849.7650436447145239
    Total Energy =                       -605.5742465929859009
  Basis Set: (AUG-CC-PVTZ AUX)
    Blend: AUG-CC-PVTZ-RI
    Molecular point group: c1

    Geometry (in Angstrom), charge = 0, multiplicity = 1:

       Center              X                  Y                   Z               Mass
    ------------   -----------------  -----------------  -----------------  -----------------
         F           -1.883996130412     0.510022374265    -0.994605013488    18.998403162730
         F           -1.851906130412    -1.490438625735    -0.142473013488    18.998403162730
         F           -1.847895130412     0.246172374265     1.166983986512    18.998403162730
         C            0.148244869588    -0.218003625735    -0.019080013488    12.000000000000
         C            0.831004869588     1.013720374265     0.007187986512    12.000000000000
         C            0.840239869588    -1.431786625735    -0.018527013488    12.000000000000
         C            2.229834869588     0.973296374265     0.012058986512    12.000000000000
         C           -1.350762130412    -0.241771625735     0.000597986512    12.000000000000
         C            0.120527869588     2.344631374265    -0.019583013488    12.000000000000
         C            2.277117569588    -1.464301725735    -0.011364113488    12.000000000000
         C            2.930956869588    -0.233596625735     0.008347986512    12.000000000000
         H            0.287595869588    -2.365329625735    -0.031652013488     1.007825032230
         H            2.780247869588     1.911984374265     0.030233986512     1.007825032230
         H           -0.261103130412     2.567582374265    -1.019947013488     1.007825032230
         H           -0.726529130412     2.364242374265     0.668291986512     1.007825032230
         H            0.813056869588     3.140138374265     0.266545986512     1.007825032230
         H            2.769985869588    -2.386463625735    -0.012972013488     1.007825032230
         H            4.018245869588    -0.228104625735     0.016318986512     1.007825032230

  Basis Set: AUG-CC-PVTZ
    Blend: AUG-CC-PVTZ
  Basis Set: (AUG-CC-PVTZ AUX)
    Blend: AUG-CC-PVTZ-JKFIT
	 Reference Energy          =    -605.5742465929859009 [Eh]
	 Singles Energy            =      -0.0000000000000000 [Eh]
	 Same-Spin Energy          =      -0.5632082009141361 [Eh]
	 Opposite-Spin Energy      =      -1.6975861376571761 [Eh]
	 Correlation Energy        =      -2.2607943385713121 [Eh]
	 Total Energy              =    -607.8350409315571596 [Eh]

	 ================> DF-SCS-MP2 Energies <==================
	-----------------------------------------------------------
	 SCS Same-Spin Scale       =       0.3333333333333333 [-]
	 SCS Opposite-Spin Scale   =       1.2000000000000000 [-]
	 SCS Same-Spin Energy      =      -0.1877360669713787 [Eh]
	 SCS Opposite-Spin Energy  =      -2.0371033651886115 [Eh]
	 SCS Correlation Energy    =      -2.2248394321599902 [Eh]
	 SCS Total Energy          =    -607.7990860251459253 [Eh]
	-----------------------------------------------------------

  Dipole Moment: [D]
     X:     2.5922      Y:     0.4134      Z:    -0.0628     Total:     2.6257

*** Psi4 exiting successfully. Buy a developer a beer!
