                               Psi4 1.4a3.dev225

  ==> Input File <==

--------------------------------------------------------------------------
#psi4
#
memory 32 gb

molecule  {
0 1
  F       -2.0194367     0.5229108    -0.9274879
  F       -1.9413570    -1.5269070    -0.1417860
  F       -1.9373460     0.2097040     1.1676710
  C        0.0587940    -0.2544720    -0.0183930
  C        0.7415540     0.9772520     0.0078750
  C        0.7507890    -1.4682550    -0.0178400
  C        2.1403840     0.9368280     0.0127460
  C       -1.4402130    -0.2782400     0.0012850
  C        0.0310770     2.3081630    -0.0188960
  C        2.1451100    -1.4771990    -0.0107000
  C        2.8415060    -0.2700650     0.0090350
  H        0.1981450    -2.4017980    -0.0309650
  H        2.6907970     1.8755160     0.0309210
  H       -0.3505540     2.5311140    -1.0192600
  H       -0.8159800     2.3277740     0.6689790
  H        0.7236060     3.1036700     0.2672330
  H        2.6805350    -2.4229320    -0.0122850
  H        3.9287950    -0.2645730     0.0170060
units angstrom
no_reorient  #important for SAPT in psi4, default
symmetry c1  #important for SAPT in psi4, default
}

set PROPERTIES_ORIGIN ["COM"]
properties('MP2/aug-cc-pvtz', properties = ['dipole'])
--------------------------------------------------------------------------

    Molecular point group: c1
  Charge       = 0
  Multiplicity = 1
  Basis Set: AUG-CC-PVTZ
    Blend: AUG-CC-PVTZ
  Basis Set: (AUG-CC-PVTZ AUX)
    Blend: AUG-CC-PVTZ-JKFIT

    Orbital Energies [Eh]
    ---------------------

    Doubly Occupied:

       1A    -26.337141     2A    -26.329915     3A    -26.324749
       4A    -11.507960     5A    -11.271334     6A    -11.266042
       7A    -11.260960     8A    -11.257728     9A    -11.249496
      10A    -11.248802    11A    -11.233744    12A     -1.717275
      13A     -1.628992    14A     -1.616036    15A     -1.181372
      16A     -1.072465    17A     -1.057621    18A     -0.973517
      19A     -0.937056    20A     -0.862325    21A     -0.838216
      22A     -0.806471    23A     -0.805088    24A     -0.774353
      25A     -0.706343    26A     -0.699603    27A     -0.690087
      28A     -0.666896    29A     -0.652579    30A     -0.649535
      31A     -0.638242    32A     -0.635281    33A     -0.590769
      34A     -0.584776    35A     -0.581776    36A     -0.553996
      37A     -0.509991    38A     -0.509438    39A     -0.507451
      40A     -0.361654    41A     -0.344959

  @DF-RHF Final Energy:  -605.57657649934686

   => Energetics <=

    Nuclear Repulsion Energy =            632.0352900237809308
    One-Electron Energy =               -2088.3396675304793462
    Two-Electron Energy =                 850.7278010073516725
    Total Energy =                       -605.5765764993468565
  Basis Set: (AUG-CC-PVTZ AUX)
    Blend: AUG-CC-PVTZ-RI
    Molecular point group: c1

    Geometry (in Angstrom), charge = 0, multiplicity = 1:

       Center              X                  Y                   Z               Mass
    ------------   -----------------  -----------------  -----------------  -----------------
         F           -1.921335962283     0.551753096778    -0.936058644463    18.998403162730
         F           -1.843256262283    -1.498064703222    -0.150356744463    18.998403162730
         F           -1.839245262283     0.238546296778     1.159100255537    18.998403162730
         C            0.156894737717    -0.225629703222    -0.026963744463    12.000000000000
         C            0.839654737717     1.006094296778    -0.000695744463    12.000000000000
         C            0.848889737717    -1.439412703222    -0.026410744463    12.000000000000
         C            2.238484737717     0.965670296778     0.004175255537    12.000000000000
         C           -1.342112262283    -0.249397703222    -0.007285744463    12.000000000000
         C            0.129177737717     2.337005296778    -0.027466744463    12.000000000000
         C            2.243210737717    -1.448356703222    -0.019270744463    12.000000000000
         C            2.939606737717    -0.241222703222     0.000464255537    12.000000000000
         H            0.296245737717    -2.372955703222    -0.039535744463     1.007825032230
         H            2.788897737717     1.904358296778     0.022350255537     1.007825032230
         H           -0.252453262283     2.559956296778    -1.027830744463     1.007825032230
         H           -0.717879262283     2.356616296778     0.660408255537     1.007825032230
         H            0.821706737717     3.132512296778     0.258662255537     1.007825032230
         H            2.778635737717    -2.394089703222    -0.020855744463     1.007825032230
         H            4.026895737717    -0.235730703222     0.008435255537     1.007825032230

  Basis Set: AUG-CC-PVTZ
    Blend: AUG-CC-PVTZ
  Basis Set: (AUG-CC-PVTZ AUX)
    Blend: AUG-CC-PVTZ-JKFIT
	 Reference Energy          =    -605.5765764993468565 [Eh]
	 Singles Energy            =      -0.0000000000000000 [Eh]
	 Same-Spin Energy          =      -0.5633085799964923 [Eh]
	 Opposite-Spin Energy      =      -1.6971484765192035 [Eh]
	 Correlation Energy        =      -2.2604570565156958 [Eh]
	 Total Energy              =    -607.8370335558626039 [Eh]

	 ================> DF-SCS-MP2 Energies <==================
	-----------------------------------------------------------
	 SCS Same-Spin Scale       =       0.3333333333333333 [-]
	 SCS Opposite-Spin Scale   =       1.2000000000000000 [-]
	 SCS Same-Spin Energy      =      -0.1877695266654974 [Eh]
	 SCS Opposite-Spin Energy  =      -2.0365781718230442 [Eh]
	 SCS Correlation Energy    =      -2.2243476984885415 [Eh]
	 SCS Total Energy          =    -607.8009241978353430 [Eh]
	-----------------------------------------------------------

  Dipole Moment: [D]
     X:     2.7140      Y:     0.3658      Z:    -0.1368     Total:     2.7420

*** Psi4 exiting successfully. Buy a developer a beer!
