                               Psi4 1.4a3.dev225

  ==> Input File <==

--------------------------------------------------------------------------
#psi4
#
memory 32 gb

molecule  {
0 1
  F       -1.9734470     0.4735540    -0.9939180
  F       -1.9413570    -1.5269070    -0.1417860
  F       -1.9373460     0.2097040     1.1676710
  C        0.0587940    -0.2544720    -0.0183930
  C        0.7415540     0.9772520     0.0078750
  C        0.7507890    -1.4682550    -0.0178400
  C        2.1403840     0.9368280     0.0127460
  C       -1.4402130    -0.2782400     0.0012850
  C        0.0310770     2.3081630    -0.0188960
  C        2.0625927    -1.4256752    -0.0106736
  C        2.8415060    -0.2700650     0.0090350
  H        0.1981450    -2.4017980    -0.0309650
  H        2.6907970     1.8755160     0.0309210
  H       -0.3505540     2.5311140    -1.0192600
  H       -0.8159800     2.3277740     0.6689790
  H        0.7236060     3.1036700     0.2672330
  H        2.6805350    -2.4229320    -0.0122850
  H        3.9287950    -0.2645730     0.0170060
units angstrom
no_reorient  #important for SAPT in psi4, default
symmetry c1  #important for SAPT in psi4, default
}

set PROPERTIES_ORIGIN ["COM"]
properties('MP2/aug-cc-pvtz', properties = ['dipole'])
--------------------------------------------------------------------------

    Molecular point group: c1
  Charge       = 0
  Multiplicity = 1
  Basis Set: AUG-CC-PVTZ
    Blend: AUG-CC-PVTZ
  Basis Set: (AUG-CC-PVTZ AUX)
    Blend: AUG-CC-PVTZ-JKFIT

    Orbital Energies [Eh]
    ---------------------

    Doubly Occupied:

       1A    -26.335780     2A    -26.331532     3A    -26.330795
       4A    -11.508132     5A    -11.269486     6A    -11.264297
       7A    -11.257095     8A    -11.249132     9A    -11.248988
      10A    -11.246188    11A    -11.233853    12A     -1.717292
      13A     -1.626700    14A     -1.622938    15A     -1.188564
      16A     -1.073922    17A     -1.062395    18A     -0.978932
      19A     -0.933896    20A     -0.865924    21A     -0.835326
      22A     -0.811379    23A     -0.803610    24A     -0.769415
      25A     -0.705045    26A     -0.704439    27A     -0.691420
      28A     -0.668262    29A     -0.656724    30A     -0.647691
      31A     -0.643771    32A     -0.631991    33A     -0.598300
      34A     -0.585079    35A     -0.569403    36A     -0.555902
      37A     -0.516565    38A     -0.515306    39A     -0.488500
      40A     -0.361500    41A     -0.349256

  @DF-RHF Final Energy:  -605.56482362314114

   => Energetics <=

    Nuclear Repulsion Energy =            634.0635591350542200
    One-Electron Energy =               -2092.3473143876531140
    Two-Electron Energy =                 852.7189316294577566
    Total Energy =                       -605.5648236231411374
  Basis Set: (AUG-CC-PVTZ AUX)
    Blend: AUG-CC-PVTZ-RI
    Molecular point group: c1

    Geometry (in Angstrom), charge = 0, multiplicity = 1:

       Center              X                  Y                   Z               Mass
    ------------   -----------------  -----------------  -----------------  -----------------
         F           -1.874618510023     0.504392015714    -0.994605275906    18.998403162730
         F           -1.842528510023    -1.496068984286    -0.142473275906    18.998403162730
         F           -1.838517510023     0.240542015714     1.166983724094    18.998403162730
         C            0.157622489977    -0.223633984286    -0.019080275906    12.000000000000
         C            0.840382489977     1.008090015714     0.007187724094    12.000000000000
         C            0.849617489977    -1.437416984286    -0.018527275906    12.000000000000
         C            2.239212489977     0.967666015714     0.012058724094    12.000000000000
         C           -1.341384510023    -0.247401984286     0.000597724094    12.000000000000
         C            0.129905489977     2.339001015714    -0.019583275906    12.000000000000
         C            2.161421189977    -1.394837184286    -0.011360875906    12.000000000000
         C            2.940334489977    -0.239226984286     0.008347724094    12.000000000000
         H            0.296973489977    -2.370959984286    -0.031652275906     1.007825032230
         H            2.789625489977     1.906354015714     0.030233724094     1.007825032230
         H           -0.251725510023     2.561952015714    -1.019947275906     1.007825032230
         H           -0.717151510023     2.358612015714     0.668291724094     1.007825032230
         H            0.822434489977     3.134508015714     0.266545724094     1.007825032230
         H            2.779363489977    -2.392093984286    -0.012972275906     1.007825032230
         H            4.027623489977    -0.233734984286     0.016318724094     1.007825032230

  Basis Set: AUG-CC-PVTZ
    Blend: AUG-CC-PVTZ
  Basis Set: (AUG-CC-PVTZ AUX)
    Blend: AUG-CC-PVTZ-JKFIT
	 Reference Energy          =    -605.5648236231411374 [Eh]
	 Singles Energy            =      -0.0000000000000000 [Eh]
	 Same-Spin Energy          =      -0.5637723115762079 [Eh]
	 Opposite-Spin Energy      =      -1.6977998159848382 [Eh]
	 Correlation Energy        =      -2.2615721275610463 [Eh]
	 Total Energy              =    -607.8263957507022042 [Eh]

	 ================> DF-SCS-MP2 Energies <==================
	-----------------------------------------------------------
	 SCS Same-Spin Scale       =       0.3333333333333333 [-]
	 SCS Opposite-Spin Scale   =       1.2000000000000000 [-]
	 SCS Same-Spin Energy      =      -0.1879241038587360 [Eh]
	 SCS Opposite-Spin Energy  =      -2.0373597791818057 [Eh]
	 SCS Correlation Energy    =      -2.2252838830405417 [Eh]
	 SCS Total Energy          =    -607.7901075061816982 [Eh]
	-----------------------------------------------------------

  Dipole Moment: [D]
     X:     2.5840      Y:     0.5059      Z:    -0.0621     Total:     2.6338

*** Psi4 exiting successfully. Buy a developer a beer!
