                               Psi4 1.4a3.dev225

  ==> Input File <==

--------------------------------------------------------------------------
#psi4
#
memory 32 gb

molecule  {
0 1
  F       -1.9734470     0.4735540    -0.9939180
  F       -1.9413570    -1.5269070    -0.1417860
  F       -1.9373460     0.2097040     1.1676710
  C        0.0587940    -0.2544720    -0.0183930
  C        0.7415540     0.9772520     0.0078750
  C        0.7507890    -1.4682550    -0.0178400
  C        2.1403840     0.9368280     0.0127460
  C       -1.4402130    -0.2782400     0.0012850
  C        0.0310770     2.3081630    -0.0188960
  C        2.1451100    -1.4771990    -0.0107000
  C        2.8415060    -0.2700650     0.0090350
  H        0.1981450    -2.4017980    -0.0309650
  H        2.6907970     1.8755160     0.0309210
  H       -0.3505540     2.5311140    -1.0192600
  H       -0.8159800     2.3277740     0.6689790
  H        0.7236060     3.1036700     0.2672330
  H        2.6805350    -2.4229320    -0.0122850
  H        3.8287990    -0.2650781     0.0162729
units angstrom
no_reorient  #important for SAPT in psi4, default
symmetry c1  #important for SAPT in psi4, default
}

set PROPERTIES_ORIGIN ["COM"]
properties('MP2/aug-cc-pvtz', properties = ['dipole'])
--------------------------------------------------------------------------

    Molecular point group: c1
  Charge       = 0
  Multiplicity = 1
  Basis Set: AUG-CC-PVTZ
    Blend: AUG-CC-PVTZ
  Basis Set: (AUG-CC-PVTZ AUX)
    Blend: AUG-CC-PVTZ-JKFIT

    Orbital Energies [Eh]
    ---------------------

    Doubly Occupied:

       1A    -26.335227     2A    -26.331657     3A    -26.330815
       4A    -11.508432     5A    -11.269795     6A    -11.264561
       7A    -11.259150     8A    -11.248266     9A    -11.247692
      10A    -11.244466    11A    -11.233655    12A     -1.717142
      13A     -1.626384    14A     -1.622971    15A     -1.180576
      16A     -1.074277    17A     -1.056831    18A     -0.974906
      19A     -0.937826    20A     -0.866442    21A     -0.837467
      22A     -0.811293    23A     -0.803465    24A     -0.776622
      25A     -0.704898    26A     -0.704384    27A     -0.699396
      28A     -0.665679    29A     -0.656579    30A     -0.648722
      31A     -0.643665    32A     -0.637156    33A     -0.593509
      34A     -0.584731    35A     -0.581325    36A     -0.554489
      37A     -0.511787    38A     -0.508307    39A     -0.507362
      40A     -0.360155    41A     -0.343792

  @DF-RHF Final Energy:  -605.57168916772093

   => Energetics <=

    Nuclear Repulsion Energy =            632.6168217440043691
    One-Electron Energy =               -2089.4453049238977655
    Two-Electron Energy =                 851.2567940121723495
    Total Energy =                       -605.5716891677209333
  Basis Set: (AUG-CC-PVTZ AUX)
    Blend: AUG-CC-PVTZ-RI
    Molecular point group: c1

    Geometry (in Angstrom), charge = 0, multiplicity = 1:

       Center              X                  Y                   Z               Mass
    ------------   -----------------  -----------------  -----------------  -----------------
         F           -1.880175705981     0.508258274456    -0.994598680239    18.998403162730
         F           -1.848085705981    -1.492202725544    -0.142466680239    18.998403162730
         F           -1.844074705981     0.244408274456     1.166990319761    18.998403162730
         C            0.152065294019    -0.219767725544    -0.019073680239    12.000000000000
         C            0.834825294019     1.011956274456     0.007194319761    12.000000000000
         C            0.844060294019    -1.433550725544    -0.018520680239    12.000000000000
         C            2.233655294019     0.971532274456     0.012065319761    12.000000000000
         C           -1.346941705981    -0.243535725544     0.000604319761    12.000000000000
         C            0.124348294019     2.342867274456    -0.019576680239    12.000000000000
         C            2.238381294019    -1.442494725544    -0.011380680239    12.000000000000
         C            2.934777294019    -0.235360725544     0.008354319761    12.000000000000
         H            0.291416294019    -2.367093725544    -0.031645680239     1.007825032230
         H            2.784068294019     1.910220274456     0.030240319761     1.007825032230
         H           -0.257282705981     2.565818274456    -1.019940680239     1.007825032230
         H           -0.722708705981     2.362478274456     0.668298319761     1.007825032230
         H            0.816877294019     3.138374274456     0.266552319761     1.007825032230
         H            2.773806294019    -2.388227725544    -0.012965680239     1.007825032230
         H            3.922070294019    -0.230373825544     0.015592219761     1.007825032230

  Basis Set: AUG-CC-PVTZ
    Blend: AUG-CC-PVTZ
  Basis Set: (AUG-CC-PVTZ AUX)
    Blend: AUG-CC-PVTZ-JKFIT
	 Reference Energy          =    -605.5716891677209333 [Eh]
	 Singles Energy            =      -0.0000000000000000 [Eh]
	 Same-Spin Energy          =      -0.5632043673203132 [Eh]
	 Opposite-Spin Energy      =      -1.6968216016519113 [Eh]
	 Correlation Energy        =      -2.2600259689722244 [Eh]
	 Total Energy              =    -607.8317151366931057 [Eh]

	 ================> DF-SCS-MP2 Energies <==================
	-----------------------------------------------------------
	 SCS Same-Spin Scale       =       0.3333333333333333 [-]
	 SCS Opposite-Spin Scale   =       1.2000000000000000 [-]
	 SCS Same-Spin Energy      =      -0.1877347891067710 [Eh]
	 SCS Opposite-Spin Energy  =      -2.0361859219822933 [Eh]
	 SCS Correlation Energy    =      -2.2239207110890642 [Eh]
	 SCS Total Energy          =    -607.7956098788099553 [Eh]
	-----------------------------------------------------------

  Dipole Moment: [D]
     X:     2.6230      Y:     0.4303      Z:    -0.0624     Total:     2.6588

*** Psi4 exiting successfully. Buy a developer a beer!
