                               Psi4 1.4a3.dev225

  ==> Input File <==

--------------------------------------------------------------------------
#psi4
#
memory 32 gb

molecule  {
0 1
  F       -1.9734470     0.4735540    -0.9939180
  F       -1.9413570    -1.5269070    -0.1417860
  F       -1.9373460     0.2097040     1.1676710
  C        0.0587940    -0.2544720    -0.0183930
  C        0.7415540     0.9772520     0.0078750
  C        0.7507890    -1.4682550    -0.0178400
  C        2.1403840     0.9368280     0.0127460
  C       -1.4402130    -0.2782400     0.0012850
  C        0.0310770     2.3081630    -0.0188960
  C        2.1451100    -1.4771990    -0.0107000
  C        2.8415060    -0.2700650     0.0090350
  H        0.1981450    -2.4017980    -0.0309650
  H        2.6907970     1.8755160     0.0309210
  H       -0.3505540     2.5311140    -1.0192600
  H       -0.8159800     2.3277740     0.6689790
  H        0.6602363     3.0308773     0.2410508
  H        2.6805350    -2.4229320    -0.0122850
  H        3.9287950    -0.2645730     0.0170060
units angstrom
no_reorient  #important for SAPT in psi4, default
symmetry c1  #important for SAPT in psi4, default
}

set PROPERTIES_ORIGIN ["COM"]
properties('MP2/aug-cc-pvtz', properties = ['dipole'])
--------------------------------------------------------------------------

    Molecular point group: c1
  Charge       = 0
  Multiplicity = 1
  Basis Set: AUG-CC-PVTZ
    Blend: AUG-CC-PVTZ
  Basis Set: (AUG-CC-PVTZ AUX)
    Blend: AUG-CC-PVTZ-JKFIT

    Orbital Energies [Eh]
    ---------------------

    Doubly Occupied:

       1A    -26.335029     2A    -26.331222     3A    -26.330505
       4A    -11.508137     5A    -11.269640     6A    -11.264174
       7A    -11.259413     8A    -11.256562     9A    -11.248547
      10A    -11.248183    11A    -11.221704    12A     -1.716833
      13A     -1.626114    14A     -1.622615    15A     -1.180427
      16A     -1.072415    17A     -1.058830    18A     -0.976352
      19A     -0.941411    20A     -0.861606    21A     -0.838955
      22A     -0.810988    23A     -0.803370    24A     -0.774087
      25A     -0.704104    26A     -0.703944    27A     -0.689381
      28A     -0.667503    29A     -0.656290    30A     -0.650257
      31A     -0.643368    32A     -0.634360    33A     -0.589548
      34A     -0.586024    35A     -0.581333    36A     -0.567338
      37A     -0.510804    38A     -0.508391    39A     -0.506088
      40A     -0.360211    41A     -0.344032

  @DF-RHF Final Energy:  -605.57161030682119

   => Energetics <=

    Nuclear Repulsion Energy =            632.5797481388469805
    One-Electron Energy =               -2089.3825325751417950
    Two-Electron Energy =                 851.2311741294736294
    Total Energy =                       -605.5716103068211851
  Basis Set: (AUG-CC-PVTZ AUX)
    Blend: AUG-CC-PVTZ-RI
    Molecular point group: c1

    Geometry (in Angstrom), charge = 0, multiplicity = 1:

       Center              X                  Y                   Z               Mass
    ------------   -----------------  -----------------  -----------------  -----------------
         F           -1.880406339567     0.508713465082    -0.994438428802    18.998403162730
         F           -1.848316339567    -1.491747534918    -0.142306428802    18.998403162730
         F           -1.844305339567     0.244863465082     1.167150571198    18.998403162730
         C            0.151834660433    -0.219312534918    -0.018913428802    12.000000000000
         C            0.834594660433     1.012411465082     0.007354571198    12.000000000000
         C            0.843829660433    -1.433095534918    -0.018360428802    12.000000000000
         C            2.233424660433     0.971987465082     0.012225571198    12.000000000000
         C           -1.347172339567    -0.243080534918     0.000764571198    12.000000000000
         C            0.124117660433     2.343322465082    -0.019416428802    12.000000000000
         C            2.238150660433    -1.442039534918    -0.011220428802    12.000000000000
         C            2.934546660433    -0.234905534918     0.008514571198    12.000000000000
         H            0.291185660433    -2.366638534918    -0.031485428802     1.007825032230
         H            2.783837660433     1.910675465082     0.030400571198     1.007825032230
         H           -0.257513339567     2.566273465082    -1.019780428802     1.007825032230
         H           -0.722939339567     2.362933465082     0.668458571198     1.007825032230
         H            0.753276960433     3.066036765082     0.240530371198     1.007825032230
         H            2.773575660433    -2.387772534918    -0.012805428802     1.007825032230
         H            4.021835660433    -0.229413534918     0.016485571198     1.007825032230

  Basis Set: AUG-CC-PVTZ
    Blend: AUG-CC-PVTZ
  Basis Set: (AUG-CC-PVTZ AUX)
    Blend: AUG-CC-PVTZ-JKFIT
	 Reference Energy          =    -605.5716103068211851 [Eh]
	 Singles Energy            =      -0.0000000000000000 [Eh]
	 Same-Spin Energy          =      -0.5633124757827008 [Eh]
	 Opposite-Spin Energy      =      -1.6967246067084465 [Eh]
	 Correlation Energy        =      -2.2600370824911473 [Eh]
	 Total Energy              =    -607.8316473893123657 [Eh]

	 ================> DF-SCS-MP2 Energies <==================
	-----------------------------------------------------------
	 SCS Same-Spin Scale       =       0.3333333333333333 [-]
	 SCS Opposite-Spin Scale   =       1.2000000000000000 [-]
	 SCS Same-Spin Energy      =      -0.1877708252609003 [Eh]
	 SCS Opposite-Spin Energy  =      -2.0360695280501355 [Eh]
	 SCS Correlation Energy    =      -2.2238403533110356 [Eh]
	 SCS Total Energy          =    -607.7954506601322464 [Eh]
	-----------------------------------------------------------

  Dipole Moment: [D]
     X:     2.6118      Y:     0.4803      Z:    -0.0546     Total:     2.6561

*** Psi4 exiting successfully. Buy a developer a beer!
