                               Psi4 1.4a3.dev225

  ==> Input File <==

--------------------------------------------------------------------------
#psi4
#
memory 32 gb

molecule  {
0 1
  F       -1.9734470     0.4735540    -0.9939180
  F       -1.9413570    -1.5269070    -0.1417860
  F       -1.9373460     0.2097040     1.1676710
  C        0.0587940    -0.2544720    -0.0183930
  C        0.7415540     0.9772520     0.0078750
  C        0.7507890    -1.4682550    -0.0178400
  C        2.1403840     0.9368280     0.0127460
  C       -1.4402130    -0.2782400     0.0012850
  C        0.0310770     2.3081630    -0.0188960
  C        2.1451100    -1.4771990    -0.0107000
  C        2.8415060    -0.2700650     0.0090350
  H        0.1981450    -2.4017980    -0.0309650
  H        2.6907970     1.8755160     0.0309210
  H       -0.3505540     2.5311140    -1.0192600
  H       -0.8236780     2.3130560     0.6596554
  H        0.7236060     3.1036700     0.2672330
  H        2.6805350    -2.4229320    -0.0122850
  H        3.9287950    -0.2645730     0.0170060
units angstrom
no_reorient  #important for SAPT in psi4, default
symmetry c1  #important for SAPT in psi4, default
}

set PROPERTIES_ORIGIN ["COM"]
properties('MP2/aug-cc-pvtz', properties = ['dipole'])
--------------------------------------------------------------------------

    Molecular point group: c1
  Charge       = 0
  Multiplicity = 1
  Basis Set: AUG-CC-PVTZ
    Blend: AUG-CC-PVTZ
  Basis Set: (AUG-CC-PVTZ AUX)
    Blend: AUG-CC-PVTZ-JKFIT

    Orbital Energies [Eh]
    ---------------------

    Doubly Occupied:

       1A    -26.335484     2A    -26.331938     3A    -26.331134
       4A    -11.508708     5A    -11.270274     6A    -11.264763
       7A    -11.259724     8A    -11.256623     9A    -11.248734
      10A    -11.248161    11A    -11.234008    12A     -1.717438
      13A     -1.626660    14A     -1.623290    15A     -1.180548
      16A     -1.071996    17A     -1.057044    18A     -0.973592
      19A     -0.937179    20A     -0.862028    21A     -0.836972
      22A     -0.811587    23A     -0.803798    24A     -0.774038
      25A     -0.704725    26A     -0.704253    27A     -0.689137
      28A     -0.666146    29A     -0.656863    30A     -0.648758
      31A     -0.643970    32A     -0.634668    33A     -0.589774
      34A     -0.584311    35A     -0.580109    36A     -0.555310
      37A     -0.509461    38A     -0.508653    39A     -0.506388
      40A     -0.360456    41A     -0.344113

  @DF-RHF Final Energy:  -605.57746816950919

   => Energetics <=

    Nuclear Repulsion Energy =            632.1009052734075340
    One-Electron Energy =               -2088.4511158681007146
    Two-Electron Energy =                 850.7727424251839921
    Total Energy =                       -605.5774681695091886
  Basis Set: (AUG-CC-PVTZ AUX)
    Blend: AUG-CC-PVTZ-RI
    Molecular point group: c1

    Geometry (in Angstrom), charge = 0, multiplicity = 1:

       Center              X                  Y                   Z               Mass
    ------------   -----------------  -----------------  -----------------  -----------------
         F           -1.880756900880     0.508347772224    -0.994544586382    18.998403162730
         F           -1.848666900880    -1.492113227776    -0.142412586382    18.998403162730
         F           -1.844655900880     0.244497772224     1.167044413618    18.998403162730
         C            0.151484099120    -0.219678227776    -0.019019586382    12.000000000000
         C            0.834244099120     1.012045772224     0.007248413618    12.000000000000
         C            0.843479099120    -1.433461227776    -0.018466586382    12.000000000000
         C            2.233074099120     0.971621772224     0.012119413618    12.000000000000
         C           -1.347522900880    -0.243446227776     0.000658413618    12.000000000000
         C            0.123767099120     2.342956772224    -0.019522586382    12.000000000000
         C            2.237800099120    -1.442405227776    -0.011326586382    12.000000000000
         C            2.934196099120    -0.235271227776     0.008408413618    12.000000000000
         H            0.290835099120    -2.367004227776    -0.031591586382     1.007825032230
         H            2.783487099120     1.910309772224     0.030294413618     1.007825032230
         H           -0.257863900880     2.565907772224    -1.019886586382     1.007825032230
         H           -0.730987900880     2.347849772224     0.659028813618     1.007825032230
         H            0.816296099120     3.138463772224     0.266606413618     1.007825032230
         H            2.773225099120    -2.388138227776    -0.012911586382     1.007825032230
         H            4.021485099120    -0.229779227776     0.016379413618     1.007825032230

  Basis Set: AUG-CC-PVTZ
    Blend: AUG-CC-PVTZ
  Basis Set: (AUG-CC-PVTZ AUX)
    Blend: AUG-CC-PVTZ-JKFIT
	 Reference Energy          =    -605.5774681695091886 [Eh]
	 Singles Energy            =      -0.0000000000000000 [Eh]
	 Same-Spin Energy          =      -0.5633587368958929 [Eh]
	 Opposite-Spin Energy      =      -1.6973448142770946 [Eh]
	 Correlation Energy        =      -2.2607035511729876 [Eh]
	 Total Energy              =    -607.8381717206822259 [Eh]

	 ================> DF-SCS-MP2 Energies <==================
	-----------------------------------------------------------
	 SCS Same-Spin Scale       =       0.3333333333333333 [-]
	 SCS Opposite-Spin Scale   =       1.2000000000000000 [-]
	 SCS Same-Spin Energy      =      -0.1877862456319643 [Eh]
	 SCS Opposite-Spin Energy  =      -2.0368137771325134 [Eh]
	 SCS Correlation Energy    =      -2.2246000227644775 [Eh]
	 SCS Total Energy          =    -607.8020681922736230 [Eh]
	-----------------------------------------------------------

  Dipole Moment: [D]
     X:     2.5921      Y:     0.4308      Z:    -0.0675     Total:     2.6285

*** Psi4 exiting successfully. Buy a developer a beer!
