                               Psi4 1.4a3.dev225

  ==> Input File <==

--------------------------------------------------------------------------
#psi4
#
memory 32 gb

molecule  {
0 1
  F       -1.9734470     0.4735540    -0.9939180
  F       -1.9413570    -1.5269070    -0.1417860
  F       -1.9373460     0.2097040     1.1676710
  C        0.0587940    -0.2544720    -0.0183930
  C        0.7192389     0.9654492     0.0003736
  C        0.7507890    -1.4682550    -0.0178400
  C        2.1403840     0.9368280     0.0127460
  C       -1.4402130    -0.2782400     0.0012850
  C        0.0310770     2.3081630    -0.0188960
  C        2.1451100    -1.4771990    -0.0107000
  C        2.8415060    -0.2700650     0.0090350
  H        0.1981450    -2.4017980    -0.0309650
  H        2.6907970     1.8755160     0.0309210
  H       -0.3505540     2.5311140    -1.0192600
  H       -0.8159800     2.3277740     0.6689790
  H        0.7236060     3.1036700     0.2672330
  H        2.6805350    -2.4229320    -0.0122850
  H        3.9287950    -0.2645730     0.0170060
units angstrom
no_reorient  #important for SAPT in psi4, default
symmetry c1  #important for SAPT in psi4, default
}

set PROPERTIES_ORIGIN ["COM"]
properties('MP2/aug-cc-pvtz', properties = ['dipole'])
--------------------------------------------------------------------------

    Molecular point group: c1
  Charge       = 0
  Multiplicity = 1
  Basis Set: AUG-CC-PVTZ
    Blend: AUG-CC-PVTZ
  Basis Set: (AUG-CC-PVTZ AUX)
    Blend: AUG-CC-PVTZ-JKFIT

    Orbital Energies [Eh]
    ---------------------

    Doubly Occupied:

       1A    -26.335306     2A    -26.331948     3A    -26.331063
       4A    -11.508281     5A    -11.270595     6A    -11.263100
       7A    -11.259322     8A    -11.256154     9A    -11.250521
      10A    -11.248770    11A    -11.234315    12A     -1.717368
      13A     -1.626577    14A     -1.623236    15A     -1.181220
      16A     -1.073630    17A     -1.054596    18A     -0.973249
      19A     -0.937282    20A     -0.861123    21A     -0.839306
      22A     -0.811521    23A     -0.804199    24A     -0.772629
      25A     -0.704711    26A     -0.704149    27A     -0.689041
      28A     -0.666027    29A     -0.656841    30A     -0.648656
      31A     -0.643896    32A     -0.634946    33A     -0.588470
      34A     -0.585107    35A     -0.581414    36A     -0.554660
      37A     -0.513096    38A     -0.508770    39A     -0.502475
      40A     -0.361721    41A     -0.342672

  @DF-RHF Final Energy:  -605.57676550084659

   => Energetics <=

    Nuclear Repulsion Energy =            632.2982814755135905
    One-Electron Energy =               -2088.8461717374561886
    Two-Electron Energy =                 850.9711247610958935
    Total Energy =                       -605.5767655008465908
  Basis Set: (AUG-CC-PVTZ AUX)
    Blend: AUG-CC-PVTZ-RI
    Molecular point group: c1

    Geometry (in Angstrom), charge = 0, multiplicity = 1:

       Center              X                  Y                   Z               Mass
    ------------   -----------------  -----------------  -----------------  -----------------
         F           -1.879132264906     0.509140027414    -0.994040867230    18.998403162730
         F           -1.847042264906    -1.491320972586    -0.141908867230    18.998403162730
         F           -1.843031264906     0.245290027414     1.167548132770    18.998403162730
         C            0.153108735094    -0.218885972586    -0.018515867230    12.000000000000
         C            0.813553635094     1.001035227414     0.000250732770    12.000000000000
         C            0.845103735094    -1.432668972586    -0.017962867230    12.000000000000
         C            2.234698735094     0.972414027414     0.012623132770    12.000000000000
         C           -1.345898264906    -0.242653972586     0.001162132770    12.000000000000
         C            0.125391735094     2.343749027414    -0.019018867230    12.000000000000
         C            2.239424735094    -1.441612972586    -0.010822867230    12.000000000000
         C            2.935820735094    -0.234478972586     0.008912132770    12.000000000000
         H            0.292459735094    -2.366211972586    -0.031087867230     1.007825032230
         H            2.785111735094     1.911102027414     0.030798132770     1.007825032230
         H           -0.256239264906     2.566700027414    -1.019382867230     1.007825032230
         H           -0.721665264906     2.363360027414     0.668856132770     1.007825032230
         H            0.817920735094     3.139256027414     0.267110132770     1.007825032230
         H            2.774849735094    -2.387345972586    -0.012407867230     1.007825032230
         H            4.023109735094    -0.228986972586     0.016883132770     1.007825032230

  Basis Set: AUG-CC-PVTZ
    Blend: AUG-CC-PVTZ
  Basis Set: (AUG-CC-PVTZ AUX)
    Blend: AUG-CC-PVTZ-JKFIT
	 Reference Energy          =    -605.5767655008465908 [Eh]
	 Singles Energy            =      -0.0000000000000000 [Eh]
	 Same-Spin Energy          =      -0.5633690589564118 [Eh]
	 Opposite-Spin Energy      =      -1.6973763836632656 [Eh]
	 Correlation Energy        =      -2.2607454426196774 [Eh]
	 Total Energy              =    -607.8375109434662136 [Eh]

	 ================> DF-SCS-MP2 Energies <==================
	-----------------------------------------------------------
	 SCS Same-Spin Scale       =       0.3333333333333333 [-]
	 SCS Opposite-Spin Scale   =       1.2000000000000000 [-]
	 SCS Same-Spin Energy      =      -0.1877896863188039 [Eh]
	 SCS Opposite-Spin Energy  =      -2.0368516603959188 [Eh]
	 SCS Correlation Energy    =      -2.2246413467147228 [Eh]
	 SCS Total Energy          =    -607.8014068475613385 [Eh]
	-----------------------------------------------------------

  Dipole Moment: [D]
     X:     2.5980      Y:     0.4482      Z:    -0.0607     Total:     2.6370

*** Psi4 exiting successfully. Buy a developer a beer!
