                               Psi4 1.4a3.dev225

  ==> Input File <==

--------------------------------------------------------------------------
#psi4
#
memory 32 gb

molecule  {
0 1
  F       -1.9734470     0.4735540    -0.9939180
  F       -1.9413570    -1.5269070    -0.1417860
  F       -1.9373460     0.2097040     1.1676710
  C        0.0587940    -0.2544720    -0.0183930
  C        0.7415540     0.9772520     0.0078750
  C        0.7507890    -1.4682550    -0.0178400
  C        2.1403840     0.9368280     0.0127460
  C       -1.4402130    -0.2782400     0.0012850
  C        0.0310770     2.3081630    -0.0188960
  C        2.1451100    -1.4771990    -0.0107000
  C        2.8163901    -0.2268311     0.0091679
  H        0.1981450    -2.4017980    -0.0309650
  H        2.6907970     1.8755160     0.0309210
  H       -0.3505540     2.5311140    -1.0192600
  H       -0.8159800     2.3277740     0.6689790
  H        0.7236060     3.1036700     0.2672330
  H        2.6805350    -2.4229320    -0.0122850
  H        3.9287950    -0.2645730     0.0170060
units angstrom
no_reorient  #important for SAPT in psi4, default
symmetry c1  #important for SAPT in psi4, default
}

set PROPERTIES_ORIGIN ["COM"]
properties('MP2/aug-cc-pvtz', properties = ['dipole'])
--------------------------------------------------------------------------

    Molecular point group: c1
  Charge       = 0
  Multiplicity = 1
  Basis Set: AUG-CC-PVTZ
    Blend: AUG-CC-PVTZ
  Basis Set: (AUG-CC-PVTZ AUX)
    Blend: AUG-CC-PVTZ-JKFIT

    Orbital Energies [Eh]
    ---------------------

    Doubly Occupied:

       1A    -26.335334     2A    -26.331585     3A    -26.330731
       4A    -11.508377     5A    -11.271540     6A    -11.263810
       7A    -11.258615     8A    -11.255591     9A    -11.250625
      10A    -11.242997    11A    -11.234481    12A     -1.717145
      13A     -1.626437    14A     -1.622921    15A     -1.182794
      16A     -1.071934    17A     -1.059015    18A     -0.976922
      19A     -0.935397    20A     -0.859008    21A     -0.838667
      22A     -0.811291    23A     -0.803818    24A     -0.773971
      25A     -0.704485    26A     -0.704022    27A     -0.687069
      28A     -0.666316    29A     -0.656587    30A     -0.649446
      31A     -0.643663    32A     -0.634946    33A     -0.592451
      34A     -0.585544    35A     -0.578066    36A     -0.551989
      37A     -0.512706    38A     -0.510188    39A     -0.501212
      40A     -0.365994    41A     -0.341244

  @DF-RHF Final Energy:  -605.57444925836683

   => Energetics <=

    Nuclear Repulsion Energy =            632.6477961442151354
    One-Electron Energy =               -2089.5466245907805387
    Two-Electron Energy =                 851.3243791881985771
    Total Energy =                       -605.5744492583668261
  Basis Set: (AUG-CC-PVTZ AUX)
    Blend: AUG-CC-PVTZ-RI
    Molecular point group: c1

    Geometry (in Angstrom), charge = 0, multiplicity = 1:

       Center              X                  Y                   Z               Mass
    ------------   -----------------  -----------------  -----------------  -----------------
         F           -1.878922270509     0.505013564040    -0.994613260912    18.998403162730
         F           -1.846832270509    -1.495447435960    -0.142481260912    18.998403162730
         F           -1.842821270509     0.241163564040     1.166975739088    18.998403162730
         C            0.153318729491    -0.223012435960    -0.019088260912    12.000000000000
         C            0.836078729491     1.008711564040     0.007179739088    12.000000000000
         C            0.845313729491    -1.436795435960    -0.018535260912    12.000000000000
         C            2.234908729491     0.968287564040     0.012050739088    12.000000000000
         C           -1.345688270509    -0.246780435960     0.000589739088    12.000000000000
         C            0.125601729491     2.339622564040    -0.019591260912    12.000000000000
         C            2.239634729491    -1.445739435960    -0.011395260912    12.000000000000
         C            2.910914829491    -0.195371535960     0.008472639088    12.000000000000
         H            0.292669729491    -2.370338435960    -0.031660260912     1.007825032230
         H            2.785321729491     1.906975564040     0.030225739088     1.007825032230
         H           -0.256029270509     2.562573564040    -1.019955260912     1.007825032230
         H           -0.721455270509     2.359233564040     0.668283739088     1.007825032230
         H            0.818130729491     3.135129564040     0.266537739088     1.007825032230
         H            2.775059729491    -2.391472435960    -0.012980260912     1.007825032230
         H            4.023319729491    -0.233113435960     0.016310739088     1.007825032230

  Basis Set: AUG-CC-PVTZ
    Blend: AUG-CC-PVTZ
  Basis Set: (AUG-CC-PVTZ AUX)
    Blend: AUG-CC-PVTZ-JKFIT
	 Reference Energy          =    -605.5744492583668261 [Eh]
	 Singles Energy            =      -0.0000000000000000 [Eh]
	 Same-Spin Energy          =      -0.5633712715986383 [Eh]
	 Opposite-Spin Energy      =      -1.6973451918895011 [Eh]
	 Correlation Energy        =      -2.2607164634881394 [Eh]
	 Total Energy              =    -607.8351657218549917 [Eh]

	 ================> DF-SCS-MP2 Energies <==================
	-----------------------------------------------------------
	 SCS Same-Spin Scale       =       0.3333333333333333 [-]
	 SCS Opposite-Spin Scale   =       1.2000000000000000 [-]
	 SCS Same-Spin Energy      =      -0.1877904238662128 [Eh]
	 SCS Opposite-Spin Energy  =      -2.0368142302674013 [Eh]
	 SCS Correlation Energy    =      -2.2246046541336142 [Eh]
	 SCS Total Energy          =    -607.7990539125004261 [Eh]
	-----------------------------------------------------------

  Dipole Moment: [D]
     X:     2.5840      Y:     0.4286      Z:    -0.0629     Total:     2.6200

*** Psi4 exiting successfully. Buy a developer a beer!
