                               Psi4 1.4a3.dev225

  ==> Input File <==

--------------------------------------------------------------------------
#psi4
#
memory 32 gb

molecule  {
0 1
  F       -1.9734470     0.4735540    -0.9939180
  F       -1.9413570    -1.5269070    -0.1417860
  F       -1.9373460     0.2097040     1.1676710
  C       -0.0662439    -0.1763591    -0.0174062
  C        0.7415540     0.9772520     0.0078750
  C        0.7507890    -1.4682550    -0.0178400
  C        2.1403840     0.9368280     0.0127460
  C       -1.4402130    -0.2782400     0.0012850
  C        0.0310770     2.3081630    -0.0188960
  C        2.1451100    -1.4771990    -0.0107000
  C        2.8415060    -0.2700650     0.0090350
  H        0.1981450    -2.4017980    -0.0309650
  H        2.6907970     1.8755160     0.0309210
  H       -0.3505540     2.5311140    -1.0192600
  H       -0.8159800     2.3277740     0.6689790
  H        0.7236060     3.1036700     0.2672330
  H        2.6805350    -2.4229320    -0.0122850
  H        3.9287950    -0.2645730     0.0170060
units angstrom
no_reorient  #important for SAPT in psi4, default
symmetry c1  #important for SAPT in psi4, default
}

set PROPERTIES_ORIGIN ["COM"]
properties('MP2/aug-cc-pvtz', properties = ['dipole'])
--------------------------------------------------------------------------

    Molecular point group: c1
  Charge       = 0
  Multiplicity = 1
  Basis Set: AUG-CC-PVTZ
    Blend: AUG-CC-PVTZ
  Basis Set: (AUG-CC-PVTZ AUX)
    Blend: AUG-CC-PVTZ-JKFIT

    Orbital Energies [Eh]
    ---------------------

    Doubly Occupied:

       1A    -26.337734     2A    -26.327490     3A    -26.327326
       4A    -11.503171     5A    -11.276715     6A    -11.275546
       7A    -11.263948     8A    -11.262986     9A    -11.250647
      10A    -11.250389    11A    -11.230419    12A     -1.718279
      13A     -1.627321    14A     -1.621649    15A     -1.176194
      16A     -1.089881    17A     -1.055553    18A     -0.977897
      19A     -0.931196    20A     -0.871919    21A     -0.836438
      22A     -0.813483    23A     -0.804189    24A     -0.768060
      25A     -0.706152    26A     -0.704580    27A     -0.690689
      28A     -0.665395    29A     -0.655472    30A     -0.649913
      31A     -0.642263    32A     -0.633564    33A     -0.590105
      34A     -0.587237    35A     -0.582761    36A     -0.552134
      37A     -0.523260    38A     -0.501043    39A     -0.488490
      40A     -0.354971    41A     -0.345898

  @DF-RHF Final Energy:  -605.54611871904967

   => Energetics <=

    Nuclear Repulsion Energy =            632.8488212073780232
    One-Electron Energy =               -2089.8451695630938048
    Two-Electron Energy =                 851.4502296366661085
    Total Energy =                       -605.5461187190496730
  Basis Set: (AUG-CC-PVTZ AUX)
    Blend: AUG-CC-PVTZ-RI
    Molecular point group: c1

    Geometry (in Angstrom), charge = 0, multiplicity = 1:

       Center              X                  Y                   Z               Mass
    ------------   -----------------  -----------------  -----------------  -----------------
         F           -1.871430460984     0.502398456011    -0.994677283411    18.998403162730
         F           -1.839340460984    -1.498062543989    -0.142545283411    18.998403162730
         F           -1.835329460984     0.238548456011     1.166911716589    18.998403162730
         C            0.035772639016    -0.147514643989    -0.018165483411    12.000000000000
         C            0.843570539016     1.006096456011     0.007115716589    12.000000000000
         C            0.852805539016    -1.439410543989    -0.018599283411    12.000000000000
         C            2.242400539016     0.965672456011     0.011986716589    12.000000000000
         C           -1.338196460984    -0.249395543989     0.000525716589    12.000000000000
         C            0.133093539016     2.337007456011    -0.019655283411    12.000000000000
         C            2.247126539016    -1.448354543989    -0.011459283411    12.000000000000
         C            2.943522539016    -0.241220543989     0.008275716589    12.000000000000
         H            0.300161539016    -2.372953543989    -0.031724283411     1.007825032230
         H            2.792813539016     1.904360456011     0.030161716589     1.007825032230
         H           -0.248537460984     2.559958456011    -1.020019283411     1.007825032230
         H           -0.713963460984     2.356618456011     0.668219716589     1.007825032230
         H            0.825622539016     3.132514456011     0.266473716589     1.007825032230
         H            2.782551539016    -2.394087543989    -0.013044283411     1.007825032230
         H            4.030811539016    -0.235728543989     0.016246716589     1.007825032230

  Basis Set: AUG-CC-PVTZ
    Blend: AUG-CC-PVTZ
  Basis Set: (AUG-CC-PVTZ AUX)
    Blend: AUG-CC-PVTZ-JKFIT
	 Reference Energy          =    -605.5461187190496730 [Eh]
	 Singles Energy            =      -0.0000000000000000 [Eh]
	 Same-Spin Energy          =      -0.5650884250076926 [Eh]
	 Opposite-Spin Energy      =      -1.7008639793221705 [Eh]
	 Correlation Energy        =      -2.2659524043298633 [Eh]
	 Total Energy              =    -607.8120711233794964 [Eh]

	 ================> DF-SCS-MP2 Energies <==================
	-----------------------------------------------------------
	 SCS Same-Spin Scale       =       0.3333333333333333 [-]
	 SCS Opposite-Spin Scale   =       1.2000000000000000 [-]
	 SCS Same-Spin Energy      =      -0.1883628083358975 [Eh]
	 SCS Opposite-Spin Energy  =      -2.0410367751866043 [Eh]
	 SCS Correlation Energy    =      -2.2293995835225018 [Eh]
	 SCS Total Energy          =    -607.7755183025722090 [Eh]
	-----------------------------------------------------------

  Dipole Moment: [D]
     X:     2.8218      Y:     0.3788      Z:    -0.0603     Total:     2.8478

*** Psi4 exiting successfully. Buy a developer a beer!
