                               Psi4 1.4a3.dev225

  ==> Input File <==

--------------------------------------------------------------------------
#psi4
#
memory 32 gb

molecule  {
0 1
  F       -1.9734470     0.4735540    -0.9939180
  F       -1.9413570    -1.5269070    -0.1417860
  F       -1.9373460     0.2097040     1.1676710
  C        0.0587940    -0.2544720    -0.0183930
  C        0.7415540     0.9772520     0.0078750
  C        0.7507890    -1.4682550    -0.0178400
  C        2.1403840     0.9368280     0.0127460
  C       -1.4480752    -0.2671553    -0.0133886
  C        0.0310770     2.3081630    -0.0188960
  C        2.1451100    -1.4771990    -0.0107000
  C        2.8415060    -0.2700650     0.0090350
  H        0.1981450    -2.4017980    -0.0309650
  H        2.6907970     1.8755160     0.0309210
  H       -0.3505540     2.5311140    -1.0192600
  H       -0.8159800     2.3277740     0.6689790
  H        0.7236060     3.1036700     0.2672330
  H        2.6805350    -2.4229320    -0.0122850
  H        3.9287950    -0.2645730     0.0170060
units angstrom
no_reorient  #important for SAPT in psi4, default
symmetry c1  #important for SAPT in psi4, default
}

set PROPERTIES_ORIGIN ["COM"]
properties('MP2/aug-cc-pvtz', properties = ['dipole'])
--------------------------------------------------------------------------

    Molecular point group: c1
  Charge       = 0
  Multiplicity = 1
  Basis Set: AUG-CC-PVTZ
    Blend: AUG-CC-PVTZ
  Basis Set: (AUG-CC-PVTZ AUX)
    Blend: AUG-CC-PVTZ-JKFIT

    Orbital Energies [Eh]
    ---------------------

    Doubly Occupied:

       1A    -26.339691     2A    -26.332795     3A    -26.328494
       4A    -11.508721     5A    -11.269582     6A    -11.264680
       7A    -11.259019     8A    -11.255964     9A    -11.248373
      10A    -11.247794    11A    -11.234204    12A     -1.720043
      13A     -1.631905    14A     -1.620879    15A     -1.179647
      16A     -1.071025    17A     -1.055971    18A     -0.973580
      19A     -0.937582    20A     -0.862031    21A     -0.836733
      22A     -0.813885    23A     -0.805175    24A     -0.774576
      25A     -0.707658    26A     -0.703184    27A     -0.688816
      28A     -0.666876    29A     -0.658107    30A     -0.648068
      31A     -0.644412    32A     -0.634384    33A     -0.588901
      34A     -0.584963    35A     -0.579823    36A     -0.553928
      37A     -0.508476    38A     -0.508152    39A     -0.506082
      40A     -0.359669    41A     -0.343844

  @DF-RHF Final Energy:  -605.57759697009442

   => Energetics <=

    Nuclear Repulsion Energy =            632.0615289031989050
    One-Electron Energy =               -2088.3628715986887983
    Two-Electron Energy =                 850.7237457253954744
    Total Energy =                       -605.5775969700944188
  Basis Set: (AUG-CC-PVTZ AUX)
    Blend: AUG-CC-PVTZ-RI
    Molecular point group: c1

    Geometry (in Angstrom), charge = 0, multiplicity = 1:

       Center              X                  Y                   Z               Mass
    ------------   -----------------  -----------------  -----------------  -----------------
         F           -1.880215893875     0.507424001009    -0.993503120225    18.998403162730
         F           -1.848125893875    -1.493036998991    -0.141371120225    18.998403162730
         F           -1.844114893875     0.243574001009     1.168085879775    18.998403162730
         C            0.152025106125    -0.220601998991    -0.017978120225    12.000000000000
         C            0.834785106125     1.011122001009     0.008289879775    12.000000000000
         C            0.844020106125    -1.434384998991    -0.017425120225    12.000000000000
         C            2.233615106125     0.970698001009     0.013160879775    12.000000000000
         C           -1.354844093875    -0.233285298991    -0.012973720225    12.000000000000
         C            0.124308106125     2.342033001009    -0.018481120225    12.000000000000
         C            2.238341106125    -1.443328998991    -0.010285120225    12.000000000000
         C            2.934737106125    -0.236194998991     0.009449879775    12.000000000000
         H            0.291376106125    -2.367927998991    -0.030550120225     1.007825032230
         H            2.784028106125     1.909386001009     0.031335879775     1.007825032230
         H           -0.257322893875     2.564984001009    -1.018845120225     1.007825032230
         H           -0.722748893875     2.361644001009     0.669393879775     1.007825032230
         H            0.816837106125     3.137540001009     0.267647879775     1.007825032230
         H            2.773766106125    -2.389061998991    -0.011870120225     1.007825032230
         H            4.022026106125    -0.230702998991     0.017420879775     1.007825032230

  Basis Set: AUG-CC-PVTZ
    Blend: AUG-CC-PVTZ
  Basis Set: (AUG-CC-PVTZ AUX)
    Blend: AUG-CC-PVTZ-JKFIT
	 Reference Energy          =    -605.5775969700944188 [Eh]
	 Singles Energy            =      -0.0000000000000000 [Eh]
	 Same-Spin Energy          =      -0.5632525570116904 [Eh]
	 Opposite-Spin Energy      =      -1.6970825610071474 [Eh]
	 Correlation Energy        =      -2.2603351180188378 [Eh]
	 Total Energy              =    -607.8379320881132344 [Eh]

	 ================> DF-SCS-MP2 Energies <==================
	-----------------------------------------------------------
	 SCS Same-Spin Scale       =       0.3333333333333333 [-]
	 SCS Opposite-Spin Scale   =       1.2000000000000000 [-]
	 SCS Same-Spin Energy      =      -0.1877508523372301 [Eh]
	 SCS Opposite-Spin Energy  =      -2.0364990732085766 [Eh]
	 SCS Correlation Energy    =      -2.2242499255458066 [Eh]
	 SCS Total Energy          =    -607.8018468956402103 [Eh]
	-----------------------------------------------------------

  Dipole Moment: [D]
     X:     2.5228      Y:     0.5085      Z:    -0.1702     Total:     2.5791

*** Psi4 exiting successfully. Buy a developer a beer!
