                               Psi4 1.4a3.dev225

  ==> Input File <==

--------------------------------------------------------------------------
#psi4
#
memory 32 gb

molecule  {
0 1
  F       -1.9734470     0.4735540    -0.9939180
  F       -1.9413570    -1.5269070    -0.1417860
  F       -1.9373460     0.2097040     1.1676710
  C        0.0587940    -0.2544720    -0.0183930
  C        0.6046570     0.9126380    -0.0371755
  C        0.7507890    -1.4682550    -0.0178400
  C        2.1403840     0.9368280     0.0127460
  C       -1.4402130    -0.2782400     0.0012850
  C        0.0310770     2.3081630    -0.0188960
  C        2.1451100    -1.4771990    -0.0107000
  C        2.8415060    -0.2700650     0.0090350
  H        0.1981450    -2.4017980    -0.0309650
  H        2.6907970     1.8755160     0.0309210
  H       -0.3505540     2.5311140    -1.0192600
  H       -0.8159800     2.3277740     0.6689790
  H        0.7236060     3.1036700     0.2672330
  H        2.6805350    -2.4229320    -0.0122850
  H        3.9287950    -0.2645730     0.0170060
units angstrom
no_reorient  #important for SAPT in psi4, default
symmetry c1  #important for SAPT in psi4, default
}

set PROPERTIES_ORIGIN ["COM"]
properties('MP2/aug-cc-pvtz', properties = ['dipole'])
--------------------------------------------------------------------------

    Molecular point group: c1
  Charge       = 0
  Multiplicity = 1
  Basis Set: AUG-CC-PVTZ
    Blend: AUG-CC-PVTZ
  Basis Set: (AUG-CC-PVTZ AUX)
    Blend: AUG-CC-PVTZ-JKFIT

    Orbital Energies [Eh]
    ---------------------

    Doubly Occupied:

       1A    -26.334258     2A    -26.332528     3A    -26.331375
       4A    -11.506064     5A    -11.269853     6A    -11.260164
       7A    -11.257369     8A    -11.253299     9A    -11.253205
      10A    -11.249374    11A    -11.237027    12A     -1.717449
      13A     -1.626371    14A     -1.623657    15A     -1.187226
      16A     -1.082172    17A     -1.043703    18A     -0.971945
      19A     -0.939785    20A     -0.861804    21A     -0.845210
      22A     -0.811661    23A     -0.805532    24A     -0.764936
      25A     -0.705450    26A     -0.703695    27A     -0.688388
      28A     -0.665531    29A     -0.657198    30A     -0.648335
      31A     -0.644051    32A     -0.636263    33A     -0.591819
      34A     -0.587125    35A     -0.578533    36A     -0.558414
      37A     -0.526456    38A     -0.509633    39A     -0.475719
      40A     -0.374684    41A     -0.332343

  @DF-RHF Final Energy:  -605.54981080851815

   => Energetics <=

    Nuclear Repulsion Energy =            633.6038096373436019
    One-Electron Energy =               -2091.4080327691867751
    Two-Electron Energy =                 852.2544123233250275
    Total Energy =                       -605.5498108085181457
  Basis Set: (AUG-CC-PVTZ AUX)
    Blend: AUG-CC-PVTZ-RI
    Molecular point group: c1

    Geometry (in Angstrom), charge = 0, multiplicity = 1:

       Center              X                  Y                   Z               Mass
    ------------   -----------------  -----------------  -----------------  -----------------
         F           -1.870541306260     0.513099630417    -0.991225564243    18.998403162730
         F           -1.838451306260    -1.487361369583    -0.139093564243    18.998403162730
         F           -1.834440306260     0.249249630417     1.170363435757    18.998403162730
         C            0.161699693740    -0.214926369583    -0.015700564243    12.000000000000
         C            0.707562693740     0.952183630417    -0.034483064243    12.000000000000
         C            0.853694693740    -1.428709369583    -0.015147564243    12.000000000000
         C            2.243289693740     0.976373630417     0.015438435757    12.000000000000
         C           -1.337307306260    -0.238694369583     0.003977435757    12.000000000000
         C            0.133982693740     2.347708630417    -0.016203564243    12.000000000000
         C            2.248015693740    -1.437653369583    -0.008007564243    12.000000000000
         C            2.944411693740    -0.230519369583     0.011727435757    12.000000000000
         H            0.301050693740    -2.362252369583    -0.028272564243     1.007825032230
         H            2.793702693740     1.915061630417     0.033613435757     1.007825032230
         H           -0.247648306260     2.570659630417    -1.016567564243     1.007825032230
         H           -0.713074306260     2.367319630417     0.671671435757     1.007825032230
         H            0.826511693740     3.143215630417     0.269925435757     1.007825032230
         H            2.783440693740    -2.383386369583    -0.009592564243     1.007825032230
         H            4.031700693740    -0.225027369583     0.019698435757     1.007825032230

  Basis Set: AUG-CC-PVTZ
    Blend: AUG-CC-PVTZ
  Basis Set: (AUG-CC-PVTZ AUX)
    Blend: AUG-CC-PVTZ-JKFIT
	 Reference Energy          =    -605.5498108085181457 [Eh]
	 Singles Energy            =      -0.0000000000000000 [Eh]
	 Same-Spin Energy          =      -0.5630654605175096 [Eh]
	 Opposite-Spin Energy      =      -1.6985963512176074 [Eh]
	 Correlation Energy        =      -2.2616618117351170 [Eh]
	 Total Energy              =    -607.8114726202533120 [Eh]

	 ================> DF-SCS-MP2 Energies <==================
	-----------------------------------------------------------
	 SCS Same-Spin Scale       =       0.3333333333333333 [-]
	 SCS Opposite-Spin Scale   =       1.2000000000000000 [-]
	 SCS Same-Spin Energy      =      -0.1876884868391699 [Eh]
	 SCS Opposite-Spin Energy  =      -2.0383156214611287 [Eh]
	 SCS Correlation Energy    =      -2.2260041083002986 [Eh]
	 SCS Total Energy          =    -607.7758149168184900 [Eh]
	-----------------------------------------------------------

  Dipole Moment: [D]
     X:     2.5900      Y:     0.5318      Z:    -0.0530     Total:     2.6446

*** Psi4 exiting successfully. Buy a developer a beer!
