                               Psi4 1.4a3.dev225

  ==> Input File <==

--------------------------------------------------------------------------
#psi4
#
memory 32 gb

molecule  {
0 1
  F       -1.9734470     0.4735540    -0.9939180
  F       -1.9413570    -1.5269070    -0.1417860
  F       -1.9373460     0.2097040     1.1676710
  C        0.0587940    -0.2544720    -0.0183930
  C        0.7415540     0.9772520     0.0078750
  C        0.7507890    -1.4682550    -0.0178400
  C        2.1403840     0.9368280     0.0127460
  C       -1.4402130    -0.2782400     0.0012850
  C        0.0310770     2.3081630    -0.0188960
  C        2.1451100    -1.4771990    -0.0107000
  C        2.9638739    -0.3494886     0.0098955
  H        0.1981450    -2.4017980    -0.0309650
  H        2.6907970     1.8755160     0.0309210
  H       -0.3505540     2.5311140    -1.0192600
  H       -0.8159800     2.3277740     0.6689790
  H        0.7236060     3.1036700     0.2672330
  H        2.6805350    -2.4229320    -0.0122850
  H        3.9287950    -0.2645730     0.0170060
units angstrom
no_reorient  #important for SAPT in psi4, default
symmetry c1  #important for SAPT in psi4, default
}

set PROPERTIES_ORIGIN ["COM"]
properties('MP2/aug-cc-pvtz', properties = ['dipole'])
--------------------------------------------------------------------------

    Molecular point group: c1
  Charge       = 0
  Multiplicity = 1
  Basis Set: AUG-CC-PVTZ
    Blend: AUG-CC-PVTZ
  Basis Set: (AUG-CC-PVTZ AUX)
    Blend: AUG-CC-PVTZ-JKFIT

    Orbital Energies [Eh]
    ---------------------

    Doubly Occupied:

       1A    -26.336205     2A    -26.332912     3A    -26.332120
       4A    -11.509852     5A    -11.269180     6A    -11.268006
       7A    -11.262002     8A    -11.261726     9A    -11.260428
      10A    -11.252767    11A    -11.233328    12A     -1.718269
      13A     -1.627417    14A     -1.624154    15A     -1.173541
      16A     -1.070794    17A     -1.051313    18A     -0.969789
      19A     -0.937689    20A     -0.871346    21A     -0.834634
      22A     -0.812390    23A     -0.802513    24A     -0.780020
      25A     -0.705533    26A     -0.704762    27A     -0.701825
      28A     -0.665413    29A     -0.657638    30A     -0.649147
      31A     -0.644759    32A     -0.632259    33A     -0.597998
      34A     -0.583360    35A     -0.578666    36A     -0.555081
      37A     -0.521365    38A     -0.502430    39A     -0.485677
      40A     -0.354635    41A     -0.342598

  @DF-RHF Final Energy:  -605.54814345939917

   => Energetics <=

    Nuclear Repulsion Energy =            629.4720177924980362
    One-Electron Energy =               -2083.0892452185994443
    Two-Electron Energy =                 848.0690839667022374
    Total Energy =                       -605.5481434593991708
  Basis Set: (AUG-CC-PVTZ AUX)
    Blend: AUG-CC-PVTZ-RI
    Molecular point group: c1

    Geometry (in Angstrom), charge = 0, multiplicity = 1:

       Center              X                  Y                   Z               Mass
    ------------   -----------------  -----------------  -----------------  -----------------
         F           -1.889980100993     0.514210003531    -0.994667813869    18.998403162730
         F           -1.857890100993    -1.486250996469    -0.142535813869    18.998403162730
         F           -1.853879100993     0.250360003531     1.166921186131    18.998403162730
         C            0.142260899007    -0.213815996469    -0.019142813869    12.000000000000
         C            0.825020899007     1.017908003531     0.007125186131    12.000000000000
         C            0.834255899007    -1.427598996469    -0.018589813869    12.000000000000
         C            2.223850899007     0.977484003531     0.011996186131    12.000000000000
         C           -1.356746100993    -0.237583996469     0.000535186131    12.000000000000
         C            0.114543899007     2.348819003531    -0.019645813869    12.000000000000
         C            2.228576899007    -1.436542996469    -0.011449813869    12.000000000000
         C            3.047340799007    -0.308832596469     0.009145686131    12.000000000000
         H            0.281611899007    -2.361141996469    -0.031714813869     1.007825032230
         H            2.774263899007     1.916172003531     0.030171186131     1.007825032230
         H           -0.267087100993     2.571770003531    -1.020009813869     1.007825032230
         H           -0.732513100993     2.368430003531     0.668229186131     1.007825032230
         H            0.807072899007     3.144326003531     0.266483186131     1.007825032230
         H            2.764001899007    -2.382275996469    -0.013034813869     1.007825032230
         H            4.012261899007    -0.223916996469     0.016256186131     1.007825032230

  Basis Set: AUG-CC-PVTZ
    Blend: AUG-CC-PVTZ
  Basis Set: (AUG-CC-PVTZ AUX)
    Blend: AUG-CC-PVTZ-JKFIT
	 Reference Energy          =    -605.5481434593991708 [Eh]
	 Singles Energy            =      -0.0000000000000000 [Eh]
	 Same-Spin Energy          =      -0.5635425328508350 [Eh]
	 Opposite-Spin Energy      =      -1.6997973190284550 [Eh]
	 Correlation Energy        =      -2.2633398518792900 [Eh]
	 Total Energy              =    -607.8114833112784936 [Eh]

	 ================> DF-SCS-MP2 Energies <==================
	-----------------------------------------------------------
	 SCS Same-Spin Scale       =       0.3333333333333333 [-]
	 SCS Opposite-Spin Scale   =       1.2000000000000000 [-]
	 SCS Same-Spin Energy      =      -0.1878475109502783 [Eh]
	 SCS Opposite-Spin Energy  =      -2.0397567828341461 [Eh]
	 SCS Correlation Energy    =      -2.2276042937844243 [Eh]
	 SCS Total Energy          =    -607.7757477531836230 [Eh]
	-----------------------------------------------------------

  Dipole Moment: [D]
     X:     2.5984      Y:     0.4414      Z:    -0.0618     Total:     2.6364

*** Psi4 exiting successfully. Buy a developer a beer!
