                               Psi4 1.4a3.dev225

  ==> Input File <==

--------------------------------------------------------------------------
#psi4
#
memory 32 gb

molecule  {
0 1
  F       -1.9734470     0.4735540    -0.9939180
  F       -1.9413570    -1.5269070    -0.1417860
  F       -1.9373460     0.2097040     1.1676710
  C        0.0587940    -0.2544720    -0.0183930
  C        0.7424710     1.0016554     0.0082943
  C        0.7507890    -1.4682550    -0.0178400
  C        2.1403840     0.9368280     0.0127460
  C       -1.4402130    -0.2782400     0.0012850
  C        0.0310770     2.3081630    -0.0188960
  C        2.1451100    -1.4771990    -0.0107000
  C        2.8415060    -0.2700650     0.0090350
  H        0.1981450    -2.4017980    -0.0309650
  H        2.6907970     1.8755160     0.0309210
  H       -0.3505540     2.5311140    -1.0192600
  H       -0.8159800     2.3277740     0.6689790
  H        0.7236060     3.1036700     0.2672330
  H        2.6805350    -2.4229320    -0.0122850
  H        3.9287950    -0.2645730     0.0170060
units angstrom
no_reorient  #important for SAPT in psi4, default
symmetry c1  #important for SAPT in psi4, default
}

set PROPERTIES_ORIGIN ["COM"]
properties('MP2/aug-cc-pvtz', properties = ['dipole'])
--------------------------------------------------------------------------

    Molecular point group: c1
  Charge       = 0
  Multiplicity = 1
  Basis Set: AUG-CC-PVTZ
    Blend: AUG-CC-PVTZ
  Basis Set: (AUG-CC-PVTZ AUX)
    Blend: AUG-CC-PVTZ-JKFIT

    Orbital Energies [Eh]
    ---------------------

    Doubly Occupied:

       1A    -26.335008     2A    -26.331684     3A    -26.330781
       4A    -11.508167     5A    -11.271943     6A    -11.266524
       7A    -11.259848     8A    -11.256810     9A    -11.248871
      10A    -11.248183    11A    -11.233459    12A     -1.717067
      13A     -1.626276    14A     -1.622972    15A     -1.178599
      16A     -1.071907    17A     -1.058917    18A     -0.974773
      19A     -0.937177    20A     -0.861699    21A     -0.834889
      22A     -0.811229    23A     -0.802924    24A     -0.773798
      25A     -0.704418    26A     -0.704012    27A     -0.689110
      28A     -0.665592    29A     -0.656561    30A     -0.649064
      31A     -0.643659    32A     -0.634298    33A     -0.590548
      34A     -0.586662    35A     -0.581386    36A     -0.554466
      37A     -0.511609    38A     -0.507270    39A     -0.505092
      40A     -0.359823    41A     -0.342806

  @DF-RHF Final Energy:  -605.57621732099324

   => Energetics <=

    Nuclear Repulsion Energy =            631.7785219158612335
    One-Electron Energy =               -2087.8097156040835216
    Two-Electron Energy =                 850.4549763672289373
    Total Energy =                       -605.5762173209932371
  Basis Set: (AUG-CC-PVTZ AUX)
    Blend: AUG-CC-PVTZ-RI
    Molecular point group: c1

    Geometry (in Angstrom), charge = 0, multiplicity = 1:

       Center              X                  Y                   Z               Mass
    ------------   -----------------  -----------------  -----------------  -----------------
         F           -1.880874128240     0.506425410473    -0.994634734203    18.998403162730
         F           -1.848784128240    -1.494035589527    -0.142502734203    18.998403162730
         F           -1.844773128240     0.242575410473     1.166954265797    18.998403162730
         C            0.151366871760    -0.221600589527    -0.019109734203    12.000000000000
         C            0.835043871760     1.034526810473     0.007577565797    12.000000000000
         C            0.843361871760    -1.435383589527    -0.018556734203    12.000000000000
         C            2.232956871760     0.969699410473     0.012029265797    12.000000000000
         C           -1.347640128240    -0.245368589527     0.000568265797    12.000000000000
         C            0.123649871760     2.341034410473    -0.019612734203    12.000000000000
         C            2.237682871760    -1.444327589527    -0.011416734203    12.000000000000
         C            2.934078871760    -0.237193589527     0.008318265797    12.000000000000
         H            0.290717871760    -2.368926589527    -0.031681734203     1.007825032230
         H            2.783369871760     1.908387410473     0.030204265797     1.007825032230
         H           -0.257981128240     2.563985410473    -1.019976734203     1.007825032230
         H           -0.723407128240     2.360645410473     0.668262265797     1.007825032230
         H            0.816178871760     3.136541410473     0.266516265797     1.007825032230
         H            2.773107871760    -2.390060589527    -0.013001734203     1.007825032230
         H            4.021367871760    -0.231701589527     0.016289265797     1.007825032230

  Basis Set: AUG-CC-PVTZ
    Blend: AUG-CC-PVTZ
  Basis Set: (AUG-CC-PVTZ AUX)
    Blend: AUG-CC-PVTZ-JKFIT
	 Reference Energy          =    -605.5762173209932371 [Eh]
	 Singles Energy            =      -0.0000000000000000 [Eh]
	 Same-Spin Energy          =      -0.5635526648417954 [Eh]
	 Opposite-Spin Energy      =      -1.6976691164419280 [Eh]
	 Correlation Energy        =      -2.2612217812837234 [Eh]
	 Total Energy              =    -607.8374391022770169 [Eh]

	 ================> DF-SCS-MP2 Energies <==================
	-----------------------------------------------------------
	 SCS Same-Spin Scale       =       0.3333333333333333 [-]
	 SCS Opposite-Spin Scale   =       1.2000000000000000 [-]
	 SCS Same-Spin Energy      =      -0.1878508882805985 [Eh]
	 SCS Opposite-Spin Energy  =      -2.0372029397303133 [Eh]
	 SCS Correlation Energy    =      -2.2250538280109118 [Eh]
	 SCS Total Energy          =    -607.8012711490041511 [Eh]
	-----------------------------------------------------------

  Dipole Moment: [D]
     X:     2.5819      Y:     0.4562      Z:    -0.0644     Total:     2.6226

*** Psi4 exiting successfully. Buy a developer a beer!
