                               Psi4 1.4a3.dev225

  ==> Input File <==

--------------------------------------------------------------------------
#psi4
#
memory 32 gb

molecule  {
0 1
  F       -1.9734470     0.4735540    -0.9939180
  F       -1.9413570    -1.5269070    -0.1417860
  F       -1.9373460     0.2097040     1.1676710
  C        0.0587940    -0.2544720    -0.0183930
  C        0.7415540     0.9772520     0.0078750
  C        0.7507890    -1.4682550    -0.0178400
  C        2.1403840     0.9368280     0.0127460
  C       -1.4402130    -0.2782400     0.0012850
  C        0.0310770     2.3081630    -0.0188960
  C        2.1451100    -1.4771990    -0.0107000
  C        2.8415060    -0.2700650     0.0090350
  H        0.1981450    -2.4017980    -0.0309650
  H        2.6907970     1.8755160     0.0309210
  H       -0.3505540     2.5311140    -1.0192600
  H       -0.8159800     2.3277740     0.6689790
  H        0.7236060     3.1036700     0.2672330
  H        2.6805350    -2.4229320    -0.0122850
  H        3.9087958    -0.2646740     0.0168594
units angstrom
no_reorient  #important for SAPT in psi4, default
symmetry c1  #important for SAPT in psi4, default
}

set PROPERTIES_ORIGIN ["COM"]
properties('MP2/aug-cc-pvtz', properties = ['dipole'])
--------------------------------------------------------------------------

    Molecular point group: c1
  Charge       = 0
  Multiplicity = 1
  Basis Set: AUG-CC-PVTZ
    Blend: AUG-CC-PVTZ
  Basis Set: (AUG-CC-PVTZ AUX)
    Blend: AUG-CC-PVTZ-JKFIT

    Orbital Energies [Eh]
    ---------------------

    Doubly Occupied:

       1A    -26.335372     2A    -26.331785     3A    -26.330939
       4A    -11.508579     5A    -11.270227     6A    -11.264736
       7A    -11.259591     8A    -11.254341     9A    -11.248622
      10A    -11.248060    11A    -11.233902    12A     -1.717275
      13A     -1.626522    14A     -1.623097    15A     -1.180524
      16A     -1.072311    17A     -1.056981    18A     -0.973752
      19A     -0.937256    20A     -0.862691    21A     -0.837111
      22A     -0.811424    23A     -0.803644    24A     -0.774462
      25A     -0.704561    26A     -0.704174    27A     -0.691162
      28A     -0.665849    29A     -0.656709    30A     -0.648648
      31A     -0.643795    32A     -0.635196    33A     -0.590514
      34A     -0.584876    35A     -0.580859    36A     -0.554027
      37A     -0.509634    38A     -0.508682    39A     -0.507011
      40A     -0.360379    41A     -0.344158

  @DF-RHF Final Energy:  -605.57767109818610

   => Energetics <=

    Nuclear Repulsion Energy =            632.1592852043978610
    One-Electron Energy =               -2088.5670328551118473
    Two-Electron Energy =                 850.8300765525279985
    Total Energy =                       -605.5776710981861015
  Basis Set: (AUG-CC-PVTZ AUX)
    Blend: AUG-CC-PVTZ-RI
    Molecular point group: c1

    Geometry (in Angstrom), charge = 0, multiplicity = 1:

       Center              X                  Y                   Z               Mass
    ------------   -----------------  -----------------  -----------------  -----------------
         F           -1.880679440971     0.508255729862    -0.994602373393    18.998403162730
         F           -1.848589440971    -1.492205270138    -0.142470373393    18.998403162730
         F           -1.844578440971     0.244405729862     1.166986626607    18.998403162730
         C            0.151561559029    -0.219770270138    -0.019077373393    12.000000000000
         C            0.834321559029     1.011953729862     0.007190626607    12.000000000000
         C            0.843556559029    -1.433553270138    -0.018524373393    12.000000000000
         C            2.233151559029     0.971529729862     0.012061626607    12.000000000000
         C           -1.347445440971    -0.243538270138     0.000600626607    12.000000000000
         C            0.123844559029     2.342864729862    -0.019580373393    12.000000000000
         C            2.237877559029    -1.442497270138    -0.011384373393    12.000000000000
         C            2.934273559029    -0.235363270138     0.008350626607    12.000000000000
         H            0.290912559029    -2.367096270138    -0.031649373393     1.007825032230
         H            2.783564559029     1.910217729862     0.030236626607     1.007825032230
         H           -0.257786440971     2.565815729862    -1.019944373393     1.007825032230
         H           -0.723212440971     2.362475729862     0.668294626607     1.007825032230
         H            0.816373559029     3.138371729862     0.266548626607     1.007825032230
         H            2.773302559029    -2.388230270138    -0.012969373393     1.007825032230
         H            4.001563359029    -0.229972270138     0.016175026607     1.007825032230

  Basis Set: AUG-CC-PVTZ
    Blend: AUG-CC-PVTZ
  Basis Set: (AUG-CC-PVTZ AUX)
    Blend: AUG-CC-PVTZ-JKFIT
	 Reference Energy          =    -605.5776710981861015 [Eh]
	 Singles Energy            =      -0.0000000000000000 [Eh]
	 Same-Spin Energy          =      -0.5633043771206510 [Eh]
	 Opposite-Spin Energy      =      -1.6971839072237653 [Eh]
	 Correlation Energy        =      -2.2604882843444161 [Eh]
	 Total Energy              =    -607.8381593825305345 [Eh]

	 ================> DF-SCS-MP2 Energies <==================
	-----------------------------------------------------------
	 SCS Same-Spin Scale       =       0.3333333333333333 [-]
	 SCS Opposite-Spin Scale   =       1.2000000000000000 [-]
	 SCS Same-Spin Energy      =      -0.1877681257068836 [Eh]
	 SCS Opposite-Spin Energy  =      -2.0366206886685183 [Eh]
	 SCS Correlation Energy    =      -2.2243888143754020 [Eh]
	 SCS Total Energy          =    -607.8020599125615036 [Eh]
	-----------------------------------------------------------

  Dipole Moment: [D]
     X:     2.6032      Y:     0.4326      Z:    -0.0625     Total:     2.6396

*** Psi4 exiting successfully. Buy a developer a beer!
