                               Psi4 1.4a3.dev225

  ==> Input File <==

--------------------------------------------------------------------------
#psi4
#
memory 32 gb

molecule  {
0 1
  F       -1.9734470     0.4735540    -0.9939180
  F       -1.9413570    -1.5269070    -0.1417860
  F       -1.9373460     0.2097040     1.1676710
  C        0.0587940    -0.2544720    -0.0183930
  C        0.8285834     1.0284794     0.0377761
  C        0.7507890    -1.4682550    -0.0178400
  C        2.1403840     0.9368280     0.0127460
  C       -1.4402130    -0.2782400     0.0012850
  C        0.0310770     2.3081630    -0.0188960
  C        2.1451100    -1.4771990    -0.0107000
  C        2.8415060    -0.2700650     0.0090350
  H        0.1981450    -2.4017980    -0.0309650
  H        2.6907970     1.8755160     0.0309210
  H       -0.3505540     2.5311140    -1.0192600
  H       -0.8159800     2.3277740     0.6689790
  H        0.7236060     3.1036700     0.2672330
  H        2.6805350    -2.4229320    -0.0122850
  H        3.9287950    -0.2645730     0.0170060
units angstrom
no_reorient  #important for SAPT in psi4, default
symmetry c1  #important for SAPT in psi4, default
}

set PROPERTIES_ORIGIN ["COM"]
properties('MP2/aug-cc-pvtz', properties = ['dipole'])
--------------------------------------------------------------------------

    Molecular point group: c1
  Charge       = 0
  Multiplicity = 1
  Basis Set: AUG-CC-PVTZ
    Blend: AUG-CC-PVTZ
  Basis Set: (AUG-CC-PVTZ AUX)
    Blend: AUG-CC-PVTZ-JKFIT

    Orbital Energies [Eh]
    ---------------------

    Doubly Occupied:

       1A    -26.335473     2A    -26.331256     3A    -26.330531
       4A    -11.509521     5A    -11.270478     6A    -11.267979
       7A    -11.260835     8A    -11.258329     9A    -11.249412
      10A    -11.238418    11A    -11.233369    12A     -1.716931
      13A     -1.626282    14A     -1.622640    15A     -1.179667
      16A     -1.067540    17A     -1.065417    18A     -0.974821
      19A     -0.937950    20A     -0.866139    21A     -0.827767
      22A     -0.811083    23A     -0.800577    24A     -0.778499
      25A     -0.704394    26A     -0.703704    27A     -0.689827
      28A     -0.664638    29A     -0.656264    30A     -0.648166
      31A     -0.643446    32A     -0.633457    33A     -0.597542
      34A     -0.584674    35A     -0.577270    36A     -0.551125
      37A     -0.521418    38A     -0.508834    39A     -0.488581
      40A     -0.366176    41A     -0.342892

  @DF-RHF Final Energy:  -605.56497369441581

   => Energetics <=

    Nuclear Repulsion Energy =            631.1169033919171625
    One-Electron Energy =               -2086.4771185876006712
    Two-Electron Energy =                 849.7952415012675829
    Total Energy =                       -605.5649736944158121
  Basis Set: (AUG-CC-PVTZ AUX)
    Blend: AUG-CC-PVTZ-RI
    Molecular point group: c1

    Geometry (in Angstrom), charge = 0, multiplicity = 1:

       Center              X                  Y                   Z               Mass
    ------------   -----------------  -----------------  -----------------  -----------------
         F           -1.887330541228     0.504414238772    -0.996845178651    18.998403162730
         F           -1.855240541228    -1.496046761228    -0.144713178651    18.998403162730
         F           -1.851229541228     0.240564238772     1.164743821349    18.998403162730
         C            0.144910458772    -0.223611761228    -0.021320178651    12.000000000000
         C            0.914699858772     1.059339638772     0.034848921349    12.000000000000
         C            0.836905458772    -1.437394761228    -0.020767178651    12.000000000000
         C            2.226500458772     0.967688238772     0.009818821349    12.000000000000
         C           -1.354096541228    -0.247379761228    -0.001642178651    12.000000000000
         C            0.117193458772     2.339023238772    -0.021823178651    12.000000000000
         C            2.231226458772    -1.446338761228    -0.013627178651    12.000000000000
         C            2.927622458772    -0.239204761228     0.006107821349    12.000000000000
         H            0.284261458772    -2.370937761228    -0.033892178651     1.007825032230
         H            2.776913458772     1.906376238772     0.027993821349     1.007825032230
         H           -0.264437541228     2.561974238772    -1.022187178651     1.007825032230
         H           -0.729863541228     2.358634238772     0.666051821349     1.007825032230
         H            0.809722458772     3.134530238772     0.264305821349     1.007825032230
         H            2.766651458772    -2.392071761228    -0.015212178651     1.007825032230
         H            4.014911458772    -0.233712761228     0.014078821349     1.007825032230

  Basis Set: AUG-CC-PVTZ
    Blend: AUG-CC-PVTZ
  Basis Set: (AUG-CC-PVTZ AUX)
    Blend: AUG-CC-PVTZ-JKFIT
	 Reference Energy          =    -605.5649736944158121 [Eh]
	 Singles Energy            =      -0.0000000000000000 [Eh]
	 Same-Spin Energy          =      -0.5628721226490336 [Eh]
	 Opposite-Spin Energy      =      -1.6977580099970817 [Eh]
	 Correlation Energy        =      -2.2606301326461153 [Eh]
	 Total Energy              =    -607.8256038270619683 [Eh]

	 ================> DF-SCS-MP2 Energies <==================
	-----------------------------------------------------------
	 SCS Same-Spin Scale       =       0.3333333333333333 [-]
	 SCS Opposite-Spin Scale   =       1.2000000000000000 [-]
	 SCS Same-Spin Energy      =      -0.1876240408830112 [Eh]
	 SCS Opposite-Spin Energy  =      -2.0373096119964980 [Eh]
	 SCS Correlation Energy    =      -2.2249336528795092 [Eh]
	 SCS Total Energy          =    -607.7899073472952978 [Eh]
	-----------------------------------------------------------

  Dipole Moment: [D]
     X:     2.5887      Y:     0.3844      Z:    -0.0699     Total:     2.6180

*** Psi4 exiting successfully. Buy a developer a beer!
