                               Psi4 1.4a3.dev225

  ==> Input File <==

--------------------------------------------------------------------------
#psi4
#
memory 32 gb

molecule  {
0 1
  F       -1.9734470     0.4735540    -0.9939180
  F       -1.9413570    -1.5269070    -0.1417860
  F       -1.9373460     0.2097040     1.1676710
  C        0.1463965    -0.2990968    -0.0188915
  C        0.7415540     0.9772520     0.0078750
  C        0.7507890    -1.4682550    -0.0178400
  C        2.1403840     0.9368280     0.0127460
  C       -1.4402130    -0.2782400     0.0012850
  C        0.0310770     2.3081630    -0.0188960
  C        2.1451100    -1.4771990    -0.0107000
  C        2.8415060    -0.2700650     0.0090350
  H        0.1981450    -2.4017980    -0.0309650
  H        2.6907970     1.8755160     0.0309210
  H       -0.3505540     2.5311140    -1.0192600
  H       -0.8159800     2.3277740     0.6689790
  H        0.7236060     3.1036700     0.2672330
  H        2.6805350    -2.4229320    -0.0122850
  H        3.9287950    -0.2645730     0.0170060
units angstrom
no_reorient  #important for SAPT in psi4, default
symmetry c1  #important for SAPT in psi4, default
}

set PROPERTIES_ORIGIN ["COM"]
properties('MP2/aug-cc-pvtz', properties = ['dipole'])
--------------------------------------------------------------------------

    Molecular point group: c1
  Charge       = 0
  Multiplicity = 1
  Basis Set: AUG-CC-PVTZ
    Blend: AUG-CC-PVTZ
  Basis Set: (AUG-CC-PVTZ AUX)
    Blend: AUG-CC-PVTZ-JKFIT

    Orbital Energies [Eh]
    ---------------------

    Doubly Occupied:

       1A    -26.332838     2A    -26.332706     3A    -26.331511
       4A    -11.508236     5A    -11.267830     6A    -11.264997
       7A    -11.253137     8A    -11.249141     9A    -11.247939
      10A    -11.247536    11A    -11.236582    12A     -1.715396
      13A     -1.624767    14A     -1.622548    15A     -1.187676
      16A     -1.065882    17A     -1.059558    18A     -0.969681
      19A     -0.939707    20A     -0.853911    21A     -0.838922
      22A     -0.809048    23A     -0.803617    24A     -0.777046
      25A     -0.703073    26A     -0.702469    27A     -0.689160
      28A     -0.665870    29A     -0.656236    30A     -0.652729
      31A     -0.643269    32A     -0.632197    33A     -0.590332
      34A     -0.586242    35A     -0.574137    36A     -0.555175
      37A     -0.516437    38A     -0.516112    39A     -0.491262
      40A     -0.367834    41A     -0.341475

  @DF-RHF Final Energy:  -605.56714252552433

   => Energetics <=

    Nuclear Repulsion Energy =            631.7239543729382376
    One-Electron Energy =               -2087.7337523332525961
    Two-Electron Energy =                 850.4426554347899128
    Total Energy =                       -605.5671425255243321
  Basis Set: (AUG-CC-PVTZ AUX)
    Blend: AUG-CC-PVTZ-RI
    Molecular point group: c1

    Geometry (in Angstrom), charge = 0, multiplicity = 1:

       Center              X                  Y                   Z               Mass
    ------------   -----------------  -----------------  -----------------  -----------------
         F           -1.887373510304     0.511600908624    -0.994565920701    18.998403162730
         F           -1.855283510304    -1.488860091376    -0.142433920701    18.998403162730
         F           -1.851272510304     0.247750908624     1.167023079299    18.998403162730
         C            0.232469989696    -0.261049891376    -0.019539420701    12.000000000000
         C            0.827627489696     1.015298908624     0.007227079299    12.000000000000
         C            0.836862489696    -1.430208091376    -0.018487920701    12.000000000000
         C            2.226457489696     0.974874908624     0.012098079299    12.000000000000
         C           -1.354139510304    -0.240193091376     0.000637079299    12.000000000000
         C            0.117150489696     2.346209908624    -0.019543920701    12.000000000000
         C            2.231183489696    -1.439152091376    -0.011347920701    12.000000000000
         C            2.927579489696    -0.232018091376     0.008387079299    12.000000000000
         H            0.284218489696    -2.363751091376    -0.031612920701     1.007825032230
         H            2.776870489696     1.913562908624     0.030273079299     1.007825032230
         H           -0.264480510304     2.569160908624    -1.019907920701     1.007825032230
         H           -0.729906510304     2.365820908624     0.668331079299     1.007825032230
         H            0.809679489696     3.141716908624     0.266585079299     1.007825032230
         H            2.766608489696    -2.384885091376    -0.012932920701     1.007825032230
         H            4.014868489696    -0.226526091376     0.016358079299     1.007825032230

  Basis Set: AUG-CC-PVTZ
    Blend: AUG-CC-PVTZ
  Basis Set: (AUG-CC-PVTZ AUX)
    Blend: AUG-CC-PVTZ-JKFIT
	 Reference Energy          =    -605.5671425255243321 [Eh]
	 Singles Energy            =      -0.0000000000000000 [Eh]
	 Same-Spin Energy          =      -0.5630044436029927 [Eh]
	 Opposite-Spin Energy      =      -1.6969522007184143 [Eh]
	 Correlation Energy        =      -2.2599566443214072 [Eh]
	 Total Energy              =    -607.8270991698457237 [Eh]

	 ================> DF-SCS-MP2 Energies <==================
	-----------------------------------------------------------
	 SCS Same-Spin Scale       =       0.3333333333333333 [-]
	 SCS Opposite-Spin Scale   =       1.2000000000000000 [-]
	 SCS Same-Spin Energy      =      -0.1876681478676642 [Eh]
	 SCS Opposite-Spin Energy  =      -2.0363426408620970 [Eh]
	 SCS Correlation Energy    =      -2.2240107887297613 [Eh]
	 SCS Total Energy          =    -607.7911533142540748 [Eh]
	-----------------------------------------------------------

  Dipole Moment: [D]
     X:     2.5038      Y:     0.4611      Z:    -0.0652     Total:     2.5467

*** Psi4 exiting successfully. Buy a developer a beer!
