                               Psi4 1.4a3.dev225

  ==> Input File <==

--------------------------------------------------------------------------
#psi4
#
memory 32 gb

molecule  {
0 1
  F       -1.9734470     0.4735540    -0.9939180
  F       -1.9413570    -1.5269070    -0.1417860
  F       -1.9373460     0.2097040     1.1676710
  C        0.0587940    -0.2544720    -0.0183930
  C        0.7415540     0.9772520     0.0078750
  C        0.7507890    -1.4682550    -0.0178400
  C        2.1403840     0.9368280     0.0127460
  C       -1.4402130    -0.2782400     0.0012850
  C        0.0310770     2.3081630    -0.0188960
  C        2.1451100    -1.4771990    -0.0107000
  C        2.8415060    -0.2700650     0.0090350
  H        0.1981450    -2.4017980    -0.0309650
  H        2.6907970     1.8755160     0.0309210
  H       -0.3505540     2.5311140    -1.0192600
  H       -0.8159800     2.3277740     0.6689790
  H        0.7109321     3.0891115     0.2619966
  H        2.6805350    -2.4229320    -0.0122850
  H        3.9287950    -0.2645730     0.0170060
units angstrom
no_reorient  #important for SAPT in psi4, default
symmetry c1  #important for SAPT in psi4, default
}

set PROPERTIES_ORIGIN ["COM"]
properties('MP2/aug-cc-pvtz', properties = ['dipole'])
--------------------------------------------------------------------------

    Molecular point group: c1
  Charge       = 0
  Multiplicity = 1
  Basis Set: AUG-CC-PVTZ
    Blend: AUG-CC-PVTZ
  Basis Set: (AUG-CC-PVTZ AUX)
    Blend: AUG-CC-PVTZ-JKFIT

    Orbital Energies [Eh]
    ---------------------

    Doubly Occupied:

       1A    -26.335332     2A    -26.331694     3A    -26.330875
       4A    -11.508518     5A    -11.270192     6A    -11.264659
       7A    -11.259648     8A    -11.256615     9A    -11.248741
      10A    -11.248222    11A    -11.231553    12A     -1.717211
      13A     -1.626466    14A     -1.623023    15A     -1.180508
      16A     -1.071986    17A     -1.057331    18A     -0.973966
      19A     -0.937944    20A     -0.861871    21A     -0.837381
      22A     -0.811361    23A     -0.803624    24A     -0.774033
      25A     -0.704491    26A     -0.704101    27A     -0.689181
      28A     -0.666137    29A     -0.656648    30A     -0.648953
      31A     -0.643734    32A     -0.634603    33A     -0.589728
      34A     -0.584876    35A     -0.580680    36A     -0.556900
      37A     -0.509695    38A     -0.508708    39A     -0.506483
      40A     -0.360402    41A     -0.344209

  @DF-RHF Final Energy:  -605.57759882270500

   => Energetics <=

    Nuclear Repulsion Energy =            632.1523940413228502
    One-Electron Energy =               -2088.5554176817713596
    Two-Electron Energy =                 850.8254248177435102
    Total Energy =                       -605.5775988227049993
  Basis Set: (AUG-CC-PVTZ AUX)
    Blend: AUG-CC-PVTZ-RI
    Molecular point group: c1

    Geometry (in Angstrom), charge = 0, multiplicity = 1:

       Center              X                  Y                   Z               Mass
    ------------   -----------------  -----------------  -----------------  -----------------
         F           -1.880725567940     0.508346767862    -0.994570323232    18.998403162730
         F           -1.848635567940    -1.492114232138    -0.142438323232    18.998403162730
         F           -1.844624567940     0.244496767862     1.167018676768    18.998403162730
         C            0.151515432060    -0.219679232138    -0.019045323232    12.000000000000
         C            0.834275432060     1.012044767862     0.007222676768    12.000000000000
         C            0.843510432060    -1.433462232138    -0.018492323232    12.000000000000
         C            2.233105432060     0.971620767862     0.012093676768    12.000000000000
         C           -1.347491567940    -0.243447232138     0.000632676768    12.000000000000
         C            0.123798432060     2.342955767862    -0.019548323232    12.000000000000
         C            2.237831432060    -1.442406232138    -0.011352323232    12.000000000000
         C            2.934227432060    -0.235272232138     0.008382676768    12.000000000000
         H            0.290866432060    -2.367005232138    -0.031617323232     1.007825032230
         H            2.783518432060     1.910308767862     0.030268676768     1.007825032230
         H           -0.257832567940     2.565906767862    -1.019912323232     1.007825032230
         H           -0.723258567940     2.362566767862     0.668326676768     1.007825032230
         H            0.803653532060     3.123904267862     0.261344276768     1.007825032230
         H            2.773256432060    -2.388139232138    -0.012937323232     1.007825032230
         H            4.021516432060    -0.229780232138     0.016353676768     1.007825032230

  Basis Set: AUG-CC-PVTZ
    Blend: AUG-CC-PVTZ
  Basis Set: (AUG-CC-PVTZ AUX)
    Blend: AUG-CC-PVTZ-JKFIT
	 Reference Energy          =    -605.5775988227049993 [Eh]
	 Singles Energy            =      -0.0000000000000000 [Eh]
	 Same-Spin Energy          =      -0.5633299769490573 [Eh]
	 Opposite-Spin Energy      =      -1.6971805028708946 [Eh]
	 Correlation Energy        =      -2.2605104798199518 [Eh]
	 Total Energy              =    -607.8381093025249129 [Eh]

	 ================> DF-SCS-MP2 Energies <==================
	-----------------------------------------------------------
	 SCS Same-Spin Scale       =       0.3333333333333333 [-]
	 SCS Opposite-Spin Scale   =       1.2000000000000000 [-]
	 SCS Same-Spin Energy      =      -0.1877766589830191 [Eh]
	 SCS Opposite-Spin Energy  =      -2.0366166034450734 [Eh]
	 SCS Correlation Energy    =      -2.2243932624280927 [Eh]
	 SCS Total Energy          =    -607.8019920851330653 [Eh]
	-----------------------------------------------------------

  Dipole Moment: [D]
     X:     2.5999      Y:     0.4438      Z:    -0.0607     Total:     2.6382

*** Psi4 exiting successfully. Buy a developer a beer!
