                               Psi4 1.4a3.dev225

  ==> Input File <==

--------------------------------------------------------------------------
#psi4
#
memory 32 gb

molecule  {
0 1
  F       -1.9734470     0.4735540    -0.9939180
  F       -1.9413570    -1.5269070    -0.1417860
  F       -1.9373460     0.2097040     1.1676710
  C        0.0587940    -0.2544720    -0.0183930
  C        0.7415540     0.9772520     0.0078750
  C        0.7507890    -1.4682550    -0.0178400
  C        2.1403840     0.9368280     0.0127460
  C       -1.4402130    -0.2782400     0.0012850
  C        0.0310770     2.3081630    -0.0188960
  C        2.1451100    -1.4771990    -0.0107000
  C        2.8917379    -0.3565328     0.0087691
  H        0.1981450    -2.4017980    -0.0309650
  H        2.6907970     1.8755160     0.0309210
  H       -0.3505540     2.5311140    -1.0192600
  H       -0.8159800     2.3277740     0.6689790
  H        0.7236060     3.1036700     0.2672330
  H        2.6805350    -2.4229320    -0.0122850
  H        3.9287950    -0.2645730     0.0170060
units angstrom
no_reorient  #important for SAPT in psi4, default
symmetry c1  #important for SAPT in psi4, default
}

set PROPERTIES_ORIGIN ["COM"]
properties('MP2/aug-cc-pvtz', properties = ['dipole'])
--------------------------------------------------------------------------

    Molecular point group: c1
  Charge       = 0
  Multiplicity = 1
  Basis Set: AUG-CC-PVTZ
    Blend: AUG-CC-PVTZ
  Basis Set: (AUG-CC-PVTZ AUX)
    Blend: AUG-CC-PVTZ-JKFIT

    Orbital Energies [Eh]
    ---------------------

    Doubly Occupied:

       1A    -26.335682     2A    -26.332411     3A    -26.331587
       4A    -11.509261     5A    -11.268294     6A    -11.266859
       7A    -11.261871     8A    -11.257859     9A    -11.256409
      10A    -11.245331    11A    -11.233034    12A     -1.717766
      13A     -1.626921    14A     -1.623673    15A     -1.177594
      16A     -1.076261    17A     -1.051680    18A     -0.968267
      19A     -0.939509    20A     -0.867371    21A     -0.834331
      22A     -0.811917    23A     -0.803332    24A     -0.774846
      25A     -0.704983    26A     -0.704421    27A     -0.694769
      28A     -0.666055    29A     -0.657178    30A     -0.649508
      31A     -0.644291    32A     -0.632284    33A     -0.590769
      34A     -0.583656    35A     -0.580949    36A     -0.556657
      37A     -0.518131    38A     -0.506949    39A     -0.491674
      40A     -0.359718    41A     -0.343016

  @DF-RHF Final Energy:  -605.56580788518897

   => Energetics <=

    Nuclear Repulsion Energy =            630.9508716176796952
    One-Electron Energy =               -2086.1192081721983413
    Two-Electron Energy =                 849.6025286693296721
    Total Energy =                       -605.5658078851889741
  Basis Set: (AUG-CC-PVTZ AUX)
    Blend: AUG-CC-PVTZ-RI
    Molecular point group: c1

    Geometry (in Angstrom), charge = 0, multiplicity = 1:

       Center              X                  Y                   Z               Mass
    ------------   -----------------  -----------------  -----------------  -----------------
         F           -1.884571590636     0.514738153535    -0.994583360253    18.998403162730
         F           -1.852481590636    -1.485722846465    -0.142451360253    18.998403162730
         F           -1.848470590636     0.250888153535     1.167005639747    18.998403162730
         C            0.147669409364    -0.213287846465    -0.019058360253    12.000000000000
         C            0.830429409364     1.018436153535     0.007209639747    12.000000000000
         C            0.839664409364    -1.427070846465    -0.018505360253    12.000000000000
         C            2.229259409364     0.978012153535     0.012080639747    12.000000000000
         C           -1.351337590636    -0.237055846465     0.000619639747    12.000000000000
         C            0.119952409364     2.349347153535    -0.019561360253    12.000000000000
         C            2.233985409364    -1.436014846465    -0.011365360253    12.000000000000
         C            2.980613309364    -0.315348646465     0.008103739747    12.000000000000
         H            0.287020409364    -2.360613846465    -0.031630360253     1.007825032230
         H            2.779672409364     1.916700153535     0.030255639747     1.007825032230
         H           -0.261678590636     2.572298153535    -1.019925360253     1.007825032230
         H           -0.727104590636     2.368958153535     0.668313639747     1.007825032230
         H            0.812481409364     3.144854153535     0.266567639747     1.007825032230
         H            2.769410409364    -2.381747846465    -0.012950360253     1.007825032230
         H            4.017670409364    -0.223388846465     0.016340639747     1.007825032230

  Basis Set: AUG-CC-PVTZ
    Blend: AUG-CC-PVTZ
  Basis Set: (AUG-CC-PVTZ AUX)
    Blend: AUG-CC-PVTZ-JKFIT
	 Reference Energy          =    -605.5658078851889741 [Eh]
	 Singles Energy            =      -0.0000000000000000 [Eh]
	 Same-Spin Energy          =      -0.5630896957677052 [Eh]
	 Opposite-Spin Energy      =      -1.6981614760169785 [Eh]
	 Correlation Energy        =      -2.2612511717846839 [Eh]
	 Total Energy              =    -607.8270590569736669 [Eh]

	 ================> DF-SCS-MP2 Energies <==================
	-----------------------------------------------------------
	 SCS Same-Spin Scale       =       0.3333333333333333 [-]
	 SCS Opposite-Spin Scale   =       1.2000000000000000 [-]
	 SCS Same-Spin Energy      =      -0.1876965652559017 [Eh]
	 SCS Opposite-Spin Energy  =      -2.0377937712203740 [Eh]
	 SCS Correlation Energy    =      -2.2254903364762755 [Eh]
	 SCS Total Energy          =    -607.7912982216652154 [Eh]
	-----------------------------------------------------------

  Dipole Moment: [D]
     X:     2.6094      Y:     0.4383      Z:    -0.0621     Total:     2.6467

*** Psi4 exiting successfully. Buy a developer a beer!
