                               Psi4 1.4a3.dev225

  ==> Input File <==

--------------------------------------------------------------------------
#psi4
#
memory 32 gb

molecule  {
0 1
  F       -1.9734470     0.4735540    -0.9939180
  F       -1.9413570    -1.5269070    -0.1417860
  F       -1.9373460     0.2097040     1.1676710
  C        0.0587940    -0.2544720    -0.0183930
  C        0.7415540     0.9772520     0.0078750
  C        0.7755529    -1.5116917    -0.0178202
  C        2.1403840     0.9368280     0.0127460
  C       -1.4402130    -0.2782400     0.0012850
  C        0.0310770     2.3081630    -0.0188960
  C        2.1451100    -1.4771990    -0.0107000
  C        2.8415060    -0.2700650     0.0090350
  H        0.1981450    -2.4017980    -0.0309650
  H        2.6907970     1.8755160     0.0309210
  H       -0.3505540     2.5311140    -1.0192600
  H       -0.8159800     2.3277740     0.6689790
  H        0.7236060     3.1036700     0.2672330
  H        2.6805350    -2.4229320    -0.0122850
  H        3.9287950    -0.2645730     0.0170060
units angstrom
no_reorient  #important for SAPT in psi4, default
symmetry c1  #important for SAPT in psi4, default
}

set PROPERTIES_ORIGIN ["COM"]
properties('MP2/aug-cc-pvtz', properties = ['dipole'])
--------------------------------------------------------------------------

    Molecular point group: c1
  Charge       = 0
  Multiplicity = 1
  Basis Set: AUG-CC-PVTZ
    Blend: AUG-CC-PVTZ
  Basis Set: (AUG-CC-PVTZ AUX)
    Blend: AUG-CC-PVTZ-JKFIT

    Orbital Energies [Eh]
    ---------------------

    Doubly Occupied:

       1A    -26.335400     2A    -26.331368     3A    -26.330485
       4A    -11.508363     5A    -11.270859     6A    -11.268084
       7A    -11.260260     8A    -11.257419     9A    -11.249228
      10A    -11.246789    11A    -11.234163    12A     -1.716987
      13A     -1.626380    14A     -1.622677    15A     -1.177517
      16A     -1.073014    17A     -1.055118    18A     -0.975484
      19A     -0.935298    20A     -0.863962    21A     -0.835889
      22A     -0.811047    23A     -0.804293    24A     -0.770671
      25A     -0.704384    26A     -0.704048    27A     -0.691696
      28A     -0.666207    29A     -0.656394    30A     -0.645630
      31A     -0.643490    32A     -0.637593    33A     -0.593587
      34A     -0.584625    35A     -0.578348    36A     -0.554406
      37A     -0.513896    38A     -0.507263    39A     -0.501563
      40A     -0.354510    41A     -0.348836

  @DF-RHF Final Energy:  -605.57415657308354

   => Energetics <=

    Nuclear Repulsion Energy =            631.2040365165461253
    One-Electron Energy =               -2086.6619201739322307
    Two-Electron Energy =                 849.8837270843024498
    Total Energy =                       -605.5741565730835418
  Basis Set: (AUG-CC-PVTZ AUX)
    Blend: AUG-CC-PVTZ-RI
    Molecular point group: c1

    Geometry (in Angstrom), charge = 0, multiplicity = 1:

       Center              X                  Y                   Z               Mass
    ------------   -----------------  -----------------  -----------------  -----------------
         F           -1.882662087174     0.511511828953    -0.994604781061    18.998403162730
         F           -1.850572087174    -1.488949171047    -0.142472781061    18.998403162730
         F           -1.846561087174     0.247661828953     1.166984218939    18.998403162730
         C            0.149578912826    -0.216514171047    -0.019079781061    12.000000000000
         C            0.832338912826     1.015209828953     0.007188218939    12.000000000000
         C            0.866337812826    -1.473733871047    -0.018506981061    12.000000000000
         C            2.231168912826     0.974785828953     0.012059218939    12.000000000000
         C           -1.349428087174    -0.240282171047     0.000598218939    12.000000000000
         C            0.121861912826     2.346120828953    -0.019582781061    12.000000000000
         C            2.235894912826    -1.439241171047    -0.011386781061    12.000000000000
         C            2.932290912826    -0.232107171047     0.008348218939    12.000000000000
         H            0.288929912826    -2.363840171047    -0.031651781061     1.007825032230
         H            2.781581912826     1.913473828953     0.030234218939     1.007825032230
         H           -0.259769087174     2.569071828953    -1.019946781061     1.007825032230
         H           -0.725195087174     2.365731828953     0.668292218939     1.007825032230
         H            0.814390912826     3.141627828953     0.266546218939     1.007825032230
         H            2.771319912826    -2.384974171047    -0.012971781061     1.007825032230
         H            4.019579912826    -0.226615171047     0.016319218939     1.007825032230

  Basis Set: AUG-CC-PVTZ
    Blend: AUG-CC-PVTZ
  Basis Set: (AUG-CC-PVTZ AUX)
    Blend: AUG-CC-PVTZ-JKFIT
	 Reference Energy          =    -605.5741565730835418 [Eh]
	 Singles Energy            =      -0.0000000000000000 [Eh]
	 Same-Spin Energy          =      -0.5633678268155273 [Eh]
	 Opposite-Spin Energy      =      -1.6975964628709856 [Eh]
	 Correlation Energy        =      -2.2609642896865130 [Eh]
	 Total Energy              =    -607.8351208627700544 [Eh]

	 ================> DF-SCS-MP2 Energies <==================
	-----------------------------------------------------------
	 SCS Same-Spin Scale       =       0.3333333333333333 [-]
	 SCS Opposite-Spin Scale   =       1.2000000000000000 [-]
	 SCS Same-Spin Energy      =      -0.1877892756051758 [Eh]
	 SCS Opposite-Spin Energy  =      -2.0371157554451829 [Eh]
	 SCS Correlation Energy    =      -2.2249050310503584 [Eh]
	 SCS Total Energy          =    -607.7990616041339536 [Eh]
	-----------------------------------------------------------

  Dipole Moment: [D]
     X:     2.5991      Y:     0.4484      Z:    -0.0623     Total:     2.6382

*** Psi4 exiting successfully. Buy a developer a beer!
