                               Psi4 1.4a3.dev225

  ==> Input File <==

--------------------------------------------------------------------------
#psi4
#
memory 32 gb

molecule  {
0 1
  F       -1.9734470     0.4735540    -0.9939180
  F       -1.9413570    -1.5269070    -0.1417860
  F       -1.9373460     0.2097040     1.1676710
  C        0.0373968    -0.2423690    -0.0182483
  C        0.7415540     0.9772520     0.0078750
  C        0.7507890    -1.4682550    -0.0178400
  C        2.1403840     0.9368280     0.0127460
  C       -1.4402130    -0.2782400     0.0012850
  C        0.0310770     2.3081630    -0.0188960
  C        2.1451100    -1.4771990    -0.0107000
  C        2.8415060    -0.2700650     0.0090350
  H        0.1981450    -2.4017980    -0.0309650
  H        2.6907970     1.8755160     0.0309210
  H       -0.3505540     2.5311140    -1.0192600
  H       -0.8159800     2.3277740     0.6689790
  H        0.7236060     3.1036700     0.2672330
  H        2.6805350    -2.4229320    -0.0122850
  H        3.9287950    -0.2645730     0.0170060
units angstrom
no_reorient  #important for SAPT in psi4, default
symmetry c1  #important for SAPT in psi4, default
}

set PROPERTIES_ORIGIN ["COM"]
properties('MP2/aug-cc-pvtz', properties = ['dipole'])
--------------------------------------------------------------------------

    Molecular point group: c1
  Charge       = 0
  Multiplicity = 1
  Basis Set: AUG-CC-PVTZ
    Blend: AUG-CC-PVTZ
  Basis Set: (AUG-CC-PVTZ AUX)
    Blend: AUG-CC-PVTZ-JKFIT

    Orbital Energies [Eh]
    ---------------------

    Doubly Occupied:

       1A    -26.335923     2A    -26.331319     3A    -26.330577
       4A    -11.508147     5A    -11.271220     6A    -11.264782
       7A    -11.262423     8A    -11.257626     9A    -11.249018
      10A    -11.248520    11A    -11.233348    12A     -1.717612
      13A     -1.626836    14A     -1.623053    15A     -1.179324
      16A     -1.074507    17A     -1.056333    18A     -0.974386
      19A     -0.936322    20A     -0.863825    21A     -0.836786
      22A     -0.811907    23A     -0.803679    24A     -0.773105
      25A     -0.704940    26A     -0.704353    27A     -0.689301
      28A     -0.665892    29A     -0.656683    30A     -0.648053
      31A     -0.643752    32A     -0.635019    33A     -0.589847
      34A     -0.584769    35A     -0.581958    36A     -0.553475
      37A     -0.511609    38A     -0.507183    39A     -0.505002
      40A     -0.358876    41A     -0.344969

  @DF-RHF Final Energy:  -605.57616173202746

   => Energetics <=

    Nuclear Repulsion Energy =            632.1601257246777550
    One-Electron Energy =               -2088.5600538644530388
    Two-Electron Energy =                 850.8237664077478257
    Total Energy =                       -605.5761617320274581
  Basis Set: (AUG-CC-PVTZ AUX)
    Blend: AUG-CC-PVTZ-RI
    Molecular point group: c1

    Geometry (in Angstrom), charge = 0, multiplicity = 1:

       Center              X                  Y                   Z               Mass
    ------------   -----------------  -----------------  -----------------  -----------------
         F           -1.879201085906     0.507347652360    -0.994614145635    18.998403162730
         F           -1.847111085906    -1.493113347640    -0.142482145635    18.998403162730
         F           -1.843100085906     0.243497652360     1.166974854365    18.998403162730
         C            0.131642714094    -0.208575347640    -0.018944445635    12.000000000000
         C            0.835799914094     1.011045652360     0.007178854365    12.000000000000
         C            0.845034914094    -1.434461347640    -0.018536145635    12.000000000000
         C            2.234629914094     0.970621652360     0.012049854365    12.000000000000
         C           -1.345967085906    -0.244446347640     0.000588854365    12.000000000000
         C            0.125322914094     2.341956652360    -0.019592145635    12.000000000000
         C            2.239355914094    -1.443405347640    -0.011396145635    12.000000000000
         C            2.935751914094    -0.236271347640     0.008338854365    12.000000000000
         H            0.292390914094    -2.368004347640    -0.031661145635     1.007825032230
         H            2.785042914094     1.909309652360     0.030224854365     1.007825032230
         H           -0.256308085906     2.564907652360    -1.019956145635     1.007825032230
         H           -0.721734085906     2.361567652360     0.668282854365     1.007825032230
         H            0.817851914094     3.137463652360     0.266536854365     1.007825032230
         H            2.774780914094    -2.389138347640    -0.012981145635     1.007825032230
         H            4.023040914094    -0.230779347640     0.016309854365     1.007825032230

  Basis Set: AUG-CC-PVTZ
    Blend: AUG-CC-PVTZ
  Basis Set: (AUG-CC-PVTZ AUX)
    Blend: AUG-CC-PVTZ-JKFIT
	 Reference Energy          =    -605.5761617320274581 [Eh]
	 Singles Energy            =      -0.0000000000000000 [Eh]
	 Same-Spin Energy          =      -0.5635244499844937 [Eh]
	 Opposite-Spin Energy      =      -1.6976614673059469 [Eh]
	 Correlation Energy        =      -2.2611859172904407 [Eh]
	 Total Energy              =    -607.8373476493178487 [Eh]

	 ================> DF-SCS-MP2 Energies <==================
	-----------------------------------------------------------
	 SCS Same-Spin Scale       =       0.3333333333333333 [-]
	 SCS Opposite-Spin Scale   =       1.2000000000000000 [-]
	 SCS Same-Spin Energy      =      -0.1878414833281646 [Eh]
	 SCS Opposite-Spin Energy  =      -2.0371937607671362 [Eh]
	 SCS Correlation Energy    =      -2.2250352440953010 [Eh]
	 SCS Total Energy          =    -607.8011969761228102 [Eh]
	-----------------------------------------------------------

  Dipole Moment: [D]
     X:     2.6285      Y:     0.4251      Z:    -0.0621     Total:     2.6633

*** Psi4 exiting successfully. Buy a developer a beer!
