                               Psi4 1.4a3.dev225

  ==> Input File <==

--------------------------------------------------------------------------
#psi4
#
memory 32 gb

molecule  {
0 1
  F       -1.9248594     0.4205346    -1.0554996
  F       -1.9413570    -1.5269070    -0.1417860
  F       -1.9373460     0.2097040     1.1676710
  C        0.0587940    -0.2544720    -0.0183930
  C        0.7415540     0.9772520     0.0078750
  C        0.7507890    -1.4682550    -0.0178400
  C        2.1403840     0.9368280     0.0127460
  C       -1.4402130    -0.2782400     0.0012850
  C        0.0310770     2.3081630    -0.0188960
  C        2.1451100    -1.4771990    -0.0107000
  C        2.8415060    -0.2700650     0.0090350
  H        0.1981450    -2.4017980    -0.0309650
  H        2.6907970     1.8755160     0.0309210
  H       -0.3505540     2.5311140    -1.0192600
  H       -0.8159800     2.3277740     0.6689790
  H        0.7236060     3.1036700     0.2672330
  H        2.6805350    -2.4229320    -0.0122850
  H        3.9287950    -0.2645730     0.0170060
units angstrom
no_reorient  #important for SAPT in psi4, default
symmetry c1  #important for SAPT in psi4, default
}

set PROPERTIES_ORIGIN ["COM"]
properties('MP2/aug-cc-pvtz', properties = ['dipole'])
--------------------------------------------------------------------------

    Molecular point group: c1
  Charge       = 0
  Multiplicity = 1
  Basis Set: AUG-CC-PVTZ
    Blend: AUG-CC-PVTZ
  Basis Set: (AUG-CC-PVTZ AUX)
    Blend: AUG-CC-PVTZ-JKFIT

    Orbital Energies [Eh]
    ---------------------

    Doubly Occupied:

       1A    -26.336803     2A    -26.333659     3A    -26.333212
       4A    -11.509346     5A    -11.269314     6A    -11.263616
       7A    -11.258421     8A    -11.255474     9A    -11.248093
      10A    -11.247663    11A    -11.234219    12A     -1.717687
      13A     -1.629632    14A     -1.624109    15A     -1.179710
      16A     -1.071431    17A     -1.056441    18A     -0.973554
      19A     -0.937235    20A     -0.861617    21A     -0.835874
      22A     -0.816255    23A     -0.802198    24A     -0.773731
      25A     -0.709172    26A     -0.702453    27A     -0.688241
      28A     -0.665207    29A     -0.662079    30A     -0.647929
      31A     -0.645983    32A     -0.634008    33A     -0.588824
      34A     -0.585022    35A     -0.579403    36A     -0.553775
      37A     -0.508682    38A     -0.508084    39A     -0.505574
      40A     -0.359163    41A     -0.343537

  @DF-RHF Final Energy:  -605.57593397330777

   => Energetics <=

    Nuclear Repulsion Energy =            632.1703430251850477
    One-Electron Energy =               -2088.5796975163757452
    Two-Electron Energy =                 850.8334205178829279
    Total Energy =                       -605.5759339733077695
  Basis Set: (AUG-CC-PVTZ AUX)
    Blend: AUG-CC-PVTZ-RI
    Molecular point group: c1

    Geometry (in Angstrom), charge = 0, multiplicity = 1:

       Center              X                  Y                   Z               Mass
    ------------   -----------------  -----------------  -----------------  -----------------
         F           -1.837985265513     0.461529252340    -1.048874979774    18.998403162730
         F           -1.854482865513    -1.485912347660    -0.135161379774    18.998403162730
         F           -1.850471865513     0.250698652340     1.174295620226    18.998403162730
         C            0.145668134487    -0.213477347660    -0.011768379774    12.000000000000
         C            0.828428134487     1.018246652340     0.014499620226    12.000000000000
         C            0.837663134487    -1.427260347660    -0.011215379774    12.000000000000
         C            2.227258134487     0.977822652340     0.019370620226    12.000000000000
         C           -1.353338865513    -0.237245347660     0.007909620226    12.000000000000
         C            0.117951134487     2.349157652340    -0.012271379774    12.000000000000
         C            2.231984134487    -1.436204347660    -0.004075379774    12.000000000000
         C            2.928380134487    -0.229070347660     0.015659620226    12.000000000000
         H            0.285019134487    -2.360803347660    -0.024340379774     1.007825032230
         H            2.777671134487     1.916510652340     0.037545620226     1.007825032230
         H           -0.263679865513     2.572108652340    -1.012635379774     1.007825032230
         H           -0.729105865513     2.368768652340     0.675603620226     1.007825032230
         H            0.810480134487     3.144664652340     0.273857620226     1.007825032230
         H            2.767409134487    -2.381937347660    -0.005660379774     1.007825032230
         H            4.015669134487    -0.223578347660     0.023630620226     1.007825032230

  Basis Set: AUG-CC-PVTZ
    Blend: AUG-CC-PVTZ
  Basis Set: (AUG-CC-PVTZ AUX)
    Blend: AUG-CC-PVTZ-JKFIT
	 Reference Energy          =    -605.5759339733077695 [Eh]
	 Singles Energy            =      -0.0000000000000000 [Eh]
	 Same-Spin Energy          =      -0.5634461903681136 [Eh]
	 Opposite-Spin Energy      =      -1.6976369645671960 [Eh]
	 Correlation Energy        =      -2.2610831549353096 [Eh]
	 Total Energy              =    -607.8370171282431329 [Eh]

	 ================> DF-SCS-MP2 Energies <==================
	-----------------------------------------------------------
	 SCS Same-Spin Scale       =       0.3333333333333333 [-]
	 SCS Opposite-Spin Scale   =       1.2000000000000000 [-]
	 SCS Same-Spin Energy      =      -0.1878153967893712 [Eh]
	 SCS Opposite-Spin Energy  =      -2.0371643574806351 [Eh]
	 SCS Correlation Energy    =      -2.2249797542700063 [Eh]
	 SCS Total Energy          =    -607.8009137275777221 [Eh]
	-----------------------------------------------------------

  Dipole Moment: [D]
     X:     2.4735      Y:     0.5035      Z:     0.0051     Total:     2.5242

*** Psi4 exiting successfully. Buy a developer a beer!
