                               Psi4 1.4a3.dev225

  ==> Input File <==

--------------------------------------------------------------------------
#psi4
#
memory 32 gb

molecule  {
0 1
  F       -1.9734470     0.4735540    -0.9939180
  F       -1.9413570    -1.5269070    -0.1417860
  F       -1.9373460     0.2097040     1.1676710
  C        0.0587940    -0.2544720    -0.0183930
  C        0.7415540     0.9772520     0.0078750
  C        0.7507890    -1.4682550    -0.0178400
  C        2.1403840     0.9368280     0.0127460
  C       -1.4402130    -0.2782400     0.0012850
  C        0.0310770     2.3081630    -0.0188960
  C        2.1451100    -1.4771990    -0.0107000
  C        2.8415060    -0.2700650     0.0090350
  H        0.1981450    -2.4017980    -0.0309650
  H        2.6907970     1.8755160     0.0309210
  H       -0.3505540     2.5311140    -1.0192600
  H       -0.8159800     2.3277740     0.6689790
  H        0.7236060     3.1036700     0.2672330
  H        2.6805350    -2.4229320    -0.0122850
  H        3.8787970    -0.2648255     0.0166395
units angstrom
no_reorient  #important for SAPT in psi4, default
symmetry c1  #important for SAPT in psi4, default
}

set PROPERTIES_ORIGIN ["COM"]
properties('MP2/aug-cc-pvtz', properties = ['dipole'])
--------------------------------------------------------------------------

    Molecular point group: c1
  Charge       = 0
  Multiplicity = 1
  Basis Set: AUG-CC-PVTZ
    Blend: AUG-CC-PVTZ
  Basis Set: (AUG-CC-PVTZ AUX)
    Blend: AUG-CC-PVTZ-JKFIT

    Orbital Energies [Eh]
    ---------------------

    Doubly Occupied:

       1A    -26.335310     2A    -26.331729     3A    -26.330885
       4A    -11.508515     5A    -11.270053     6A    -11.264656
       7A    -11.259413     8A    -11.250947     9A    -11.248340
      10A    -11.247749    11A    -11.233802    12A     -1.717218
      13A     -1.626463    14A     -1.623042    15A     -1.180512
      16A     -1.072945    17A     -1.056912    18A     -0.974120
      19A     -0.937435    20A     -0.863946    21A     -0.837233
      22A     -0.811367    23A     -0.803568    24A     -0.775179
      25A     -0.704517    26A     -0.704242    27A     -0.694275
      28A     -0.665776    29A     -0.656653    30A     -0.648656
      31A     -0.643739    32A     -0.635958    33A     -0.591641
      34A     -0.584824    35A     -0.581107    36A     -0.554216
      37A     -0.510365    38A     -0.508528    39A     -0.507303
      40A     -0.360277    41A     -0.344010

  @DF-RHF Final Energy:  -605.57676067304362

   => Energetics <=

    Nuclear Repulsion Energy =            632.3255508492879926
    One-Electron Energy =               -2088.8897669792859233
    Two-Electron Energy =                 850.9874554569543079
    Total Energy =                       -605.5767606730436228
  Basis Set: (AUG-CC-PVTZ AUX)
    Blend: AUG-CC-PVTZ-RI
    Molecular point group: c1

    Geometry (in Angstrom), charge = 0, multiplicity = 1:

       Center              X                  Y                   Z               Mass
    ------------   -----------------  -----------------  -----------------  -----------------
         F           -1.880490540350     0.508256683849    -0.994600988696    18.998403162730
         F           -1.848400540350    -1.492204316151    -0.142468988696    18.998403162730
         F           -1.844389540350     0.244406683849     1.166988011304    18.998403162730
         C            0.151750459650    -0.219769316151    -0.019075988696    12.000000000000
         C            0.834510459650     1.011954683849     0.007192011304    12.000000000000
         C            0.843745459650    -1.433552316151    -0.018522988696    12.000000000000
         C            2.233340459650     0.971530683849     0.012063011304    12.000000000000
         C           -1.347256540350    -0.243537316151     0.000602011304    12.000000000000
         C            0.124033459650     2.342865683849    -0.019578988696    12.000000000000
         C            2.238066459650    -1.442496316151    -0.011382988696    12.000000000000
         C            2.934462459650    -0.235362316151     0.008352011304    12.000000000000
         H            0.291101459650    -2.367095316151    -0.031647988696     1.007825032230
         H            2.783753459650     1.910218683849     0.030238011304     1.007825032230
         H           -0.257597540350     2.565816683849    -1.019942988696     1.007825032230
         H           -0.723023540350     2.362476683849     0.668296011304     1.007825032230
         H            0.816562459650     3.138372683849     0.266550011304     1.007825032230
         H            2.773491459650    -2.388229316151    -0.012967988696     1.007825032230
         H            3.971753459650    -0.230122816151     0.015956511304     1.007825032230

  Basis Set: AUG-CC-PVTZ
    Blend: AUG-CC-PVTZ
  Basis Set: (AUG-CC-PVTZ AUX)
    Blend: AUG-CC-PVTZ-JKFIT
	 Reference Energy          =    -605.5767606730436228 [Eh]
	 Singles Energy            =      -0.0000000000000000 [Eh]
	 Same-Spin Energy          =      -0.5632591711649783 [Eh]
	 Opposite-Spin Energy      =      -1.6970099565491283 [Eh]
	 Correlation Energy        =      -2.2602691277141065 [Eh]
	 Total Energy              =    -607.8370298007577048 [Eh]

	 ================> DF-SCS-MP2 Energies <==================
	-----------------------------------------------------------
	 SCS Same-Spin Scale       =       0.3333333333333333 [-]
	 SCS Opposite-Spin Scale   =       1.2000000000000000 [-]
	 SCS Same-Spin Energy      =      -0.1877530570549927 [Eh]
	 SCS Opposite-Spin Energy  =      -2.0364119478589537 [Eh]
	 SCS Correlation Energy    =      -2.2241650049139463 [Eh]
	 SCS Total Energy          =    -607.8009256779575935 [Eh]
	-----------------------------------------------------------

  Dipole Moment: [D]
     X:     2.6120      Y:     0.4317      Z:    -0.0625     Total:     2.6481

*** Psi4 exiting successfully. Buy a developer a beer!
