                               Psi4 1.4a3.dev225

  ==> Input File <==

--------------------------------------------------------------------------
#psi4
#
memory 32 gb

molecule  {
0 1
  F       -1.9851970     0.4862463    -0.9777528
  F       -1.9413570    -1.5269070    -0.1417860
  F       -1.9373460     0.2097040     1.1676710
  C        0.0587940    -0.2544720    -0.0183930
  C        0.7415540     0.9772520     0.0078750
  C        0.7507890    -1.4682550    -0.0178400
  C        2.1403840     0.9368280     0.0127460
  C       -1.4402130    -0.2782400     0.0012850
  C        0.0310770     2.3081630    -0.0188960
  C        2.1451100    -1.4771990    -0.0107000
  C        2.8415060    -0.2700650     0.0090350
  H        0.1981450    -2.4017980    -0.0309650
  H        2.6907970     1.8755160     0.0309210
  H       -0.3505540     2.5311140    -1.0192600
  H       -0.8159800     2.3277740     0.6689790
  H        0.7236060     3.1036700     0.2672330
  H        2.6805350    -2.4229320    -0.0122850
  H        3.9287950    -0.2645730     0.0170060
units angstrom
no_reorient  #important for SAPT in psi4, default
symmetry c1  #important for SAPT in psi4, default
}

set PROPERTIES_ORIGIN ["COM"]
properties('MP2/aug-cc-pvtz', properties = ['dipole'])
--------------------------------------------------------------------------

    Molecular point group: c1
  Charge       = 0
  Multiplicity = 1
  Basis Set: AUG-CC-PVTZ
    Blend: AUG-CC-PVTZ
  Basis Set: (AUG-CC-PVTZ AUX)
    Blend: AUG-CC-PVTZ-JKFIT

    Orbital Energies [Eh]
    ---------------------

    Doubly Occupied:

       1A    -26.335853     2A    -26.331400     3A    -26.329463
       4A    -11.508456     5A    -11.270601     6A    -11.265104
       7A    -11.260033     8A    -11.256915     9A    -11.248975
      10A    -11.248383    11A    -11.233915    12A     -1.717275
      13A     -1.627172    14A     -1.621427    15A     -1.180758
      16A     -1.072079    17A     -1.057182    18A     -0.973540
      19A     -0.937136    20A     -0.862038    21A     -0.837333
      22A     -0.810226    23A     -0.804068    24A     -0.774119
      25A     -0.704809    26A     -0.703245    27A     -0.689402
      28A     -0.666131    29A     -0.655576    30A     -0.648884
      31A     -0.642766    32A     -0.634835    33A     -0.590040
      34A     -0.584877    35A     -0.580913    36A     -0.553914
      37A     -0.509478    38A     -0.508960    39A     -0.506815
      40A     -0.360768    41A     -0.344441

  @DF-RHF Final Energy:  -605.57755025477854

   => Energetics <=

    Nuclear Repulsion Energy =            632.0379127065118610
    One-Electron Energy =               -2088.3323137498155120
    Two-Electron Energy =                 850.7168507885251074
    Total Energy =                       -605.5775502547785436
  Basis Set: (AUG-CC-PVTZ AUX)
    Blend: AUG-CC-PVTZ-RI
    Molecular point group: c1

    Geometry (in Angstrom), charge = 0, multiplicity = 1:

       Center              X                  Y                   Z               Mass
    ------------   -----------------  -----------------  -----------------  -----------------
         F           -1.891160615216     0.519440780591    -0.980356953233    18.998403162730
         F           -1.847320615216    -1.493712519409    -0.144390153233    18.998403162730
         F           -1.843309615216     0.242898480591     1.165066846767    18.998403162730
         C            0.152830384784    -0.221277519409    -0.020997153233    12.000000000000
         C            0.835590384784     1.010446480591     0.005270846767    12.000000000000
         C            0.844825384784    -1.435060519409    -0.020444153233    12.000000000000
         C            2.234420384784     0.970022480591     0.010141846767    12.000000000000
         C           -1.346176615216    -0.245045519409    -0.001319153233    12.000000000000
         C            0.125113384784     2.341357480591    -0.021500153233    12.000000000000
         C            2.239146384784    -1.444004519409    -0.013304153233    12.000000000000
         C            2.935542384784    -0.236870519409     0.006430846767    12.000000000000
         H            0.292181384784    -2.368603519409    -0.033569153233     1.007825032230
         H            2.784833384784     1.908710480591     0.028316846767     1.007825032230
         H           -0.256517615216     2.564308480591    -1.021864153233     1.007825032230
         H           -0.721943615216     2.360968480591     0.666374846767     1.007825032230
         H            0.817642384784     3.136864480591     0.264628846767     1.007825032230
         H            2.774571384784    -2.389737519409    -0.014889153233     1.007825032230
         H            4.022831384784    -0.231378519409     0.014401846767     1.007825032230

  Basis Set: AUG-CC-PVTZ
    Blend: AUG-CC-PVTZ
  Basis Set: (AUG-CC-PVTZ AUX)
    Blend: AUG-CC-PVTZ-JKFIT
	 Reference Energy          =    -605.5775502547785436 [Eh]
	 Singles Energy            =      -0.0000000000000000 [Eh]
	 Same-Spin Energy          =      -0.5633241047489782 [Eh]
	 Opposite-Spin Energy      =      -1.6972668122035137 [Eh]
	 Correlation Energy        =      -2.2605909169524918 [Eh]
	 Total Energy              =    -607.8381411717310812 [Eh]

	 ================> DF-SCS-MP2 Energies <==================
	-----------------------------------------------------------
	 SCS Same-Spin Scale       =       0.3333333333333333 [-]
	 SCS Opposite-Spin Scale   =       1.2000000000000000 [-]
	 SCS Same-Spin Energy      =      -0.1877747015829927 [Eh]
	 SCS Opposite-Spin Energy  =      -2.0367201746442163 [Eh]
	 SCS Correlation Energy    =      -2.2244948762272090 [Eh]
	 SCS Total Energy          =    -607.8020451310057979 [Eh]
	-----------------------------------------------------------

  Dipole Moment: [D]
     X:     2.6263      Y:     0.4161      Z:    -0.0806     Total:     2.6603

*** Psi4 exiting successfully. Buy a developer a beer!
