                               Psi4 1.4a3.dev225

  ==> Input File <==

--------------------------------------------------------------------------
#psi4
#
memory 32 gb

molecule  {
0 1
  F       -1.9734470     0.4735540    -0.9939180
  F       -1.9413570    -1.5269070    -0.1417860
  F       -1.9373460     0.2097040     1.1676710
  C        0.0587940    -0.2544720    -0.0183930
  C        0.7415540     0.9772520     0.0078750
  C        0.7507890    -1.4682550    -0.0178400
  C        2.1403840     0.9368280     0.0127460
  C       -1.4402130    -0.2782400     0.0012850
  C        0.0310770     2.3081630    -0.0188960
  C        2.1451100    -1.4771990    -0.0107000
  C        2.8415060    -0.2700650     0.0090350
  H        0.1981450    -2.4017980    -0.0309650
  H        2.6907970     1.8755160     0.0309210
  H       -0.3505540     2.5311140    -1.0192600
  H       -0.8159800     2.3277740     0.6689790
  H        0.7236060     3.1036700     0.2672330
  H        2.6559015    -2.3794213    -0.0122121
  H        3.9287950    -0.2645730     0.0170060
units angstrom
no_reorient  #important for SAPT in psi4, default
symmetry c1  #important for SAPT in psi4, default
}

set PROPERTIES_ORIGIN ["COM"]
properties('MP2/aug-cc-pvtz', properties = ['dipole'])
--------------------------------------------------------------------------

    Molecular point group: c1
  Charge       = 0
  Multiplicity = 1
  Basis Set: AUG-CC-PVTZ
    Blend: AUG-CC-PVTZ
  Basis Set: (AUG-CC-PVTZ AUX)
    Blend: AUG-CC-PVTZ-JKFIT

    Orbital Energies [Eh]
    ---------------------

    Doubly Occupied:

       1A    -26.335301     2A    -26.331688     3A    -26.330846
       4A    -11.508438     5A    -11.270209     6A    -11.264497
       7A    -11.259310     8A    -11.256215     9A    -11.247938
      10A    -11.242939    11A    -11.233862    12A     -1.717190
      13A     -1.626446    14A     -1.623008    15A     -1.180504
      16A     -1.072732    17A     -1.057097    18A     -0.973710
      19A     -0.938281    20A     -0.861751    21A     -0.837863
      22A     -0.811338    23A     -0.803808    24A     -0.777361
      25A     -0.704540    26A     -0.704198    27A     -0.691037
      28A     -0.665918    29A     -0.656629    30A     -0.649515
      31A     -0.643714    32A     -0.635934    33A     -0.591554
      34A     -0.584953    35A     -0.582369    36A     -0.553713
      37A     -0.510052    38A     -0.508664    39A     -0.507492
      40A     -0.360193    41A     -0.344091

  @DF-RHF Final Energy:  -605.57675620163434

   => Energetics <=

    Nuclear Repulsion Energy =            632.3264823979747007
    One-Electron Energy =               -2088.8926762436149147
    Two-Electron Energy =                 850.9894376440057613
    Total Energy =                       -605.5767562016343390
  Basis Set: (AUG-CC-PVTZ AUX)
    Blend: AUG-CC-PVTZ-RI
    Molecular point group: c1

    Geometry (in Angstrom), charge = 0, multiplicity = 1:

       Center              X                  Y                   Z               Mass
    ------------   -----------------  -----------------  -----------------  -----------------
         F           -1.880650259066     0.507981109637    -0.994603755572    18.998403162730
         F           -1.848560259066    -1.492479890363    -0.142471755572    18.998403162730
         F           -1.844549259066     0.244131109637     1.166985244428    18.998403162730
         C            0.151590740934    -0.220044890363    -0.019078755572    12.000000000000
         C            0.834350740934     1.011679109637     0.007189244428    12.000000000000
         C            0.843585740934    -1.433827890363    -0.018525755572    12.000000000000
         C            2.233180740934     0.971255109637     0.012060244428    12.000000000000
         C           -1.347416259066    -0.243812890363     0.000599244428    12.000000000000
         C            0.123873740934     2.342590109637    -0.019581755572    12.000000000000
         C            2.237906740934    -1.442771890363    -0.011385755572    12.000000000000
         C            2.934302740934    -0.235637890363     0.008349244428    12.000000000000
         H            0.290941740934    -2.367370890363    -0.031650755572     1.007825032230
         H            2.783593740934     1.909943109637     0.030235244428     1.007825032230
         H           -0.257757259066     2.565541109637    -1.019945755572     1.007825032230
         H           -0.723183259066     2.362201109637     0.668293244428     1.007825032230
         H            0.816402740934     3.138097109637     0.266547244428     1.007825032230
         H            2.748698240934    -2.344994190363    -0.012897855572     1.007825032230
         H            4.021591740934    -0.230145890363     0.016320244428     1.007825032230

  Basis Set: AUG-CC-PVTZ
    Blend: AUG-CC-PVTZ
  Basis Set: (AUG-CC-PVTZ AUX)
    Blend: AUG-CC-PVTZ-JKFIT
	 Reference Energy          =    -605.5767562016343390 [Eh]
	 Singles Energy            =      -0.0000000000000000 [Eh]
	 Same-Spin Energy          =      -0.5632606528927312 [Eh]
	 Opposite-Spin Energy      =      -1.6970129647742787 [Eh]
	 Correlation Energy        =      -2.2602736176670097 [Eh]
	 Total Energy              =    -607.8370298193013923 [Eh]

	 ================> DF-SCS-MP2 Energies <==================
	-----------------------------------------------------------
	 SCS Same-Spin Scale       =       0.3333333333333333 [-]
	 SCS Opposite-Spin Scale   =       1.2000000000000000 [-]
	 SCS Same-Spin Energy      =      -0.1877535509642437 [Eh]
	 SCS Opposite-Spin Energy  =      -2.0364155577291343 [Eh]
	 SCS Correlation Energy    =      -2.2241691086933781 [Eh]
	 SCS Total Energy          =    -607.8009253103276706 [Eh]
	-----------------------------------------------------------

  Dipole Moment: [D]
     X:     2.6044      Y:     0.4220      Z:    -0.0627     Total:     2.6392

*** Psi4 exiting successfully. Buy a developer a beer!
