                               Psi4 1.4a3.dev225

  ==> Input File <==

--------------------------------------------------------------------------
#psi4
#
memory 32 gb

molecule  {
0 1
  F       -1.9734470     0.4735540    -0.9939180
  F       -1.9413570    -1.5269070    -0.1417860
  F       -1.9373460     0.2097040     1.1676710
  C        0.0587940    -0.2544720    -0.0183930
  C        0.7415540     0.9772520     0.0078750
  C        0.7507890    -1.4682550    -0.0178400
  C        2.1403840     0.9368280     0.0127460
  C       -1.4402130    -0.2782400     0.0012850
  C        0.0310770     2.3081630    -0.0188960
  C        2.1241466    -1.4648601    -0.0107024
  C        2.8415060    -0.2700650     0.0090350
  H        0.1981450    -2.4017980    -0.0309650
  H        2.6907970     1.8755160     0.0309210
  H       -0.3505540     2.5311140    -1.0192600
  H       -0.8159800     2.3277740     0.6689790
  H        0.7236060     3.1036700     0.2672330
  H        2.6805350    -2.4229320    -0.0122850
  H        3.9287950    -0.2645730     0.0170060
units angstrom
no_reorient  #important for SAPT in psi4, default
symmetry c1  #important for SAPT in psi4, default
}

set PROPERTIES_ORIGIN ["COM"]
properties('MP2/aug-cc-pvtz', properties = ['dipole'])
--------------------------------------------------------------------------

    Molecular point group: c1
  Charge       = 0
  Multiplicity = 1
  Basis Set: AUG-CC-PVTZ
    Blend: AUG-CC-PVTZ
  Basis Set: (AUG-CC-PVTZ AUX)
    Blend: AUG-CC-PVTZ-JKFIT

    Orbital Energies [Eh]
    ---------------------

    Doubly Occupied:

       1A    -26.335482     2A    -26.331730     3A    -26.330910
       4A    -11.508480     5A    -11.270087     6A    -11.264605
       7A    -11.257055     8A    -11.256616     9A    -11.248387
      10A    -11.248121    11A    -11.233910    12A     -1.717287
      13A     -1.626575    14A     -1.623065    15A     -1.182291
      16A     -1.072266    17A     -1.058331    18A     -0.974817
      19A     -0.936278    20A     -0.862915    21A     -0.836518
      22A     -0.811420    23A     -0.803620    24A     -0.772727
      25A     -0.704619    26A     -0.704270    27A     -0.689603
      28A     -0.666301    29A     -0.656719    30A     -0.648366
      31A     -0.643797    32A     -0.633674    33A     -0.591710
      34A     -0.584840    35A     -0.577977    36A     -0.554484
      37A     -0.510847    38A     -0.510170    39A     -0.503544
      40A     -0.360225    41A     -0.345817

  @DF-RHF Final Energy:  -605.57679781615047

   => Energetics <=

    Nuclear Repulsion Energy =            632.5410186535881394
    One-Electron Energy =               -2089.3347186385003624
    Two-Electron Energy =                 851.2169021687616350
    Total Energy =                       -605.5767978161504743
  Basis Set: (AUG-CC-PVTZ AUX)
    Blend: AUG-CC-PVTZ-RI
    Molecular point group: c1

    Geometry (in Angstrom), charge = 0, multiplicity = 1:

       Center              X                  Y                   Z               Mass
    ------------   -----------------  -----------------  -----------------  -----------------
         F           -1.879233610745     0.507329965386    -0.994603116581    18.998403162730
         F           -1.847143610745    -1.493131034614    -0.142471116581    18.998403162730
         F           -1.843132610745     0.243479965386     1.166985883419    18.998403162730
         C            0.153007389255    -0.220696034614    -0.019078116581    12.000000000000
         C            0.835767389255     1.011027965386     0.007189883419    12.000000000000
         C            0.845002389255    -1.434479034614    -0.018525116581    12.000000000000
         C            2.234597389255     0.970603965386     0.012060883419    12.000000000000
         C           -1.345999610745    -0.244464034614     0.000599883419    12.000000000000
         C            0.125290389255     2.341938965386    -0.019581116581    12.000000000000
         C            2.218359989255    -1.431084134614    -0.011387516581    12.000000000000
         C            2.935719389255    -0.236289034614     0.008349883419    12.000000000000
         H            0.292358389255    -2.368022034614    -0.031650116581     1.007825032230
         H            2.785010389255     1.909291965386     0.030235883419     1.007825032230
         H           -0.256340610745     2.564889965386    -1.019945116581     1.007825032230
         H           -0.721766610745     2.361549965386     0.668293883419     1.007825032230
         H            0.817819389255     3.137445965386     0.266547883419     1.007825032230
         H            2.774748389255    -2.389156034614    -0.012970116581     1.007825032230
         H            4.023008389255    -0.230797034614     0.016320883419     1.007825032230

  Basis Set: AUG-CC-PVTZ
    Blend: AUG-CC-PVTZ
  Basis Set: (AUG-CC-PVTZ AUX)
    Blend: AUG-CC-PVTZ-JKFIT
	 Reference Energy          =    -605.5767978161504743 [Eh]
	 Singles Energy            =      -0.0000000000000000 [Eh]
	 Same-Spin Energy          =      -0.5634256619095565 [Eh]
	 Opposite-Spin Energy      =      -1.6973210337604914 [Eh]
	 Correlation Energy        =      -2.2607466956700479 [Eh]
	 Total Energy              =    -607.8375445118205107 [Eh]

	 ================> DF-SCS-MP2 Energies <==================
	-----------------------------------------------------------
	 SCS Same-Spin Scale       =       0.3333333333333333 [-]
	 SCS Opposite-Spin Scale   =       1.2000000000000000 [-]
	 SCS Same-Spin Energy      =      -0.1878085539698521 [Eh]
	 SCS Opposite-Spin Energy  =      -2.0367852405125895 [Eh]
	 SCS Correlation Energy    =      -2.2245937944824417 [Eh]
	 SCS Total Energy          =    -607.8013916106328907 [Eh]
	-----------------------------------------------------------

  Dipole Moment: [D]
     X:     2.5963      Y:     0.4470      Z:    -0.0625     Total:     2.6352

*** Psi4 exiting successfully. Buy a developer a beer!
