                               Psi4 1.4a3.dev225

  ==> Input File <==

--------------------------------------------------------------------------
#psi4
#
memory 32 gb

molecule  {
0 1
  F       -1.9734470     0.4735540    -0.9939180
  F       -1.9413570    -1.5269070    -0.1417860
  F       -1.9373460     0.2097040     1.1676710
  C        0.0587940    -0.2544720    -0.0183930
  C        0.7415540     0.9772520     0.0078750
  C        0.7507890    -1.4682550    -0.0178400
  C        2.1403840     0.9368280     0.0127460
  C       -1.4402130    -0.2782400     0.0012850
  C        0.0310770     2.3081630    -0.0188960
  C        2.1451100    -1.4771990    -0.0107000
  C        2.8415060    -0.2700650     0.0090350
  H        0.1981450    -2.4017980    -0.0309650
  H        2.6907970     1.8755160     0.0309210
  H       -0.3505540     2.5311140    -1.0192600
  H       -0.8159800     2.3277740     0.6689790
  H        0.7236060     3.1036700     0.2672330
  H        2.7298020    -2.5099535    -0.0124308
  H        3.9287950    -0.2645730     0.0170060
units angstrom
no_reorient  #important for SAPT in psi4, default
symmetry c1  #important for SAPT in psi4, default
}

set PROPERTIES_ORIGIN ["COM"]
properties('MP2/aug-cc-pvtz', properties = ['dipole'])
--------------------------------------------------------------------------

    Molecular point group: c1
  Charge       = 0
  Multiplicity = 1
  Basis Set: AUG-CC-PVTZ
    Blend: AUG-CC-PVTZ
  Basis Set: (AUG-CC-PVTZ AUX)
    Blend: AUG-CC-PVTZ-JKFIT

    Orbital Energies [Eh]
    ---------------------

    Doubly Occupied:

       1A    -26.335716     2A    -26.332172     3A    -26.331317
       4A    -11.509089     5A    -11.270775     6A    -11.265523
       7A    -11.261079     8A    -11.259806     9A    -11.257451
      10A    -11.248986    11A    -11.234288    12A     -1.717642
      13A     -1.626873    14A     -1.623465    15A     -1.180908
      16A     -1.071120    17A     -1.057088    18A     -0.973527
      19A     -0.935586    20A     -0.862447    21A     -0.836110
      22A     -0.811791    23A     -0.803768    24A     -0.768883
      25A     -0.704880    26A     -0.704252    27A     -0.686212
      28A     -0.666026    29A     -0.657061    30A     -0.647654
      31A     -0.644147    32A     -0.632275    33A     -0.588566
      34A     -0.585053    35A     -0.573749    36A     -0.554346
      37A     -0.509776    38A     -0.509219    39A     -0.501563
      40A     -0.361110    41A     -0.344797

  @DF-RHF Final Energy:  -605.57013972411028

   => Energetics <=

    Nuclear Repulsion Energy =            631.5467129394917265
    One-Electron Energy =               -2087.3415122420883563
    Two-Electron Energy =                 850.2246595784863530
    Total Energy =                       -605.5701397241102768
  Basis Set: (AUG-CC-PVTZ AUX)
    Blend: AUG-CC-PVTZ-RI
    Molecular point group: c1

    Geometry (in Angstrom), charge = 0, multiplicity = 1:

       Center              X                  Y                   Z               Mass
    ------------   -----------------  -----------------  -----------------  -----------------
         F           -1.881115606025     0.508803062971    -0.994602378431    18.998403162730
         F           -1.849025606025    -1.491657937029    -0.142470378431    18.998403162730
         F           -1.845014606025     0.244953062971     1.166986621569    18.998403162730
         C            0.151125393975    -0.219222937029    -0.019077378431    12.000000000000
         C            0.833885393975     1.012501062971     0.007190621569    12.000000000000
         C            0.843120393975    -1.433005937029    -0.018524378431    12.000000000000
         C            2.232715393975     0.972077062971     0.012061621569    12.000000000000
         C           -1.347881606025    -0.242990937029     0.000600621569    12.000000000000
         C            0.123408393975     2.343412062971    -0.019580378431    12.000000000000
         C            2.237441393975    -1.441949937029    -0.011384378431    12.000000000000
         C            2.933837393975    -0.234815937029     0.008350621569    12.000000000000
         H            0.290476393975    -2.366548937029    -0.031649378431     1.007825032230
         H            2.783128393975     1.910765062971     0.030236621569     1.007825032230
         H           -0.258222606025     2.566363062971    -1.019944378431     1.007825032230
         H           -0.723648606025     2.363023062971     0.668294621569     1.007825032230
         H            0.815937393975     3.138919062971     0.266548621569     1.007825032230
         H            2.822133393975    -2.474704437029    -0.013115178431     1.007825032230
         H            4.021126393975    -0.229323937029     0.016321621569     1.007825032230

  Basis Set: AUG-CC-PVTZ
    Blend: AUG-CC-PVTZ
  Basis Set: (AUG-CC-PVTZ AUX)
    Blend: AUG-CC-PVTZ-JKFIT
	 Reference Energy          =    -605.5701397241102768 [Eh]
	 Singles Energy            =      -0.0000000000000000 [Eh]
	 Same-Spin Energy          =      -0.5635458835170348 [Eh]
	 Opposite-Spin Energy      =      -1.6982563131801025 [Eh]
	 Correlation Energy        =      -2.2618021966971371 [Eh]
	 Total Energy              =    -607.8319419208073668 [Eh]

	 ================> DF-SCS-MP2 Energies <==================
	-----------------------------------------------------------
	 SCS Same-Spin Scale       =       0.3333333333333333 [-]
	 SCS Opposite-Spin Scale   =       1.2000000000000000 [-]
	 SCS Same-Spin Energy      =      -0.1878486278390116 [Eh]
	 SCS Opposite-Spin Energy  =      -2.0379075758161229 [Eh]
	 SCS Correlation Energy    =      -2.2257562036551346 [Eh]
	 SCS Total Energy          =    -607.7958959277654003 [Eh]
	-----------------------------------------------------------

  Dipole Moment: [D]
     X:     2.5737      Y:     0.4664      Z:    -0.0624     Total:     2.6163

*** Psi4 exiting successfully. Buy a developer a beer!
