                               Psi4 1.4a3.dev225

  ==> Input File <==

--------------------------------------------------------------------------
#psi4
#
memory 32 gb

molecule  {
0 1
  F       -1.9734470     0.4735540    -0.9939180
  F       -1.9413570    -1.5269070    -0.1417860
  F       -1.9373460     0.2097040     1.1676710
  C        0.0587940    -0.2544720    -0.0183930
  C        0.7415540     0.9772520     0.0078750
  C        0.7507890    -1.4682550    -0.0178400
  C        2.1403840     0.9368280     0.0127460
  C       -1.4402130    -0.2782400     0.0012850
  C        0.0310770     2.3081630    -0.0188960
  C        2.1451100    -1.4771990    -0.0107000
  C        2.8415060    -0.2700650     0.0090350
  H        0.1981450    -2.4017980    -0.0309650
  H        2.6907970     1.8755160     0.0309210
  H       -0.3505540     2.5311140    -1.0192600
  H       -0.8159800     2.3277740     0.6689790
  H        0.7869757     3.1764627     0.2934152
  H        2.6805350    -2.4229320    -0.0122850
  H        3.9287950    -0.2645730     0.0170060
units angstrom
no_reorient  #important for SAPT in psi4, default
symmetry c1  #important for SAPT in psi4, default
}

set PROPERTIES_ORIGIN ["COM"]
properties('MP2/aug-cc-pvtz', properties = ['dipole'])
--------------------------------------------------------------------------

    Molecular point group: c1
  Charge       = 0
  Multiplicity = 1
  Basis Set: AUG-CC-PVTZ
    Blend: AUG-CC-PVTZ
  Basis Set: (AUG-CC-PVTZ AUX)
    Blend: AUG-CC-PVTZ-JKFIT

    Orbital Energies [Eh]
    ---------------------

    Doubly Occupied:

       1A    -26.335917     2A    -26.332580     3A    -26.331588
       4A    -11.509251     5A    -11.271270     6A    -11.265609
       7A    -11.260124     8A    -11.256782     9A    -11.249164
      10A    -11.248398    11A    -11.245684    12A     -1.717933
      13A     -1.627143    14A     -1.623796    15A     -1.180889
      16A     -1.072048    17A     -1.055981    18A     -0.972207
      19A     -0.933889    20A     -0.862401    21A     -0.835649
      22A     -0.812075    23A     -0.804156    24A     -0.774223
      25A     -0.705233    26A     -0.704593    27A     -0.689317
      28A     -0.665222    29A     -0.657355    30A     -0.647440
      31A     -0.644413    32A     -0.635130    33A     -0.590234
      34A     -0.585747    35A     -0.580875    36A     -0.539006
      37A     -0.509418    38A     -0.507720    39A     -0.505163
      40A     -0.360806    41A     -0.344618

  @DF-RHF Final Energy:  -605.57082386896832

   => Energetics <=

    Nuclear Repulsion Energy =            631.5796246639895344
    One-Electron Energy =               -2087.3988047838497550
    Two-Electron Energy =                 850.2483562508919022
    Total Energy =                       -605.5708238689683185
  Basis Set: (AUG-CC-PVTZ AUX)
    Blend: AUG-CC-PVTZ-RI
    Molecular point group: c1

    Geometry (in Angstrom), charge = 0, multiplicity = 1:

       Center              X                  Y                   Z               Mass
    ------------   -----------------  -----------------  -----------------  -----------------
         F           -1.881204409871     0.507796722661    -0.994768164248    18.998403162730
         F           -1.849114409871    -1.492664277339    -0.142636164248    18.998403162730
         F           -1.845103409871     0.243946722661     1.166820835752    18.998403162730
         C            0.151036590129    -0.220229277339    -0.019243164248    12.000000000000
         C            0.833796590129     1.011494722661     0.007024835752    12.000000000000
         C            0.843031590129    -1.434012277339    -0.018690164248    12.000000000000
         C            2.232626590129     0.971070722661     0.011895835752    12.000000000000
         C           -1.347970409871    -0.243997277339     0.000434835752    12.000000000000
         C            0.123319590129     2.342405722661    -0.019746164248    12.000000000000
         C            2.237352590129    -1.442956277339    -0.011550164248    12.000000000000
         C            2.933748590129    -0.235822277339     0.008184835752    12.000000000000
         H            0.290387590129    -2.367555277339    -0.031815164248     1.007825032230
         H            2.783039590129     1.909758722661     0.030070835752     1.007825032230
         H           -0.258311409871     2.565356722661    -1.020110164248     1.007825032230
         H           -0.723737409871     2.362016722661     0.668128835752     1.007825032230
         H            0.879218290129     3.210705422661     0.292565035752     1.007825032230
         H            2.772777590129    -2.388689277339    -0.013135164248     1.007825032230
         H            4.021037590129    -0.230330277339     0.016155835752     1.007825032230

  Basis Set: AUG-CC-PVTZ
    Blend: AUG-CC-PVTZ
  Basis Set: (AUG-CC-PVTZ AUX)
    Blend: AUG-CC-PVTZ-JKFIT
	 Reference Energy          =    -605.5708238689683185 [Eh]
	 Singles Energy            =      -0.0000000000000000 [Eh]
	 Same-Spin Energy          =      -0.5633977595252286 [Eh]
	 Opposite-Spin Energy      =      -1.6981682386082830 [Eh]
	 Correlation Energy        =      -2.2615659981335119 [Eh]
	 Total Energy              =    -607.8323898671018242 [Eh]

	 ================> DF-SCS-MP2 Energies <==================
	-----------------------------------------------------------
	 SCS Same-Spin Scale       =       0.3333333333333333 [-]
	 SCS Opposite-Spin Scale   =       1.2000000000000000 [-]
	 SCS Same-Spin Energy      =      -0.1877992531750762 [Eh]
	 SCS Opposite-Spin Energy  =      -2.0378018863299396 [Eh]
	 SCS Correlation Energy    =      -2.2256011395050157 [Eh]
	 SCS Total Energy          =    -607.7964250084733067 [Eh]
	-----------------------------------------------------------

  Dipole Moment: [D]
     X:     2.5762      Y:     0.3721      Z:    -0.0738     Total:     2.6040

*** Psi4 exiting successfully. Buy a developer a beer!
