                               Psi4 1.4a3.dev225

  ==> Input File <==

--------------------------------------------------------------------------
#psi4
#
memory 32 gb

molecule  {
0 1
  F       -1.9734470     0.4735540    -0.9939180
  F       -1.9413570    -1.5269070    -0.1417860
  F       -1.9373460     0.2097040     1.1676710
  C        0.0587940    -0.2544720    -0.0183930
  C        0.7415540     0.9772520     0.0078750
  C        0.7507890    -1.4682550    -0.0178400
  C        2.1403840     0.9368280     0.0127460
  C       -1.4402130    -0.2782400     0.0012850
  C        0.0546197     2.2640614    -0.0180089
  C        2.1451100    -1.4771990    -0.0107000
  C        2.8415060    -0.2700650     0.0090350
  H        0.1981450    -2.4017980    -0.0309650
  H        2.6907970     1.8755160     0.0309210
  H       -0.3505540     2.5311140    -1.0192600
  H       -0.8159800     2.3277740     0.6689790
  H        0.7236060     3.1036700     0.2672330
  H        2.6805350    -2.4229320    -0.0122850
  H        3.9287950    -0.2645730     0.0170060
units angstrom
no_reorient  #important for SAPT in psi4, default
symmetry c1  #important for SAPT in psi4, default
}

set PROPERTIES_ORIGIN ["COM"]
properties('MP2/aug-cc-pvtz', properties = ['dipole'])
--------------------------------------------------------------------------

    Molecular point group: c1
  Charge       = 0
  Multiplicity = 1
  Basis Set: AUG-CC-PVTZ
    Blend: AUG-CC-PVTZ
  Basis Set: (AUG-CC-PVTZ AUX)
    Blend: AUG-CC-PVTZ-JKFIT

    Orbital Energies [Eh]
    ---------------------

    Doubly Occupied:

       1A    -26.335471     2A    -26.331687     3A    -26.330800
       4A    -11.508707     5A    -11.268340     6A    -11.264833
       7A    -11.259918     8A    -11.256745     9A    -11.248934
      10A    -11.248255    11A    -11.235341    12A     -1.717261
      13A     -1.626550    14A     -1.623004    15A     -1.182592
      16A     -1.074655    17A     -1.060157    18A     -0.974022
      19A     -0.935802    20A     -0.862462    21A     -0.836371
      22A     -0.811395    23A     -0.803880    24A     -0.774078
      25A     -0.704592    26A     -0.704217    27A     -0.690779
      28A     -0.666144    29A     -0.656642    30A     -0.649987
      31A     -0.643709    32A     -0.636340    33A     -0.592699
      34A     -0.585487    35A     -0.580157    36A     -0.546776
      37A     -0.513723    38A     -0.505844    39A     -0.504638
      40A     -0.360668    41A     -0.342935

  @DF-RHF Final Energy:  -605.57422603221164

   => Energetics <=

    Nuclear Repulsion Energy =            632.9914099907206264
    One-Electron Energy =               -2090.2180719357356793
    Two-Electron Energy =                 851.6524359128035258
    Total Energy =                       -605.5742260322116408
  Basis Set: (AUG-CC-PVTZ AUX)
    Blend: AUG-CC-PVTZ-RI
    Molecular point group: c1

    Geometry (in Angstrom), charge = 0, multiplicity = 1:

       Center              X                  Y                   Z               Mass
    ------------   -----------------  -----------------  -----------------  -----------------
         F           -1.882570525778     0.511561680879    -0.994669808246    18.998403162730
         F           -1.850480525778    -1.488899319121    -0.142537808246    18.998403162730
         F           -1.846469525778     0.247711680879     1.166919191754    18.998403162730
         C            0.149670474222    -0.216464319121    -0.019144808246    12.000000000000
         C            0.832430474222     1.015259680879     0.007123191754    12.000000000000
         C            0.841665474222    -1.430247319121    -0.018591808246    12.000000000000
         C            2.231260474222     0.974835680879     0.011994191754    12.000000000000
         C           -1.349336525778    -0.240232319121     0.000533191754    12.000000000000
         C            0.145496174222     2.302069080879    -0.018760708246    12.000000000000
         C            2.235986474222    -1.439191319121    -0.011451808246    12.000000000000
         C            2.932382474222    -0.232057319121     0.008283191754    12.000000000000
         H            0.289021474222    -2.363790319121    -0.031716808246     1.007825032230
         H            2.781673474222     1.913523680879     0.030169191754     1.007825032230
         H           -0.259677525778     2.569121680879    -1.020011808246     1.007825032230
         H           -0.725103525778     2.365781680879     0.668227191754     1.007825032230
         H            0.814482474222     3.141677680879     0.266481191754     1.007825032230
         H            2.771411474222    -2.384924319121    -0.013036808246     1.007825032230
         H            4.019671474222    -0.226565319121     0.016254191754     1.007825032230

  Basis Set: AUG-CC-PVTZ
    Blend: AUG-CC-PVTZ
  Basis Set: (AUG-CC-PVTZ AUX)
    Blend: AUG-CC-PVTZ-JKFIT
	 Reference Energy          =    -605.5742260322116408 [Eh]
	 Singles Energy            =      -0.0000000000000000 [Eh]
	 Same-Spin Energy          =      -0.5639261370179612 [Eh]
	 Opposite-Spin Energy      =      -1.6979459395156322 [Eh]
	 Correlation Energy        =      -2.2618720765335936 [Eh]
	 Total Energy              =    -607.8360981087452046 [Eh]

	 ================> DF-SCS-MP2 Energies <==================
	-----------------------------------------------------------
	 SCS Same-Spin Scale       =       0.3333333333333333 [-]
	 SCS Opposite-Spin Scale   =       1.2000000000000000 [-]
	 SCS Same-Spin Energy      =      -0.1879753790059871 [Eh]
	 SCS Opposite-Spin Energy  =      -2.0375351274187588 [Eh]
	 SCS Correlation Energy    =      -2.2255105064247460 [Eh]
	 SCS Total Energy          =    -607.7997365386363526 [Eh]
	-----------------------------------------------------------

  Dipole Moment: [D]
     X:     2.5865      Y:     0.4424      Z:    -0.0641     Total:     2.6248

*** Psi4 exiting successfully. Buy a developer a beer!
