                               Psi4 1.4a3.dev225

  ==> Input File <==

--------------------------------------------------------------------------
#psi4
#
memory 32 gb

molecule  {
0 1
  F       -1.9734470     0.4735540    -0.9939180
  F       -1.9413570    -1.5269070    -0.1417860
  F       -1.9373460     0.2097040     1.1676710
  C        0.0587940    -0.2544720    -0.0183930
  C        0.7415540     0.9772520     0.0078750
  C        0.7507890    -1.4682550    -0.0178400
  C        2.1403840     0.9368280     0.0127460
  C       -1.5188349    -0.1673929    -0.1454512
  C        0.0310770     2.3081630    -0.0188960
  C        2.1451100    -1.4771990    -0.0107000
  C        2.8415060    -0.2700650     0.0090350
  H        0.1981450    -2.4017980    -0.0309650
  H        2.6907970     1.8755160     0.0309210
  H       -0.3505540     2.5311140    -1.0192600
  H       -0.8159800     2.3277740     0.6689790
  H        0.7236060     3.1036700     0.2672330
  H        2.6805350    -2.4229320    -0.0122850
  H        3.9287950    -0.2645730     0.0170060
units angstrom
no_reorient  #important for SAPT in psi4, default
symmetry c1  #important for SAPT in psi4, default
}

set PROPERTIES_ORIGIN ["COM"]
properties('MP2/aug-cc-pvtz', properties = ['dipole'])
--------------------------------------------------------------------------

    Molecular point group: c1
  Charge       = 0
  Multiplicity = 1
  Basis Set: AUG-CC-PVTZ
    Blend: AUG-CC-PVTZ
  Basis Set: (AUG-CC-PVTZ AUX)
    Blend: AUG-CC-PVTZ-JKFIT

    Orbital Energies [Eh]
    ---------------------

    Doubly Occupied:

       1A    -26.414548     2A    -26.305540     3A    -26.302640
       4A    -11.514883     5A    -11.264846     6A    -11.262635
       7A    -11.252814     8A    -11.250152     9A    -11.244618
      10A    -11.243954    11A    -11.236464    12A     -1.833785
      13A     -1.629168    14A     -1.580744    15A     -1.172276
      16A     -1.065834    17A     -1.046964    18A     -0.995332
      19A     -0.947823    20A     -0.886903    21A     -0.860964
      22A     -0.853865    23A     -0.822806    24A     -0.788493
      25A     -0.712880    26A     -0.686205    27A     -0.681841
      28A     -0.669341    29A     -0.650694    30A     -0.640835
      31A     -0.628667    32A     -0.617117    33A     -0.586814
      34A     -0.582820    35A     -0.564850    36A     -0.553258
      37A     -0.505298    38A     -0.503906    39A     -0.490777
      40A     -0.352170    41A     -0.340101

  @DF-RHF Final Energy:  -605.52985154548060

   => Energetics <=

    Nuclear Repulsion Energy =            632.2963036041862779
    One-Electron Energy =               -2088.5610587206383570
    Two-Electron Energy =                 850.7349035709714826
    Total Energy =                       -605.5298515454805965
  Basis Set: (AUG-CC-PVTZ AUX)
    Blend: AUG-CC-PVTZ-RI
    Molecular point group: c1

    Geometry (in Angstrom), charge = 0, multiplicity = 1:

       Center              X                  Y                   Z               Mass
    ------------   -----------------  -----------------  -----------------  -----------------
         F           -1.874910573781     0.499944157745    -0.983601518529    18.998403162730
         F           -1.842820573781    -1.500516842255    -0.131469518529    18.998403162730
         F           -1.838809573781     0.236094157745     1.177987481471    18.998403162730
         C            0.157330426219    -0.228081842255    -0.008076518529    12.000000000000
         C            0.840090426219     1.003642157745     0.018191481471    12.000000000000
         C            0.849325426219    -1.441864842255    -0.007523518529    12.000000000000
         C            2.238920426219     0.963218157745     0.023062481471    12.000000000000
         C           -1.420298473781    -0.141002742255    -0.135134718529    12.000000000000
         C            0.129613426219     2.334553157745    -0.008579518529    12.000000000000
         C            2.243646426219    -1.450808842255    -0.000383518529    12.000000000000
         C            2.940042426219    -0.243674842255     0.019351481471    12.000000000000
         H            0.296681426219    -2.375407842255    -0.020648518529     1.007825032230
         H            2.789333426219     1.901906157745     0.041237481471     1.007825032230
         H           -0.252017573781     2.557504157745    -1.008943518529     1.007825032230
         H           -0.717443573781     2.354164157745     0.679295481471     1.007825032230
         H            0.822142426219     3.130060157745     0.277549481471     1.007825032230
         H            2.779071426219    -2.396541842255    -0.001968518529     1.007825032230
         H            4.027331426219    -0.238182842255     0.027322481471     1.007825032230

  Basis Set: AUG-CC-PVTZ
    Blend: AUG-CC-PVTZ
  Basis Set: (AUG-CC-PVTZ AUX)
    Blend: AUG-CC-PVTZ-JKFIT
	 Reference Energy          =    -605.5298515454805965 [Eh]
	 Singles Energy            =      -0.0000000000000000 [Eh]
	 Same-Spin Energy          =      -0.5638143381118351 [Eh]
	 Opposite-Spin Energy      =      -1.6975383882470996 [Eh]
	 Correlation Energy        =      -2.2613527263589348 [Eh]
	 Total Energy              =    -607.7912042718395469 [Eh]

	 ================> DF-SCS-MP2 Energies <==================
	-----------------------------------------------------------
	 SCS Same-Spin Scale       =       0.3333333333333333 [-]
	 SCS Opposite-Spin Scale   =       1.2000000000000000 [-]
	 SCS Same-Spin Energy      =      -0.1879381127039450 [Eh]
	 SCS Opposite-Spin Energy  =      -2.0370460658965195 [Eh]
	 SCS Correlation Energy    =      -2.2249841786004647 [Eh]
	 SCS Total Energy          =    -607.7548357240810901 [Eh]
	-----------------------------------------------------------

  Dipole Moment: [D]
     X:     1.8646      Y:     1.2414      Z:    -1.2065     Total:     2.5443

*** Psi4 exiting successfully. Buy a developer a beer!
