                               Psi4 1.4a3.dev225

  ==> Input File <==

--------------------------------------------------------------------------
#psi4
#
memory 32 gb

molecule  {
0 1
  F       -1.9734470     0.4735540    -0.9939180
  F       -1.9413570    -1.5269070    -0.1417860
  F       -1.9373460     0.2097040     1.1676710
  C        0.0587940    -0.2544720    -0.0183930
  C        0.7415540     0.9772520     0.0078750
  C        0.7507890    -1.4682550    -0.0178400
  C        2.1403840     0.9368280     0.0127460
  C       -1.4402130    -0.2782400     0.0012850
  C        0.0310770     2.3081630    -0.0188960
  C        2.1451100    -1.4771990    -0.0107000
  C        2.8515524    -0.2873586     0.0089818
  H        0.1981450    -2.4017980    -0.0309650
  H        2.6907970     1.8755160     0.0309210
  H       -0.3505540     2.5311140    -1.0192600
  H       -0.8159800     2.3277740     0.6689790
  H        0.7236060     3.1036700     0.2672330
  H        2.6805350    -2.4229320    -0.0122850
  H        3.9287950    -0.2645730     0.0170060
units angstrom
no_reorient  #important for SAPT in psi4, default
symmetry c1  #important for SAPT in psi4, default
}

set PROPERTIES_ORIGIN ["COM"]
properties('MP2/aug-cc-pvtz', properties = ['dipole'])
--------------------------------------------------------------------------

    Molecular point group: c1
  Charge       = 0
  Multiplicity = 1
  Basis Set: AUG-CC-PVTZ
    Blend: AUG-CC-PVTZ
  Basis Set: (AUG-CC-PVTZ AUX)
    Blend: AUG-CC-PVTZ-JKFIT

    Orbital Energies [Eh]
    ---------------------

    Doubly Occupied:

       1A    -26.335462     2A    -26.331934     3A    -26.331092
       4A    -11.508741     5A    -11.269893     6A    -11.265217
       7A    -11.260159     8A    -11.256946     9A    -11.250137
      10A    -11.248067    11A    -11.233780    12A     -1.717399
      13A     -1.626628    14A     -1.623236    15A     -1.179816
      16A     -1.072531    17A     -1.055959    18A     -0.972292
      19A     -0.937778    20A     -0.863098    21A     -0.836418
      22A     -0.811548    23A     -0.803633    24A     -0.774117
      25A     -0.704660    26A     -0.704218    27A     -0.690151
      28A     -0.665827    29A     -0.656828    30A     -0.648587
      31A     -0.643917    32A     -0.634342    33A     -0.589007
      34A     -0.584753    35A     -0.581440    36A     -0.554596
      37A     -0.511425    38A     -0.508255    39A     -0.504382
      40A     -0.358979    41A     -0.345038

  @DF-RHF Final Energy:  -605.57696485587803

   => Energetics <=

    Nuclear Repulsion Energy =            631.8227131873480857
    One-Electron Energy =               -2087.8947898147512205
    Two-Electron Energy =                 850.4951117715249893
    Total Energy =                       -605.5769648558780318
  Basis Set: (AUG-CC-PVTZ AUX)
    Blend: AUG-CC-PVTZ-RI
    Molecular point group: c1

    Geometry (in Angstrom), charge = 0, multiplicity = 1:

       Center              X                  Y                   Z               Mass
    ------------   -----------------  -----------------  -----------------  -----------------
         F           -1.881558619402     0.509551708803    -0.994599307771    18.998403162730
         F           -1.849468619402    -1.490909291197    -0.142467307771    18.998403162730
         F           -1.845457619402     0.245701708803     1.166989692229    18.998403162730
         C            0.150682380598    -0.218474291197    -0.019074307771    12.000000000000
         C            0.833442380598     1.013249708803     0.007193692229    12.000000000000
         C            0.842677380598    -1.432257291197    -0.018521307771    12.000000000000
         C            2.232272380598     0.972825708803     0.012064692229    12.000000000000
         C           -1.348324619402    -0.242242291197     0.000603692229    12.000000000000
         C            0.122965380598     2.344160708803    -0.019577307771    12.000000000000
         C            2.236998380598    -1.441201291197    -0.011381307771    12.000000000000
         C            2.943440780598    -0.251360891197     0.008300492229    12.000000000000
         H            0.290033380598    -2.365800291197    -0.031646307771     1.007825032230
         H            2.782685380598     1.911513708803     0.030239692229     1.007825032230
         H           -0.258665619402     2.567111708803    -1.019941307771     1.007825032230
         H           -0.724091619402     2.363771708803     0.668297692229     1.007825032230
         H            0.815494380598     3.139667708803     0.266551692229     1.007825032230
         H            2.772423380598    -2.386934291197    -0.012966307771     1.007825032230
         H            4.020683380598    -0.228575291197     0.016324692229     1.007825032230

  Basis Set: AUG-CC-PVTZ
    Blend: AUG-CC-PVTZ
  Basis Set: (AUG-CC-PVTZ AUX)
    Blend: AUG-CC-PVTZ-JKFIT
	 Reference Energy          =    -605.5769648558780318 [Eh]
	 Singles Energy            =      -0.0000000000000000 [Eh]
	 Same-Spin Energy          =      -0.5633048479492496 [Eh]
	 Opposite-Spin Energy      =      -1.6973980361421923 [Eh]
	 Correlation Energy        =      -2.2607028840914420 [Eh]
	 Total Energy              =    -607.8376677399694472 [Eh]

	 ================> DF-SCS-MP2 Energies <==================
	-----------------------------------------------------------
	 SCS Same-Spin Scale       =       0.3333333333333333 [-]
	 SCS Opposite-Spin Scale   =       1.2000000000000000 [-]
	 SCS Same-Spin Energy      =      -0.1877682826497499 [Eh]
	 SCS Opposite-Spin Energy  =      -2.0368776433706306 [Eh]
	 SCS Correlation Energy    =      -2.2246459260203806 [Eh]
	 SCS Total Energy          =    -607.8016107818983755 [Eh]
	-----------------------------------------------------------

  Dipole Moment: [D]
     X:     2.6001      Y:     0.4349      Z:    -0.0625     Total:     2.6370

*** Psi4 exiting successfully. Buy a developer a beer!
