                               Psi4 1.4a3.dev225

  ==> Input File <==

--------------------------------------------------------------------------
#psi4
#
memory 32 gb

molecule  {
0 1
  F       -1.9734470     0.4735540    -0.9939180
  F       -1.9413570    -1.5269070    -0.1417860
  F       -1.9373460     0.2097040     1.1676710
  C        0.0803992    -0.2661998    -0.0185297
  C        0.7415540     0.9772520     0.0078750
  C        0.7507890    -1.4682550    -0.0178400
  C        2.1403840     0.9368280     0.0127460
  C       -1.4402130    -0.2782400     0.0012850
  C        0.0310770     2.3081630    -0.0188960
  C        2.1451100    -1.4771990    -0.0107000
  C        2.8415060    -0.2700650     0.0090350
  H        0.1981450    -2.4017980    -0.0309650
  H        2.6907970     1.8755160     0.0309210
  H       -0.3505540     2.5311140    -1.0192600
  H       -0.8159800     2.3277740     0.6689790
  H        0.7236060     3.1036700     0.2672330
  H        2.6805350    -2.4229320    -0.0122850
  H        3.9287950    -0.2645730     0.0170060
units angstrom
no_reorient  #important for SAPT in psi4, default
symmetry c1  #important for SAPT in psi4, default
}

set PROPERTIES_ORIGIN ["COM"]
properties('MP2/aug-cc-pvtz', properties = ['dipole'])
--------------------------------------------------------------------------

    Molecular point group: c1
  Charge       = 0
  Multiplicity = 1
  Basis Set: AUG-CC-PVTZ
    Blend: AUG-CC-PVTZ
  Basis Set: (AUG-CC-PVTZ AUX)
    Blend: AUG-CC-PVTZ-JKFIT

    Orbital Energies [Eh]
    ---------------------

    Doubly Occupied:

       1A    -26.334861     2A    -26.332227     3A    -26.331284
       4A    -11.508894     5A    -11.269571     6A    -11.264844
       7A    -11.256946     8A    -11.255683     9A    -11.248628
      10A    -11.248001    11A    -11.234612    12A     -1.716958
      13A     -1.626230    14A     -1.623139    15A     -1.181993
      16A     -1.069637    17A     -1.057883    18A     -0.972652
      19A     -0.937920    20A     -0.860003    21A     -0.837374
      22A     -0.810969    23A     -0.803728    24A     -0.774915
      25A     -0.704232    26A     -0.703903    27A     -0.689094
      28A     -0.665893    29A     -0.656748    30A     -0.649518
      31A     -0.643836    32A     -0.634163    33A     -0.589815
      34A     -0.585165    35A     -0.579046    36A     -0.554300
      37A     -0.510662    38A     -0.510316    39A     -0.504160
      40A     -0.362170    41A     -0.343538

  @DF-RHF Final Energy:  -605.57733828383152

   => Energetics <=

    Nuclear Repulsion Energy =            631.9537628937659974
    One-Electron Energy =               -2088.1711842687782337
    Two-Electron Energy =                 850.6400830911807134
    Total Energy =                       -605.5773382838315229
  Basis Set: (AUG-CC-PVTZ AUX)
    Blend: AUG-CC-PVTZ-RI
    Molecular point group: c1

    Geometry (in Angstrom), charge = 0, multiplicity = 1:

       Center              X                  Y                   Z               Mass
    ------------   -----------------  -----------------  -----------------  -----------------
         F           -1.882425258660     0.509134404171    -0.994593047227    18.998403162730
         F           -1.850335258660    -1.491326595829    -0.142461047227    18.998403162730
         F           -1.846324258660     0.245284404171     1.166995952773    18.998403162730
         C            0.171420941340    -0.230619395829    -0.019204747227    12.000000000000
         C            0.832575741340     1.012832404171     0.007199952773    12.000000000000
         C            0.841810741340    -1.432674595829    -0.018515047227    12.000000000000
         C            2.231405741340     0.972408404171     0.012070952773    12.000000000000
         C           -1.349191258660    -0.242659595829     0.000609952773    12.000000000000
         C            0.122098741340     2.343743404171    -0.019571047227    12.000000000000
         C            2.236131741340    -1.441618595829    -0.011375047227    12.000000000000
         C            2.932527741340    -0.234484595829     0.008359952773    12.000000000000
         H            0.289166741340    -2.366217595829    -0.031640047227     1.007825032230
         H            2.781818741340     1.911096404171     0.030245952773     1.007825032230
         H           -0.259532258660     2.566694404171    -1.019935047227     1.007825032230
         H           -0.724958258660     2.363354404171     0.668303952773     1.007825032230
         H            0.814627741340     3.139250404171     0.266557952773     1.007825032230
         H            2.771556741340    -2.387351595829    -0.012960047227     1.007825032230
         H            4.019816741340    -0.228992595829     0.016330952773     1.007825032230

  Basis Set: AUG-CC-PVTZ
    Blend: AUG-CC-PVTZ
  Basis Set: (AUG-CC-PVTZ AUX)
    Blend: AUG-CC-PVTZ-JKFIT
	 Reference Energy          =    -605.5773382838315229 [Eh]
	 Singles Energy            =      -0.0000000000000000 [Eh]
	 Same-Spin Energy          =      -0.5631945386885638 [Eh]
	 Opposite-Spin Energy      =      -1.6970855929537467 [Eh]
	 Correlation Energy        =      -2.2602801316423107 [Eh]
	 Total Energy              =    -607.8376184154737984 [Eh]

	 ================> DF-SCS-MP2 Energies <==================
	-----------------------------------------------------------
	 SCS Same-Spin Scale       =       0.3333333333333333 [-]
	 SCS Opposite-Spin Scale   =       1.2000000000000000 [-]
	 SCS Same-Spin Energy      =      -0.1877315128961879 [Eh]
	 SCS Opposite-Spin Energy  =      -2.0365027115444958 [Eh]
	 SCS Correlation Energy    =      -2.2242342244406839 [Eh]
	 SCS Total Energy          =    -607.8015725082722156 [Eh]
	-----------------------------------------------------------

  Dipole Moment: [D]
     X:     2.5675      Y:     0.4409      Z:    -0.0632     Total:     2.6059

*** Psi4 exiting successfully. Buy a developer a beer!
