                               Psi4 1.4a3.dev225

  ==> Input File <==

--------------------------------------------------------------------------
#psi4
#
memory 32 gb

molecule  {
0 1
  F       -1.9734470     0.4735540    -0.9939180
  F       -1.9413570    -1.5269070    -0.1417860
  F       -1.9373460     0.2097040     1.1676710
  C        0.0587940    -0.2544720    -0.0183930
  C        0.7415540     0.9772520     0.0078750
  C        0.7507890    -1.4682550    -0.0178400
  C        2.1403840     0.9368280     0.0127460
  C       -1.4402130    -0.2782400     0.0012850
  C        0.0310770     2.3081630    -0.0188960
  C        2.1451100    -1.4771990    -0.0107000
  C        2.8415060    -0.2700650     0.0090350
  H        0.1981450    -2.4017980    -0.0309650
  H        2.6907970     1.8755160     0.0309210
  H       -0.3505540     2.5311140    -1.0192600
  H       -0.8311157     2.2983364     0.6501252
  H        0.7236060     3.1036700     0.2672330
  H        2.6805350    -2.4229320    -0.0122850
  H        3.9287950    -0.2645730     0.0170060
units angstrom
no_reorient  #important for SAPT in psi4, default
symmetry c1  #important for SAPT in psi4, default
}

set PROPERTIES_ORIGIN ["COM"]
properties('MP2/aug-cc-pvtz', properties = ['dipole'])
--------------------------------------------------------------------------

    Molecular point group: c1
  Charge       = 0
  Multiplicity = 1
  Basis Set: AUG-CC-PVTZ
    Blend: AUG-CC-PVTZ
  Basis Set: (AUG-CC-PVTZ AUX)
    Blend: AUG-CC-PVTZ-JKFIT

    Orbital Energies [Eh]
    ---------------------

    Doubly Occupied:

       1A    -26.335550     2A    -26.332053     3A    -26.331289
       4A    -11.508790     5A    -11.270199     6A    -11.264727
       7A    -11.259730     8A    -11.256610     9A    -11.248668
      10A    -11.248080    11A    -11.234043    12A     -1.717559
      13A     -1.626756    14A     -1.623445    15A     -1.180547
      16A     -1.072044    17A     -1.057056    18A     -0.973642
      19A     -0.937204    20A     -0.862110    21A     -0.836909
      22A     -0.811709    23A     -0.803898    24A     -0.774036
      25A     -0.704853    26A     -0.704345    27A     -0.689104
      28A     -0.666399    29A     -0.656976    30A     -0.648867
      31A     -0.644104    32A     -0.634659    33A     -0.589759
      34A     -0.583864    35A     -0.579441    36A     -0.556723
      37A     -0.509628    38A     -0.508530    39A     -0.506117
      40A     -0.360452    41A     -0.343958

  @DF-RHF Final Energy:  -605.57732179677168

   => Energetics <=

    Nuclear Repulsion Energy =            632.1507317235219716
    One-Electron Energy =               -2088.5472447569982251
    Two-Electron Energy =                 850.8191912367046825
    Total Energy =                       -605.5773217967716846
  Basis Set: (AUG-CC-PVTZ AUX)
    Blend: AUG-CC-PVTZ-RI
    Molecular point group: c1

    Geometry (in Angstrom), charge = 0, multiplicity = 1:

       Center              X                  Y                   Z               Mass
    ------------   -----------------  -----------------  -----------------  -----------------
         F           -1.880710066135     0.508440460651    -0.994484575291    18.998403162730
         F           -1.848620066135    -1.492020539349    -0.142352575291    18.998403162730
         F           -1.844609066135     0.244590460651     1.167104424709    18.998403162730
         C            0.151530933865    -0.219585539349    -0.018959575291    12.000000000000
         C            0.834290933865     1.012138460651     0.007308424709    12.000000000000
         C            0.843525933865    -1.433368539349    -0.018406575291    12.000000000000
         C            2.233120933865     0.971714460651     0.012179424709    12.000000000000
         C           -1.347476066135    -0.243353539349     0.000718424709    12.000000000000
         C            0.123813933865     2.343049460651    -0.019462575291    12.000000000000
         C            2.237846933865    -1.442312539349    -0.011266575291    12.000000000000
         C            2.934242933865    -0.235178539349     0.008468424709    12.000000000000
         H            0.290881933865    -2.366911539349    -0.031531575291     1.007825032230
         H            2.783533933865     1.910402460651     0.030354424709     1.007825032230
         H           -0.257817066135     2.566000460651    -1.019826575291     1.007825032230
         H           -0.738378766135     2.333222860651     0.649558624709     1.007825032230
         H            0.816342933865     3.138556460651     0.266666424709     1.007825032230
         H            2.773271933865    -2.388045539349    -0.012851575291     1.007825032230
         H            4.021531933865    -0.229686539349     0.016439424709     1.007825032230

  Basis Set: AUG-CC-PVTZ
    Blend: AUG-CC-PVTZ
  Basis Set: (AUG-CC-PVTZ AUX)
    Blend: AUG-CC-PVTZ-JKFIT
	 Reference Energy          =    -605.5773217967716846 [Eh]
	 Singles Energy            =      -0.0000000000000000 [Eh]
	 Same-Spin Energy          =      -0.5633823994308408 [Eh]
	 Opposite-Spin Energy      =      -1.6973710888703635 [Eh]
	 Correlation Energy        =      -2.2607534883012042 [Eh]
	 Total Energy              =    -607.8380752850729323 [Eh]

	 ================> DF-SCS-MP2 Energies <==================
	-----------------------------------------------------------
	 SCS Same-Spin Scale       =       0.3333333333333333 [-]
	 SCS Opposite-Spin Scale   =       1.2000000000000000 [-]
	 SCS Same-Spin Energy      =      -0.1877941331436136 [Eh]
	 SCS Opposite-Spin Energy  =      -2.0368453066444361 [Eh]
	 SCS Correlation Energy    =      -2.2246394397880498 [Eh]
	 SCS Total Energy          =    -607.8019612365596913 [Eh]
	-----------------------------------------------------------

  Dipole Moment: [D]
     X:     2.5879      Y:     0.4285      Z:    -0.0724     Total:     2.6241

*** Psi4 exiting successfully. Buy a developer a beer!
