                               Psi4 1.4a3.dev225

  ==> Input File <==

--------------------------------------------------------------------------
#psi4
#
memory 32 gb

molecule  {
0 1
  F       -1.9734470     0.4735540    -0.9939180
  F       -1.9413570    -1.5269070    -0.1417860
  F       -1.9373460     0.2097040     1.1676710
  C        0.0587940    -0.2544720    -0.0183930
  C        0.7415540     0.9772520     0.0078750
  C        0.7507890    -1.4682550    -0.0178400
  C        2.1403840     0.9368280     0.0127460
  C       -1.4795239    -0.2228164    -0.0720831
  C        0.0310770     2.3081630    -0.0188960
  C        2.1451100    -1.4771990    -0.0107000
  C        2.8415060    -0.2700650     0.0090350
  H        0.1981450    -2.4017980    -0.0309650
  H        2.6907970     1.8755160     0.0309210
  H       -0.3505540     2.5311140    -1.0192600
  H       -0.8159800     2.3277740     0.6689790
  H        0.7236060     3.1036700     0.2672330
  H        2.6805350    -2.4229320    -0.0122850
  H        3.9287950    -0.2645730     0.0170060
units angstrom
no_reorient  #important for SAPT in psi4, default
symmetry c1  #important for SAPT in psi4, default
}

set PROPERTIES_ORIGIN ["COM"]
properties('MP2/aug-cc-pvtz', properties = ['dipole'])
--------------------------------------------------------------------------

    Molecular point group: c1
  Charge       = 0
  Multiplicity = 1
  Basis Set: AUG-CC-PVTZ
    Blend: AUG-CC-PVTZ
  Basis Set: (AUG-CC-PVTZ AUX)
    Blend: AUG-CC-PVTZ-JKFIT

    Orbital Energies [Eh]
    ---------------------

    Doubly Occupied:

       1A    -26.371607     2A    -26.321616     3A    -26.317901
       4A    -11.510313     5A    -11.266642     6A    -11.264434
       7A    -11.256278     8A    -11.253355     9A    -11.246708
      10A    -11.246064    11A    -11.235159    12A     -1.752916
      13A     -1.642635    14A     -1.604001    15A     -1.176225
      16A     -1.068066    17A     -1.051505    18A     -0.976516
      19A     -0.941214    20A     -0.867835    21A     -0.839182
      22A     -0.826604    23A     -0.814595    24A     -0.780320
      25A     -0.715542    26A     -0.698335    27A     -0.686658
      28A     -0.672255    29A     -0.658085    30A     -0.646152
      31A     -0.637502    32A     -0.630291    33A     -0.586740
      34A     -0.584831    35A     -0.574323    36A     -0.553945
      37A     -0.506904    38A     -0.506112    39A     -0.500849
      40A     -0.356435    41A     -0.342192

  @DF-RHF Final Energy:  -605.56865624945146

   => Energetics <=

    Nuclear Repulsion Energy =            632.1181279569470917
    One-Electron Energy =               -2088.3958819456170204
    Two-Electron Energy =                 850.7090977392184641
    Total Energy =                       -605.5686562494514646
  Basis Set: (AUG-CC-PVTZ AUX)
    Blend: AUG-CC-PVTZ-RI
    Molecular point group: c1

    Geometry (in Angstrom), charge = 0, multiplicity = 1:

       Center              X                  Y                   Z               Mass
    ------------   -----------------  -----------------  -----------------  -----------------
         F           -1.877857977999     0.504099622060    -0.989102407527    18.998403162730
         F           -1.845767977999    -1.496361377940    -0.136970407527    18.998403162730
         F           -1.841756977999     0.240249622060     1.172486592473    18.998403162730
         C            0.154383022001    -0.223926377940    -0.013577407527    12.000000000000
         C            0.837143022001     1.007797622060     0.012690592473    12.000000000000
         C            0.846378022001    -1.437709377940    -0.013024407527    12.000000000000
         C            2.235973022001     0.967373622060     0.017561592473    12.000000000000
         C           -1.383934877999    -0.192270777940    -0.067267507527    12.000000000000
         C            0.126666022001     2.338708622060    -0.014080407527    12.000000000000
         C            2.240699022001    -1.446653377940    -0.005884407527    12.000000000000
         C            2.937095022001    -0.239519377940     0.013850592473    12.000000000000
         H            0.293734022001    -2.371252377940    -0.026149407527     1.007825032230
         H            2.786386022001     1.906061622060     0.035736592473     1.007825032230
         H           -0.254964977999     2.561659622060    -1.014444407527     1.007825032230
         H           -0.720390977999     2.358319622060     0.673794592473     1.007825032230
         H            0.819195022001     3.134215622060     0.272048592473     1.007825032230
         H            2.776124022001    -2.392386377940    -0.007469407527     1.007825032230
         H            4.024384022001    -0.234027377940     0.021821592473     1.007825032230

  Basis Set: AUG-CC-PVTZ
    Blend: AUG-CC-PVTZ
  Basis Set: (AUG-CC-PVTZ AUX)
    Blend: AUG-CC-PVTZ-JKFIT
	 Reference Energy          =    -605.5686562494514646 [Eh]
	 Singles Energy            =      -0.0000000000000000 [Eh]
	 Same-Spin Energy          =      -0.5632103989031492 [Eh]
	 Opposite-Spin Energy      =      -1.6966879570634386 [Eh]
	 Correlation Energy        =      -2.2598983559665875 [Eh]
	 Total Energy              =    -607.8285546054180486 [Eh]

	 ================> DF-SCS-MP2 Energies <==================
	-----------------------------------------------------------
	 SCS Same-Spin Scale       =       0.3333333333333333 [-]
	 SCS Opposite-Spin Scale   =       1.2000000000000000 [-]
	 SCS Same-Spin Energy      =      -0.1877367996343831 [Eh]
	 SCS Opposite-Spin Energy  =      -2.0360255484761263 [Eh]
	 SCS Correlation Energy    =      -2.2237623481105091 [Eh]
	 SCS Total Energy          =    -607.7924185975620048 [Eh]
	-----------------------------------------------------------

  Dipole Moment: [D]
     X:     2.2311      Y:     0.8197      Z:    -0.6127     Total:     2.4547

*** Psi4 exiting successfully. Buy a developer a beer!
