                               Psi4 1.4a3.dev225

  ==> Input File <==

--------------------------------------------------------------------------
#psi4
#
memory 32 gb

molecule  {
0 1
  F       -1.9734470     0.4735540    -0.9939180
  F       -1.9413570    -1.5269070    -0.1417860
  F       -1.9373460     0.2097040     1.1676710
  C        0.0587940    -0.2544720    -0.0183930
  C        0.7415540     0.9772520     0.0078750
  C        0.7507890    -1.4682550    -0.0178400
  C        2.1403840     0.9368280     0.0127460
  C       -1.4402130    -0.2782400     0.0012850
  C       -0.0630937     2.4845696    -0.0224444
  C        2.1451100    -1.4771990    -0.0107000
  C        2.8415060    -0.2700650     0.0090350
  H        0.1981450    -2.4017980    -0.0309650
  H        2.6907970     1.8755160     0.0309210
  H       -0.3505540     2.5311140    -1.0192600
  H       -0.8159800     2.3277740     0.6689790
  H        0.7236060     3.1036700     0.2672330
  H        2.6805350    -2.4229320    -0.0122850
  H        3.9287950    -0.2645730     0.0170060
units angstrom
no_reorient  #important for SAPT in psi4, default
symmetry c1  #important for SAPT in psi4, default
}

set PROPERTIES_ORIGIN ["COM"]
properties('MP2/aug-cc-pvtz', properties = ['dipole'])
--------------------------------------------------------------------------

    Molecular point group: c1
  Charge       = 0
  Multiplicity = 1
  Basis Set: AUG-CC-PVTZ
    Blend: AUG-CC-PVTZ
  Basis Set: (AUG-CC-PVTZ AUX)
    Blend: AUG-CC-PVTZ-JKFIT

    Orbital Energies [Eh]
    ---------------------

    Doubly Occupied:

       1A    -26.335021     2A    -26.332142     3A    -26.331477
       4A    -11.508051     5A    -11.274248     6A    -11.264193
       7A    -11.258649     8A    -11.255856     9A    -11.248018
      10A    -11.247905    11A    -11.236568    12A     -1.717335
      13A     -1.626429    14A     -1.623452    15A     -1.175139
      16A     -1.067539    17A     -1.044616    18A     -0.973029
      19A     -0.942963    20A     -0.860141    21A     -0.837931
      22A     -0.811561    23A     -0.802856    24A     -0.773334
      25A     -0.704616    26A     -0.703987    27A     -0.685130
      28A     -0.665643    29A     -0.657104    30A     -0.645661
      31A     -0.644270    32A     -0.630581    33A     -0.608278
      34A     -0.590426    35A     -0.584222    36A     -0.559756
      37A     -0.514519    38A     -0.512492    39A     -0.465764
      40A     -0.359386    41A     -0.346283

  @DF-RHF Final Energy:  -605.55088565183166

   => Energetics <=

    Nuclear Repulsion Energy =            628.4877903186185222
    One-Electron Energy =               -2081.2242100848566224
    Two-Electron Energy =                 847.1855341144065505
    Total Energy =                       -605.5508856518316634
  Basis Set: (AUG-CC-PVTZ AUX)
    Blend: AUG-CC-PVTZ-RI
    Molecular point group: c1

    Geometry (in Angstrom), charge = 0, multiplicity = 1:

       Center              X                  Y                   Z               Mass
    ------------   -----------------  -----------------  -----------------  -----------------
         F           -1.873744777981     0.495028730846    -0.994337249639    18.998403162730
         F           -1.841654777981    -1.505432269154    -0.142205249639    18.998403162730
         F           -1.837643777981     0.231178730846     1.167251750361    18.998403162730
         C            0.158496222019    -0.232997269154    -0.018812249639    12.000000000000
         C            0.841256222019     0.998726730846     0.007455750361    12.000000000000
         C            0.850491222019    -1.446780269154    -0.018259249639    12.000000000000
         C            2.240086222019     0.958302730846     0.012326750361    12.000000000000
         C           -1.340510777981    -0.256765269154     0.000865750361    12.000000000000
         C            0.036608522019     2.506044330846    -0.022863649639    12.000000000000
         C            2.244812222019    -1.455724269154    -0.011119249639    12.000000000000
         C            2.941208222019    -0.248590269154     0.008615750361    12.000000000000
         H            0.297847222019    -2.380323269154    -0.031384249639     1.007825032230
         H            2.790499222019     1.896990730846     0.030501750361     1.007825032230
         H           -0.250851777981     2.552588730846    -1.019679249639     1.007825032230
         H           -0.716277777981     2.349248730846     0.668559750361     1.007825032230
         H            0.823308222019     3.125144730846     0.266813750361     1.007825032230
         H            2.780237222019    -2.401457269154    -0.012704249639     1.007825032230
         H            4.028497222019    -0.243098269154     0.016586750361     1.007825032230

  Basis Set: AUG-CC-PVTZ
    Blend: AUG-CC-PVTZ
  Basis Set: (AUG-CC-PVTZ AUX)
    Blend: AUG-CC-PVTZ-JKFIT
	 Reference Energy          =    -605.5508856518316634 [Eh]
	 Singles Energy            =      -0.0000000000000000 [Eh]
	 Same-Spin Energy          =      -0.5629022838230127 [Eh]
	 Opposite-Spin Energy      =      -1.6980755671232814 [Eh]
	 Correlation Energy        =      -2.2609778509462943 [Eh]
	 Total Energy              =    -607.8118635027780101 [Eh]

	 ================> DF-SCS-MP2 Energies <==================
	-----------------------------------------------------------
	 SCS Same-Spin Scale       =       0.3333333333333333 [-]
	 SCS Opposite-Spin Scale   =       1.2000000000000000 [-]
	 SCS Same-Spin Energy      =      -0.1876340946076709 [Eh]
	 SCS Opposite-Spin Energy  =      -2.0376906805479376 [Eh]
	 SCS Correlation Energy    =      -2.2253247751556082 [Eh]
	 SCS Total Energy          =    -607.7762104269872907 [Eh]
	-----------------------------------------------------------

  Dipole Moment: [D]
     X:     2.6335      Y:     0.3925      Z:    -0.0594     Total:     2.6632

*** Psi4 exiting successfully. Buy a developer a beer!
