                               Psi4 1.4a3.dev225

  ==> Input File <==

--------------------------------------------------------------------------
#psi4
#
memory 32 gb

molecule  {
0 1
  F       -1.9734470     0.4735540    -0.9939180
  F       -1.9413570    -1.5269070    -0.1417860
  F       -1.9373460     0.2097040     1.1676710
  C        0.0587940    -0.2544720    -0.0183930
  C        0.7415540     0.9772520     0.0078750
  C        0.7507890    -1.4682550    -0.0178400
  C        2.1403840     0.9368280     0.0127460
  C       -1.4402130    -0.2782400     0.0012850
  C        0.0310770     2.3081630    -0.0188960
  C        2.1451100    -1.4771990    -0.0107000
  C        2.8415060    -0.2700650     0.0090350
  H        0.1981450    -2.4017980    -0.0309650
  H        2.6907970     1.8755160     0.0309210
  H       -0.3505540     2.5311140    -1.0192600
  H       -0.7644609     2.4158000     0.7204253
  H        0.7236060     3.1036700     0.2672330
  H        2.6805350    -2.4229320    -0.0122850
  H        3.9287950    -0.2645730     0.0170060
units angstrom
no_reorient  #important for SAPT in psi4, default
symmetry c1  #important for SAPT in psi4, default
}

set PROPERTIES_ORIGIN ["COM"]
properties('MP2/aug-cc-pvtz', properties = ['dipole'])
--------------------------------------------------------------------------

    Molecular point group: c1
  Charge       = 0
  Multiplicity = 1
  Basis Set: AUG-CC-PVTZ
    Blend: AUG-CC-PVTZ
  Basis Set: (AUG-CC-PVTZ AUX)
    Blend: AUG-CC-PVTZ-JKFIT

    Orbital Energies [Eh]
    ---------------------

    Doubly Occupied:

       1A    -26.335053     2A    -26.331219     3A    -26.330095
       4A    -11.508178     5A    -11.270836     6A    -11.265016
       7A    -11.259682     8A    -11.256700     9A    -11.249191
      10A    -11.248689    11A    -11.233775    12A     -1.716656
      13A     -1.626049    14A     -1.622280    15A     -1.180585
      16A     -1.071732    17A     -1.057015    18A     -0.973339
      19A     -0.937173    20A     -0.861511    21A     -0.837496
      22A     -0.810785    23A     -0.803170    24A     -0.774084
      25A     -0.703914    26A     -0.703675    27A     -0.689427
      28A     -0.664637    29A     -0.656126    30A     -0.648209
      31A     -0.643088    32A     -0.634754    33A     -0.591186
      34A     -0.589162    35A     -0.581657    36A     -0.545328
      37A     -0.510477    38A     -0.508459    39A     -0.505931
      40A     -0.360484    41A     -0.345124

  @DF-RHF Final Energy:  -605.57644504707218

   => Energetics <=

    Nuclear Repulsion Energy =            631.7703107848196851
    One-Electron Energy =               -2087.8096219053236382
    Two-Electron Energy =                 850.4628660734317691
    Total Energy =                       -605.5764450470721840
  Basis Set: (AUG-CC-PVTZ AUX)
    Blend: AUG-CC-PVTZ-RI
    Molecular point group: c1

    Geometry (in Angstrom), charge = 0, multiplicity = 1:

       Center              X                  Y                   Z               Mass
    ------------   -----------------  -----------------  -----------------  -----------------
         F           -1.881129787362     0.507700799496    -0.994927250751    18.998403162730
         F           -1.849039787362    -1.492760200504    -0.142795250751    18.998403162730
         F           -1.845028787362     0.243850799496     1.166661749249    18.998403162730
         C            0.151111212638    -0.220325200504    -0.019402250751    12.000000000000
         C            0.833871212638     1.011398799496     0.006865749249    12.000000000000
         C            0.843106212638    -1.434108200504    -0.018849250751    12.000000000000
         C            2.232701212638     0.970974799496     0.011736749249    12.000000000000
         C           -1.347895787362    -0.244093200504     0.000275749249    12.000000000000
         C            0.123394212638     2.342309799496    -0.019905250751    12.000000000000
         C            2.237427212638    -1.443052200504    -0.011709250751    12.000000000000
         C            2.933823212638    -0.235918200504     0.008025749249    12.000000000000
         H            0.290462212638    -2.367651200504    -0.031974250751     1.007825032230
         H            2.783114212638     1.909662799496     0.029911749249     1.007825032230
         H           -0.258236787362     2.565260799496    -1.020269250751     1.007825032230
         H           -0.672143687362     2.449946799496     0.719416049249     1.007825032230
         H            0.815923212638     3.137816799496     0.266223749249     1.007825032230
         H            2.772852212638    -2.388785200504    -0.013294250751     1.007825032230
         H            4.021112212638    -0.230426200504     0.015996749249     1.007825032230

  Basis Set: AUG-CC-PVTZ
    Blend: AUG-CC-PVTZ
  Basis Set: (AUG-CC-PVTZ AUX)
    Blend: AUG-CC-PVTZ-JKFIT
	 Reference Energy          =    -605.5764450470721840 [Eh]
	 Singles Energy            =      -0.0000000000000000 [Eh]
	 Same-Spin Energy          =      -0.5633037710819708 [Eh]
	 Opposite-Spin Energy      =      -1.6973152372476688 [Eh]
	 Correlation Energy        =      -2.2606190083296394 [Eh]
	 Total Energy              =    -607.8370640554018109 [Eh]

	 ================> DF-SCS-MP2 Energies <==================
	-----------------------------------------------------------
	 SCS Same-Spin Scale       =       0.3333333333333333 [-]
	 SCS Opposite-Spin Scale   =       1.2000000000000000 [-]
	 SCS Same-Spin Energy      =      -0.1877679236939903 [Eh]
	 SCS Opposite-Spin Energy  =      -2.0367782846972022 [Eh]
	 SCS Correlation Energy    =      -2.2245462083911924 [Eh]
	 SCS Total Energy          =    -607.8009912554633729 [Eh]
	-----------------------------------------------------------

  Dipole Moment: [D]
     X:     2.6254      Y:     0.4494      Z:    -0.0337     Total:     2.6637

*** Psi4 exiting successfully. Buy a developer a beer!
