                               Psi4 1.4a3.dev225

  ==> Input File <==

--------------------------------------------------------------------------
#psi4
#
memory 32 gb

molecule  {
0 1
  F       -1.9734470     0.4735540    -0.9939180
  F       -1.9413570    -1.5269070    -0.1417860
  F       -1.9373460     0.2097040     1.1676710
  C        0.0587940    -0.2544720    -0.0183930
  C        0.7415540     0.9772520     0.0078750
  C        0.7507890    -1.4682550    -0.0178400
  C        2.1403840     0.9368280     0.0127460
  C       -1.4402130    -0.2782400     0.0012850
  C        0.0310770     2.3081630    -0.0188960
  C        2.1451100    -1.4771990    -0.0107000
  C        2.8415060    -0.2700650     0.0090350
  H        0.1981450    -2.4017980    -0.0309650
  H        2.6907970     1.8755160     0.0309210
  H       -0.3505540     2.5311140    -1.0192600
  H       -0.8159800     2.3277740     0.6689790
  H        0.7236060     3.1036700     0.2672330
  H        2.7790691    -2.5969749    -0.0125767
  H        3.9287950    -0.2645730     0.0170060
units angstrom
no_reorient  #important for SAPT in psi4, default
symmetry c1  #important for SAPT in psi4, default
}

set PROPERTIES_ORIGIN ["COM"]
properties('MP2/aug-cc-pvtz', properties = ['dipole'])
--------------------------------------------------------------------------

    Molecular point group: c1
  Charge       = 0
  Multiplicity = 1
  Basis Set: AUG-CC-PVTZ
    Blend: AUG-CC-PVTZ
  Basis Set: (AUG-CC-PVTZ AUX)
    Blend: AUG-CC-PVTZ-JKFIT

    Orbital Energies [Eh]
    ---------------------

    Doubly Occupied:

       1A    -26.336099     2A    -26.332610     3A    -26.331743
       4A    -11.509661     5A    -11.271389     6A    -11.270353
       7A    -11.266410     8A    -11.261895     9A    -11.258848
      10A    -11.249893    11A    -11.234720    12A     -1.718054
      13A     -1.627266    14A     -1.623881    15A     -1.181567
      16A     -1.071005    17A     -1.057402    18A     -0.973829
      19A     -0.934735    20A     -0.863089    21A     -0.835838
      22A     -0.812205    23A     -0.804091    24A     -0.765499
      25A     -0.705269    26A     -0.704538    27A     -0.684307
      28A     -0.666345    29A     -0.657458    30A     -0.647391
      31A     -0.644544    32A     -0.630525    33A     -0.588767
      34A     -0.585447    35A     -0.565466    36A     -0.554946
      37A     -0.510629    38A     -0.510027    39A     -0.493737
      40A     -0.361921    41A     -0.345574

  @DF-RHF Final Energy:  -605.55527789122425

   => Energetics <=

    Nuclear Repulsion Energy =            631.0914413353067403
    One-Electron Energy =               -2086.3954955416811572
    Two-Electron Energy =                 849.7487763151502804
    Total Energy =                       -605.5552778912242502
  Basis Set: (AUG-CC-PVTZ AUX)
    Blend: AUG-CC-PVTZ-RI
    Molecular point group: c1

    Geometry (in Angstrom), charge = 0, multiplicity = 1:

       Center              X                  Y                   Z               Mass
    ------------   -----------------  -----------------  -----------------  -----------------
         F           -1.881425837961     0.509351031441    -0.994601459708    18.998403162730
         F           -1.849335837961    -1.491109968559    -0.142469459708    18.998403162730
         F           -1.845324837961     0.245501031441     1.166987540292    18.998403162730
         C            0.150815162039    -0.218674968559    -0.019076459708    12.000000000000
         C            0.833575162039     1.013049031441     0.007191540292    12.000000000000
         C            0.842810162039    -1.432457968559    -0.018523459708    12.000000000000
         C            2.232405162039     0.972625031441     0.012062540292    12.000000000000
         C           -1.348191837961    -0.242442968559     0.000601540292    12.000000000000
         C            0.123098162039     2.343960031441    -0.019579459708    12.000000000000
         C            2.237131162039    -1.441401968559    -0.011383459708    12.000000000000
         C            2.933527162039    -0.234267968559     0.008351540292    12.000000000000
         H            0.290166162039    -2.366000968559    -0.031648459708     1.007825032230
         H            2.782818162039     1.911313031441     0.030237540292     1.007825032230
         H           -0.258532837961     2.566911031441    -1.019943459708     1.007825032230
         H           -0.723958837961     2.363571031441     0.668295540292     1.007825032230
         H            0.815627162039     3.139467031441     0.266549540292     1.007825032230
         H            2.871090262039    -2.561177868559    -0.013260159708     1.007825032230
         H            4.020816162039    -0.228775968559     0.016322540292     1.007825032230

  Basis Set: AUG-CC-PVTZ
    Blend: AUG-CC-PVTZ
  Basis Set: (AUG-CC-PVTZ AUX)
    Blend: AUG-CC-PVTZ-JKFIT
	 Reference Energy          =    -605.5552778912242502 [Eh]
	 Singles Energy            =      -0.0000000000000000 [Eh]
	 Same-Spin Energy          =      -0.5637963850904812 [Eh]
	 Opposite-Spin Energy      =      -1.6995000721591487 [Eh]
	 Correlation Energy        =      -2.2632964572496297 [Eh]
	 Total Energy              =    -607.8185743484739305 [Eh]

	 ================> DF-SCS-MP2 Energies <==================
	-----------------------------------------------------------
	 SCS Same-Spin Scale       =       0.3333333333333333 [-]
	 SCS Opposite-Spin Scale   =       1.2000000000000000 [-]
	 SCS Same-Spin Energy      =      -0.1879321283634937 [Eh]
	 SCS Opposite-Spin Energy  =      -2.0394000865909785 [Eh]
	 SCS Correlation Energy    =      -2.2273322149544721 [Eh]
	 SCS Total Energy          =    -607.7826101061787085 [Eh]
	-----------------------------------------------------------

  Dipole Moment: [D]
     X:     2.5423      Y:     0.5132      Z:    -0.0621     Total:     2.5943

*** Psi4 exiting successfully. Buy a developer a beer!
