                               Psi4 1.4a3.dev225

  ==> Input File <==

--------------------------------------------------------------------------
#psi4
#
memory 32 gb

molecule  {
0 1
  F       -1.9734470     0.4735540    -0.9939180
  F       -1.9413570    -1.5269070    -0.1417860
  F       -1.9373460     0.2097040     1.1676710
  C        0.0587940    -0.2544720    -0.0183930
  C        0.7415540     0.9772520     0.0078750
  C        0.7507890    -1.4682550    -0.0178400
  C        2.1403840     0.9368280     0.0127460
  C       -1.4205575    -0.3059518     0.0379691
  C        0.0310770     2.3081630    -0.0188960
  C        2.1451100    -1.4771990    -0.0107000
  C        2.8415060    -0.2700650     0.0090350
  H        0.1981450    -2.4017980    -0.0309650
  H        2.6907970     1.8755160     0.0309210
  H       -0.3505540     2.5311140    -1.0192600
  H       -0.8159800     2.3277740     0.6689790
  H        0.7236060     3.1036700     0.2672330
  H        2.6805350    -2.4229320    -0.0122850
  H        3.9287950    -0.2645730     0.0170060
units angstrom
no_reorient  #important for SAPT in psi4, default
symmetry c1  #important for SAPT in psi4, default
}

set PROPERTIES_ORIGIN ["COM"]
properties('MP2/aug-cc-pvtz', properties = ['dipole'])
--------------------------------------------------------------------------

    Molecular point group: c1
  Charge       = 0
  Multiplicity = 1
  Basis Set: AUG-CC-PVTZ
    Blend: AUG-CC-PVTZ
  Basis Set: (AUG-CC-PVTZ AUX)
    Blend: AUG-CC-PVTZ-JKFIT

    Orbital Energies [Eh]
    ---------------------

    Doubly Occupied:

       1A    -26.341752     2A    -26.336989     3A    -26.312113
       4A    -11.508960     5A    -11.272324     6A    -11.265270
       7A    -11.261513     8A    -11.258364     9A    -11.249907
      10A    -11.249401    11A    -11.233415    12A     -1.716690
      13A     -1.634976    14A     -1.601943    15A     -1.182911
      16A     -1.074618    17A     -1.059513    18A     -0.974057
      19A     -0.936739    20A     -0.863280    21A     -0.838873
      22A     -0.809118    23A     -0.799577    24A     -0.773973
      25A     -0.706766    26A     -0.697864    27A     -0.688083
      28A     -0.667878    29A     -0.653561    30A     -0.646852
      31A     -0.636941    32A     -0.632958    33A     -0.592231
      34A     -0.585076    35A     -0.581346    36A     -0.553729
      37A     -0.512228    38A     -0.509991    39A     -0.507103
      40A     -0.362415    41A     -0.345343

  @DF-RHF Final Energy:  -605.57414423030048

   => Energetics <=

    Nuclear Repulsion Energy =            632.0257488409794178
    One-Electron Energy =               -2088.3265080891851539
    Two-Electron Energy =                 850.7266150179053739
    Total Energy =                       -605.5741442303004760
  Basis Set: (AUG-CC-PVTZ AUX)
    Blend: AUG-CC-PVTZ-RI
    Molecular point group: c1

    Geometry (in Angstrom), charge = 0, multiplicity = 1:

       Center              X                  Y                   Z               Mass
    ------------   -----------------  -----------------  -----------------  -----------------
         F           -1.882279076828     0.510332829778    -0.997353744772    18.998403162730
         F           -1.850189076828    -1.490128170222    -0.145221744772    18.998403162730
         F           -1.846178076828     0.246482829778     1.164235255228    18.998403162730
         C            0.149961923172    -0.217693170222    -0.021828744772    12.000000000000
         C            0.832721923172     1.014030829778     0.004439255228    12.000000000000
         C            0.841956923172    -1.431476170222    -0.021275744772    12.000000000000
         C            2.231551923172     0.973606829778     0.009310255228    12.000000000000
         C           -1.329389576828    -0.269172970222     0.034533355228    12.000000000000
         C            0.122244923172     2.344941829778    -0.022331744772    12.000000000000
         C            2.236277923172    -1.440420170222    -0.014135744772    12.000000000000
         C            2.932673923172    -0.233286170222     0.005599255228    12.000000000000
         H            0.289312923172    -2.365019170222    -0.034400744772     1.007825032230
         H            2.781964923172     1.912294829778     0.027485255228     1.007825032230
         H           -0.259386076828     2.567892829778    -1.022695744772     1.007825032230
         H           -0.724812076828     2.364552829778     0.665543255228     1.007825032230
         H            0.814773923172     3.140448829778     0.263797255228     1.007825032230
         H            2.771702923172    -2.386153170222    -0.015720744772     1.007825032230
         H            4.019962923172    -0.227794170222     0.013570255228     1.007825032230

  Basis Set: AUG-CC-PVTZ
    Blend: AUG-CC-PVTZ
  Basis Set: (AUG-CC-PVTZ AUX)
    Blend: AUG-CC-PVTZ-JKFIT
	 Reference Energy          =    -605.5741442303004760 [Eh]
	 Singles Energy            =      -0.0000000000000000 [Eh]
	 Same-Spin Energy          =      -0.5636820050461684 [Eh]
	 Opposite-Spin Energy      =      -1.6981482525698701 [Eh]
	 Correlation Energy        =      -2.2618302576160385 [Eh]
	 Total Energy              =    -607.8359744879164737 [Eh]

	 ================> DF-SCS-MP2 Energies <==================
	-----------------------------------------------------------
	 SCS Same-Spin Scale       =       0.3333333333333333 [-]
	 SCS Opposite-Spin Scale   =       1.2000000000000000 [-]
	 SCS Same-Spin Energy      =      -0.1878940016820561 [Eh]
	 SCS Opposite-Spin Energy  =      -2.0377779030838439 [Eh]
	 SCS Correlation Energy    =      -2.2256719047659002 [Eh]
	 SCS Total Energy          =    -607.7998161350664077 [Eh]
	-----------------------------------------------------------

  Dipole Moment: [D]
     X:     2.7835      Y:     0.2481      Z:     0.2028     Total:     2.8019

*** Psi4 exiting successfully. Buy a developer a beer!
