                               Psi4 1.4a3.dev225

  ==> Input File <==

--------------------------------------------------------------------------
#psi4
#
memory 32 gb

molecule  {
0 1
  F       -1.9734470     0.4735540    -0.9939180
  F       -1.9413570    -1.5269070    -0.1417860
  F       -1.9373460     0.2097040     1.1676710
  C       -0.0254822    -0.2038463    -0.0177665
  C        0.7415540     0.9772520     0.0078750
  C        0.7507890    -1.4682550    -0.0178400
  C        2.1403840     0.9368280     0.0127460
  C       -1.4402130    -0.2782400     0.0012850
  C        0.0310770     2.3081630    -0.0188960
  C        2.1451100    -1.4771990    -0.0107000
  C        2.8415060    -0.2700650     0.0090350
  H        0.1981450    -2.4017980    -0.0309650
  H        2.6907970     1.8755160     0.0309210
  H       -0.3505540     2.5311140    -1.0192600
  H       -0.8159800     2.3277740     0.6689790
  H        0.7236060     3.1036700     0.2672330
  H        2.6805350    -2.4229320    -0.0122850
  H        3.9287950    -0.2645730     0.0170060
units angstrom
no_reorient  #important for SAPT in psi4, default
symmetry c1  #important for SAPT in psi4, default
}

set PROPERTIES_ORIGIN ["COM"]
properties('MP2/aug-cc-pvtz', properties = ['dipole'])
--------------------------------------------------------------------------

    Molecular point group: c1
  Charge       = 0
  Multiplicity = 1
  Basis Set: AUG-CC-PVTZ
    Blend: AUG-CC-PVTZ
  Basis Set: (AUG-CC-PVTZ AUX)
    Blend: AUG-CC-PVTZ-JKFIT

    Orbital Energies [Eh]
    ---------------------

    Doubly Occupied:

       1A    -26.337144     2A    -26.329245     3A    -26.328843
       4A    -11.505605     5A    -11.274310     6A    -11.270597
       7A    -11.264260     8A    -11.260782     9A    -11.249905
      10A    -11.249558    11A    -11.231545    12A     -1.718146
      13A     -1.627279    14A     -1.622372    15A     -1.176868
      16A     -1.083299    17A     -1.055335    18A     -0.976612
      19A     -0.933410    20A     -0.868962    21A     -0.836433
      22A     -0.812950    23A     -0.803820    24A     -0.770074
      25A     -0.705745    26A     -0.704611    27A     -0.689989
      28A     -0.665682    29A     -0.656106    30A     -0.648333
      31A     -0.643048    32A     -0.634616    33A     -0.590193
      34A     -0.586127    35A     -0.583091    36A     -0.552470
      37A     -0.519297    38A     -0.503176    39A     -0.495988
      40A     -0.355422    41A     -0.346373

  @DF-RHF Final Energy:  -605.56268742314671

   => Energetics <=

    Nuclear Repulsion Energy =            632.5456035473065413
    One-Electron Energy =               -2089.2813364072044351
    Two-Electron Energy =                 851.1730454367510674
    Total Energy =                       -605.5626874231467127
  Basis Set: (AUG-CC-PVTZ AUX)
    Blend: AUG-CC-PVTZ-RI
    Molecular point group: c1

    Geometry (in Angstrom), charge = 0, multiplicity = 1:

       Center              X                  Y                   Z               Mass
    ------------   -----------------  -----------------  -----------------  -----------------
         F           -1.874486633722     0.504459352178    -0.994650269350    18.998403162730
         F           -1.842396633722    -1.496001647822    -0.142518269350    18.998403162730
         F           -1.838385633722     0.240609352178     1.166938730650    18.998403162730
         C            0.073478166278    -0.172940947822    -0.018498769350    12.000000000000
         C            0.840514366278     1.008157352178     0.007142730650    12.000000000000
         C            0.849749366278    -1.437349647822    -0.018572269350    12.000000000000
         C            2.239344366278     0.967733352178     0.012013730650    12.000000000000
         C           -1.341252633722    -0.247334647822     0.000552730650    12.000000000000
         C            0.130037366278     2.339068352178    -0.019628269350    12.000000000000
         C            2.244070366278    -1.446293647822    -0.011432269350    12.000000000000
         C            2.940466366278    -0.239159647822     0.008302730650    12.000000000000
         H            0.297105366278    -2.370892647822    -0.031697269350     1.007825032230
         H            2.789757366278     1.906421352178     0.030188730650     1.007825032230
         H           -0.251593633722     2.562019352178    -1.019992269350     1.007825032230
         H           -0.717019633722     2.358679352178     0.668246730650     1.007825032230
         H            0.822566366278     3.134575352178     0.266500730650     1.007825032230
         H            2.779495366278    -2.392026647822    -0.013017269350     1.007825032230
         H            4.027755366278    -0.233667647822     0.016273730650     1.007825032230

  Basis Set: AUG-CC-PVTZ
    Blend: AUG-CC-PVTZ
  Basis Set: (AUG-CC-PVTZ AUX)
    Blend: AUG-CC-PVTZ-JKFIT
	 Reference Energy          =    -605.5626874231467127 [Eh]
	 Singles Energy            =      -0.0000000000000000 [Eh]
	 Same-Spin Energy          =      -0.5643321076250382 [Eh]
	 Opposite-Spin Energy      =      -1.6992764682878319 [Eh]
	 Correlation Energy        =      -2.2636085759128699 [Eh]
	 Total Energy              =    -607.8262959990595391 [Eh]

	 ================> DF-SCS-MP2 Energies <==================
	-----------------------------------------------------------
	 SCS Same-Spin Scale       =       0.3333333333333333 [-]
	 SCS Opposite-Spin Scale   =       1.2000000000000000 [-]
	 SCS Same-Spin Energy      =      -0.1881107025416794 [Eh]
	 SCS Opposite-Spin Energy  =      -2.0391317619453981 [Eh]
	 SCS Correlation Energy    =      -2.2272424644870776 [Eh]
	 SCS Total Energy          =    -607.7899298876337753 [Eh]
	-----------------------------------------------------------

  Dipole Moment: [D]
     X:     2.7394      Y:     0.3984      Z:    -0.0608     Total:     2.7688

*** Psi4 exiting successfully. Buy a developer a beer!
