                               Psi4 1.4a3.dev225

  ==> Input File <==

--------------------------------------------------------------------------
#psi4
#
memory 32 gb

molecule  {
0 1
  F       -1.9734470     0.4735540    -0.9939180
  F       -1.9413570    -1.5269070    -0.1417860
  F       -1.9373460     0.2097040     1.1676710
  C        0.0587940    -0.2544720    -0.0183930
  C        0.7415540     0.9772520     0.0078750
  C        0.7507890    -1.4682550    -0.0178400
  C        2.1403840     0.9368280     0.0127460
  C       -1.4402130    -0.2782400     0.0012850
  C        0.0310770     2.3081630    -0.0188960
  C        2.1451100    -1.4771990    -0.0107000
  C        2.8415060    -0.2700650     0.0090350
  H        0.1981450    -2.4017980    -0.0309650
  H        2.6907970     1.8755160     0.0309210
  H       -0.3505540     2.5311140    -1.0192600
  H       -0.8159800     2.3277740     0.6689790
  H        0.6919211     3.0672737     0.2541419
  H        2.6805350    -2.4229320    -0.0122850
  H        3.9287950    -0.2645730     0.0170060
units angstrom
no_reorient  #important for SAPT in psi4, default
symmetry c1  #important for SAPT in psi4, default
}

set PROPERTIES_ORIGIN ["COM"]
properties('MP2/aug-cc-pvtz', properties = ['dipole'])
--------------------------------------------------------------------------

    Molecular point group: c1
  Charge       = 0
  Multiplicity = 1
  Basis Set: AUG-CC-PVTZ
    Blend: AUG-CC-PVTZ
  Basis Set: (AUG-CC-PVTZ AUX)
    Blend: AUG-CC-PVTZ-JKFIT

    Orbital Energies [Eh]
    ---------------------

    Doubly Occupied:

       1A    -26.335210     2A    -26.331505     3A    -26.330726
       4A    -11.508365     5A    -11.269969     6A    -11.264463
       7A    -11.259553     8A    -11.256590     9A    -11.248661
      10A    -11.248201    11A    -11.227884    12A     -1.717060
      13A     -1.626325    14A     -1.622860    15A     -1.180461
      16A     -1.072087    17A     -1.057834    18A     -0.974718
      19A     -0.939191    20A     -0.861764    21A     -0.837934
      22A     -0.811211    23A     -0.803520    24A     -0.774036
      25A     -0.704335    26A     -0.704025    27A     -0.689223
      28A     -0.666563    29A     -0.656503    30A     -0.649422
      31A     -0.643588    32A     -0.634502    33A     -0.589638
      34A     -0.584996    35A     -0.580863    36A     -0.561212
      37A     -0.510185    38A     -0.508578    39A     -0.506327
      40A     -0.360324    41A     -0.344134

  @DF-RHF Final Energy:  -605.57662886483172

   => Energetics <=

    Nuclear Repulsion Energy =            632.3078430080422550
    One-Electron Energy =               -2088.8598585235599785
    Two-Electron Energy =                 850.9753866506860049
    Total Energy =                       -605.5766288648317186
  Basis Set: (AUG-CC-PVTZ AUX)
    Blend: AUG-CC-PVTZ-RI
    Molecular point group: c1

    Geometry (in Angstrom), charge = 0, multiplicity = 1:

       Center              X                  Y                   Z               Mass
    ------------   -----------------  -----------------  -----------------  -----------------
         F           -1.880605856828     0.508484279162    -0.994520862663    18.998403162730
         F           -1.848515856828    -1.491976720838    -0.142388862663    18.998403162730
         F           -1.844504856828     0.244634279162     1.167068137337    18.998403162730
         C            0.151635143172    -0.219541720838    -0.018995862663    12.000000000000
         C            0.834395143172     1.012182279162     0.007272137337    12.000000000000
         C            0.843630143172    -1.433324720838    -0.018442862663    12.000000000000
         C            2.233225143172     0.971758279162     0.012143137337    12.000000000000
         C           -1.347371856828    -0.243309720838     0.000682137337    12.000000000000
         C            0.123918143172     2.343093279162    -0.019498862663    12.000000000000
         C            2.237951143172    -1.442268720838    -0.011302862663    12.000000000000
         C            2.934347143172    -0.235134720838     0.008432137337    12.000000000000
         H            0.290986143172    -2.366867720838    -0.031567862663     1.007825032230
         H            2.783638143172     1.910446279162     0.030318137337     1.007825032230
         H           -0.257712856828     2.566044279162    -1.019862862663     1.007825032230
         H           -0.723138856828     2.362704279162     0.668376137337     1.007825032230
         H            0.784762243172     3.102203979162     0.253539037337     1.007825032230
         H            2.773376143172    -2.388001720838    -0.012887862663     1.007825032230
         H            4.021636143172    -0.229642720838     0.016403137337     1.007825032230

  Basis Set: AUG-CC-PVTZ
    Blend: AUG-CC-PVTZ
  Basis Set: (AUG-CC-PVTZ AUX)
    Blend: AUG-CC-PVTZ-JKFIT
	 Reference Energy          =    -605.5766288648317186 [Eh]
	 Singles Energy            =      -0.0000000000000000 [Eh]
	 Same-Spin Energy          =      -0.5633194262224221 [Eh]
	 Opposite-Spin Energy      =      -1.6969856103145893 [Eh]
	 Correlation Energy        =      -2.2603050365370114 [Eh]
	 Total Energy              =    -607.8369339013687522 [Eh]

	 ================> DF-SCS-MP2 Energies <==================
	-----------------------------------------------------------
	 SCS Same-Spin Scale       =       0.3333333333333333 [-]
	 SCS Opposite-Spin Scale   =       1.2000000000000000 [-]
	 SCS Same-Spin Energy      =      -0.1877731420741407 [Eh]
	 SCS Opposite-Spin Energy  =      -2.0363827323775072 [Eh]
	 SCS Correlation Energy    =      -2.2241558744516481 [Eh]
	 SCS Total Energy          =    -607.8007847392833582 [Eh]
	-----------------------------------------------------------

  Dipole Moment: [D]
     X:     2.6047      Y:     0.4586      Z:    -0.0582     Total:     2.6454

*** Psi4 exiting successfully. Buy a developer a beer!
