                               Psi4 1.4a3.dev225

  ==> Input File <==

--------------------------------------------------------------------------
#psi4
#
memory 32 gb

molecule  {
0 1
  F       -1.9734470     0.4735540    -0.9939180
  F       -1.9413570    -1.5269070    -0.1417860
  F       -1.9373460     0.2097040     1.1676710
  C        0.0587940    -0.2544720    -0.0183930
  C        0.7415540     0.9772520     0.0078750
  C        0.7507890    -1.4682550    -0.0178400
  C        2.1403840     0.9368280     0.0127460
  C       -1.3615911    -0.3890871     0.1480212
  C        0.0310770     2.3081630    -0.0188960
  C        2.1451100    -1.4771990    -0.0107000
  C        2.8415060    -0.2700650     0.0090350
  H        0.1981450    -2.4017980    -0.0309650
  H        2.6907970     1.8755160     0.0309210
  H       -0.3505540     2.5311140    -1.0192600
  H       -0.8159800     2.3277740     0.6689790
  H        0.7236060     3.1036700     0.2672330
  H        2.6805350    -2.4229320    -0.0122850
  H        3.9287950    -0.2645730     0.0170060
units angstrom
no_reorient  #important for SAPT in psi4, default
symmetry c1  #important for SAPT in psi4, default
}

set PROPERTIES_ORIGIN ["COM"]
properties('MP2/aug-cc-pvtz', properties = ['dipole'])
--------------------------------------------------------------------------

    Molecular point group: c1
  Charge       = 0
  Multiplicity = 1
  Basis Set: AUG-CC-PVTZ
    Blend: AUG-CC-PVTZ
  Basis Set: (AUG-CC-PVTZ AUX)
    Blend: AUG-CC-PVTZ-JKFIT

    Orbital Energies [Eh]
    ---------------------

    Doubly Occupied:

       1A    -26.359407     2A    -26.353784     3A    -26.250494
       4A    -11.514950     5A    -11.278752     6A    -11.268879
       7A    -11.267518     8A    -11.264211     9A    -11.253754
      10A    -11.253384    11A    -11.231844    12A     -1.731518
      13A     -1.660005    14A     -1.525901    15A     -1.191052
      16A     -1.085234    17A     -1.065501    18A     -0.977999
      19A     -0.938526    20A     -0.873109    21A     -0.849194
      22A     -0.818101    23A     -0.792688    24A     -0.778529
      25A     -0.715678    26A     -0.701142    27A     -0.684703
      28A     -0.671259    29A     -0.660363    30A     -0.628032
      31A     -0.601497    32A     -0.594865    33A     -0.590799
      34A     -0.582580    35A     -0.574245    36A     -0.552209
      37A     -0.520139    38A     -0.513931    39A     -0.506491
      40A     -0.368112    41A     -0.348949

  @DF-RHF Final Energy:  -605.54323042003057

   => Energetics <=

    Nuclear Repulsion Energy =            631.8375144197221971
    One-Electron Energy =               -2087.9628429557496929
    Two-Electron Energy =                 850.5820981159970415
    Total Energy =                       -605.5432304200305680
  Basis Set: (AUG-CC-PVTZ AUX)
    Blend: AUG-CC-PVTZ-RI
    Molecular point group: c1

    Geometry (in Angstrom), charge = 0, multiplicity = 1:

       Center              X                  Y                   Z               Mass
    ------------   -----------------  -----------------  -----------------  -----------------
         F           -1.886700175657     0.516566029998    -1.005605074520    18.998403162730
         F           -1.854610175657    -1.483894970002    -0.153473074520    18.998403162730
         F           -1.850599175657     0.252716029998     1.155983925480    18.998403162730
         C            0.145540824343    -0.211459970002    -0.030080074520    12.000000000000
         C            0.828300824343     1.020264029998    -0.003812074520    12.000000000000
         C            0.837535824343    -1.425242970002    -0.029527074520    12.000000000000
         C            2.227130824343     0.979840029998     0.001058925480    12.000000000000
         C           -1.274844275657    -0.346075070002     0.136334125480    12.000000000000
         C            0.117823824343     2.351175029998    -0.030583074520    12.000000000000
         C            2.231856824343    -1.434186970002    -0.022387074520    12.000000000000
         C            2.928252824343    -0.227052970002    -0.002652074520    12.000000000000
         H            0.284891824343    -2.358785970002    -0.042652074520     1.007825032230
         H            2.777543824343     1.918528029998     0.019233925480     1.007825032230
         H           -0.263807175657     2.574126029998    -1.030947074520     1.007825032230
         H           -0.729233175657     2.370786029998     0.657291925480     1.007825032230
         H            0.810352824343     3.146682029998     0.255545925480     1.007825032230
         H            2.767281824343    -2.379919970002    -0.023972074520     1.007825032230
         H            4.015541824343    -0.221560970002     0.005318925480     1.007825032230

  Basis Set: AUG-CC-PVTZ
    Blend: AUG-CC-PVTZ
  Basis Set: (AUG-CC-PVTZ AUX)
    Blend: AUG-CC-PVTZ-JKFIT
	 Reference Energy          =    -605.5432304200305680 [Eh]
	 Singles Energy            =      -0.0000000000000000 [Eh]
	 Same-Spin Energy          =      -0.5655924403184255 [Eh]
	 Opposite-Spin Energy      =      -1.7018849174275510 [Eh]
	 Correlation Energy        =      -2.2674773577459764 [Eh]
	 Total Energy              =    -607.8107077777765426 [Eh]

	 ================> DF-SCS-MP2 Energies <==================
	-----------------------------------------------------------
	 SCS Same-Spin Scale       =       0.3333333333333333 [-]
	 SCS Opposite-Spin Scale   =       1.2000000000000000 [-]
	 SCS Same-Spin Energy      =      -0.1885308134394751 [Eh]
	 SCS Opposite-Spin Energy  =      -2.0422619009130609 [Eh]
	 SCS Correlation Energy    =      -2.2307927143525359 [Eh]
	 SCS Total Energy          =    -607.7740231343831283 [Eh]
	-----------------------------------------------------------

  Dipole Moment: [D]
     X:     3.3864      Y:    -0.2936      Z:     0.9838     Total:     3.5386

*** Psi4 exiting successfully. Buy a developer a beer!
