                               Psi4 1.4a3.dev225

  ==> Input File <==

--------------------------------------------------------------------------
#psi4
#
memory 32 gb

molecule  {
0 1
  F       -1.9734470     0.4735540    -0.9939180
  F       -1.9413570    -1.5269070    -0.1417860
  F       -1.9373460     0.2097040     1.1676710
  C        0.0587940    -0.2544720    -0.0183930
  C        0.7415540     0.9772520     0.0078750
  C        0.7507890    -1.4682550    -0.0178400
  C        2.1403840     0.9368280     0.0127460
  C       -1.4402130    -0.2782400     0.0012850
  C        0.0310770     2.3081630    -0.0188960
  C        2.1451100    -1.4771990    -0.0107000
  C        2.8314596    -0.2527714     0.0090882
  H        0.1981450    -2.4017980    -0.0309650
  H        2.6907970     1.8755160     0.0309210
  H       -0.3505540     2.5311140    -1.0192600
  H       -0.8159800     2.3277740     0.6689790
  H        0.7236060     3.1036700     0.2672330
  H        2.6805350    -2.4229320    -0.0122850
  H        3.9287950    -0.2645730     0.0170060
units angstrom
no_reorient  #important for SAPT in psi4, default
symmetry c1  #important for SAPT in psi4, default
}

set PROPERTIES_ORIGIN ["COM"]
properties('MP2/aug-cc-pvtz', properties = ['dipole'])
--------------------------------------------------------------------------

    Molecular point group: c1
  Charge       = 0
  Multiplicity = 1
  Basis Set: AUG-CC-PVTZ
    Blend: AUG-CC-PVTZ
  Basis Set: (AUG-CC-PVTZ AUX)
    Blend: AUG-CC-PVTZ-JKFIT

    Orbital Energies [Eh]
    ---------------------

    Doubly Occupied:

       1A    -26.335381     2A    -26.331725     3A    -26.330876
       4A    -11.508521     5A    -11.270819     6A    -11.264392
       7A    -11.259275     8A    -11.256267     9A    -11.249530
      10A    -11.246234    11A    -11.234174    12A     -1.717245
      13A     -1.626511    14A     -1.623047    15A     -1.181373
      16A     -1.071644    17A     -1.057998    18A     -0.974863
      19A     -0.936486    20A     -0.860776    21A     -0.837683
      22A     -0.811392    23A     -0.803758    24A     -0.773997
      25A     -0.704550    26A     -0.704107    27A     -0.688270
      28A     -0.666031    29A     -0.656681    30A     -0.648871
      31A     -0.643763    32A     -0.634888    33A     -0.590793
      34A     -0.585128    35A     -0.579619    36A     -0.553138
      37A     -0.509891    38A     -0.509129    39A     -0.505803
      40A     -0.362423    41A     -0.343177

  @DF-RHF Final Energy:  -605.57711461172687

   => Energetics <=

    Nuclear Repulsion Energy =            632.2858915510497582
    One-Electron Energy =               -2088.8255531006288948
    Two-Electron Energy =                 850.9625469378523803
    Total Energy =                       -605.5771146117268700
  Basis Set: (AUG-CC-PVTZ AUX)
    Blend: AUG-CC-PVTZ-RI
    Molecular point group: c1

    Geometry (in Angstrom), charge = 0, multiplicity = 1:

       Center              X                  Y                   Z               Mass
    ------------   -----------------  -----------------  -----------------  -----------------
         F           -1.880052130036     0.506958478940    -0.994607285279    18.998403162730
         F           -1.847962130036    -1.493502521060    -0.142475285279    18.998403162730
         F           -1.843951130036     0.243108478940     1.166981714721    18.998403162730
         C            0.152188869964    -0.221067521060    -0.019082285279    12.000000000000
         C            0.834948869964     1.010656478940     0.007185714721    12.000000000000
         C            0.844183869964    -1.434850521060    -0.018529285279    12.000000000000
         C            2.233778869964     0.970232478940     0.012056714721    12.000000000000
         C           -1.346818130036    -0.244835521060     0.000595714721    12.000000000000
         C            0.124471869964     2.341567478940    -0.019585285279    12.000000000000
         C            2.238504869964    -1.443794521060    -0.011389285279    12.000000000000
         C            2.924854469964    -0.219366921060     0.008398914721    12.000000000000
         H            0.291539869964    -2.368393521060    -0.031654285279     1.007825032230
         H            2.784191869964     1.908920478940     0.030231714721     1.007825032230
         H           -0.257159130036     2.564518478940    -1.019949285279     1.007825032230
         H           -0.722585130036     2.361178478940     0.668289714721     1.007825032230
         H            0.817000869964     3.137074478940     0.266543714721     1.007825032230
         H            2.773929869964    -2.389527521060    -0.012974285279     1.007825032230
         H            4.022189869964    -0.231168521060     0.016316714721     1.007825032230

  Basis Set: AUG-CC-PVTZ
    Blend: AUG-CC-PVTZ
  Basis Set: (AUG-CC-PVTZ AUX)
    Blend: AUG-CC-PVTZ-JKFIT
	 Reference Energy          =    -605.5771146117268700 [Eh]
	 Singles Energy            =      -0.0000000000000000 [Eh]
	 Same-Spin Energy          =      -0.5633614924696878 [Eh]
	 Opposite-Spin Energy      =      -1.6972976562326239 [Eh]
	 Correlation Energy        =      -2.2606591487023118 [Eh]
	 Total Energy              =    -607.8377737604291724 [Eh]

	 ================> DF-SCS-MP2 Energies <==================
	-----------------------------------------------------------
	 SCS Same-Spin Scale       =       0.3333333333333333 [-]
	 SCS Opposite-Spin Scale   =       1.2000000000000000 [-]
	 SCS Same-Spin Energy      =      -0.1877871641565626 [Eh]
	 SCS Opposite-Spin Energy  =      -2.0367571874791484 [Eh]
	 SCS Correlation Energy    =      -2.2245443516357111 [Eh]
	 SCS Total Energy          =    -607.8016589633625699 [Eh]
	-----------------------------------------------------------

  Dipole Moment: [D]
     X:     2.5920      Y:     0.4314      Z:    -0.0627     Total:     2.6284

*** Psi4 exiting successfully. Buy a developer a beer!
