                               Psi4 1.4a3.dev225

  ==> Input File <==

--------------------------------------------------------------------------
#psi4
#
memory 32 gb

molecule  {
0 1
  F       -1.9734470     0.4735540    -0.9939180
  F       -1.9413570    -1.5269070    -0.1417860
  F       -1.9373460     0.2097040     1.1676710
  C        0.0587940    -0.2544720    -0.0183930
  C        0.7415540     0.9772520     0.0078750
  C        0.7507890    -1.4682550    -0.0178400
  C        2.1403840     0.9368280     0.0127460
  C       -1.4402130    -0.2782400     0.0012850
  C        0.0310770     2.3081630    -0.0188960
  C        2.1451100    -1.4771990    -0.0107000
  C        2.8415060    -0.2700650     0.0090350
  H        0.1981450    -2.4017980    -0.0309650
  H        2.6907970     1.8755160     0.0309210
  H       -0.3505540     2.5311140    -1.0192600
  H       -0.7998123     2.3571877     0.6869947
  H        0.7236060     3.1036700     0.2672330
  H        2.6805350    -2.4229320    -0.0122850
  H        3.9287950    -0.2645730     0.0170060
units angstrom
no_reorient  #important for SAPT in psi4, default
symmetry c1  #important for SAPT in psi4, default
}

set PROPERTIES_ORIGIN ["COM"]
properties('MP2/aug-cc-pvtz', properties = ['dipole'])
--------------------------------------------------------------------------

    Molecular point group: c1
  Charge       = 0
  Multiplicity = 1
  Basis Set: AUG-CC-PVTZ
    Blend: AUG-CC-PVTZ
  Basis Set: (AUG-CC-PVTZ AUX)
    Blend: AUG-CC-PVTZ-JKFIT

    Orbital Energies [Eh]
    ---------------------

    Doubly Occupied:

       1A    -26.335292     2A    -26.331613     3A    -26.330679
       4A    -11.508471     5A    -11.270508     6A    -11.264871
       7A    -11.259705     8A    -11.256659     9A    -11.248932
      10A    -11.248397    11A    -11.233907    12A     -1.717089
      13A     -1.626387    14A     -1.622843    15A     -1.180559
      16A     -1.071867    17A     -1.057021    18A     -0.973462
      19A     -0.937138    20A     -0.861794    21A     -0.837179
      22A     -0.811232    23A     -0.803514    24A     -0.774052
      25A     -0.704361    26A     -0.703992    27A     -0.689248
      28A     -0.665445    29A     -0.656535    30A     -0.648477
      31A     -0.643579    32A     -0.634700    33A     -0.589881
      34A     -0.586461    35A     -0.581228    36A     -0.551024
      37A     -0.509394    38A     -0.508821    39A     -0.506726
      40A     -0.360468    41A     -0.344562

  @DF-RHF Final Energy:  -605.57746624216657

   => Energetics <=

    Nuclear Repulsion Energy =            631.9552329284738335
    One-Electron Energy =               -2088.1692543457720603
    Two-Electron Energy =                 850.6365551751316616
    Total Energy =                       -605.5774662421665653
  Basis Set: (AUG-CC-PVTZ AUX)
    Blend: AUG-CC-PVTZ-RI
    Molecular point group: c1

    Geometry (in Angstrom), charge = 0, multiplicity = 1:

       Center              X                  Y                   Z               Mass
    ------------   -----------------  -----------------  -----------------  -----------------
         F           -1.880907181744     0.508069877589    -0.994716740293    18.998403162730
         F           -1.848817181744    -1.492391122411    -0.142584740293    18.998403162730
         F           -1.844806181744     0.244219877589     1.166872259707    18.998403162730
         C            0.151333818256    -0.219956122411    -0.019191740293    12.000000000000
         C            0.834093818256     1.011767877589     0.007076259707    12.000000000000
         C            0.843328818256    -1.433739122411    -0.018638740293    12.000000000000
         C            2.232923818256     0.971343877589     0.011947259707    12.000000000000
         C           -1.347673181744    -0.243724122411     0.000486259707    12.000000000000
         C            0.123616818256     2.342678877589    -0.019694740293    12.000000000000
         C            2.237649818256    -1.442683122411    -0.011498740293    12.000000000000
         C            2.934045818256    -0.235549122411     0.008236259707    12.000000000000
         H            0.290684818256    -2.367282122411    -0.031763740293     1.007825032230
         H            2.783336818256     1.910031877589     0.030122259707     1.007825032230
         H           -0.258014181744     2.565629877589    -1.020058740293     1.007825032230
         H           -0.707272481744     2.391703577589     0.686195959707     1.007825032230
         H            0.816145818256     3.138185877589     0.266434259707     1.007825032230
         H            2.773074818256    -2.388416122411    -0.013083740293     1.007825032230
         H            4.021334818256    -0.230057122411     0.016207259707     1.007825032230

  Basis Set: AUG-CC-PVTZ
    Blend: AUG-CC-PVTZ
  Basis Set: (AUG-CC-PVTZ AUX)
    Blend: AUG-CC-PVTZ-JKFIT
	 Reference Energy          =    -605.5774662421665653 [Eh]
	 Singles Energy            =      -0.0000000000000000 [Eh]
	 Same-Spin Energy          =      -0.5633114582085677 [Eh]
	 Opposite-Spin Energy      =      -1.6972990155931673 [Eh]
	 Correlation Energy        =      -2.2606104738017350 [Eh]
	 Total Energy              =    -607.8380767159683273 [Eh]

	 ================> DF-SCS-MP2 Energies <==================
	-----------------------------------------------------------
	 SCS Same-Spin Scale       =       0.3333333333333333 [-]
	 SCS Opposite-Spin Scale   =       1.2000000000000000 [-]
	 SCS Same-Spin Energy      =      -0.1877704860695225 [Eh]
	 SCS Opposite-Spin Energy  =      -2.0367588187118009 [Eh]
	 SCS Correlation Energy    =      -2.2245293047813233 [Eh]
	 SCS Total Energy          =    -607.8019955469478646 [Eh]
	-----------------------------------------------------------

  Dipole Moment: [D]
     X:     2.6055      Y:     0.4383      Z:    -0.0529     Total:     2.6426

*** Psi4 exiting successfully. Buy a developer a beer!
