                               Psi4 1.4a3.dev225

  ==> Input File <==

--------------------------------------------------------------------------
#psi4
#
memory 32 gb

molecule  {
0 1
  F       -1.9494634     0.4474864    -1.0253342
  F       -1.9413570    -1.5269070    -0.1417860
  F       -1.9373460     0.2097040     1.1676710
  C        0.0587940    -0.2544720    -0.0183930
  C        0.7415540     0.9772520     0.0078750
  C        0.7507890    -1.4682550    -0.0178400
  C        2.1403840     0.9368280     0.0127460
  C       -1.4402130    -0.2782400     0.0012850
  C        0.0310770     2.3081630    -0.0188960
  C        2.1451100    -1.4771990    -0.0107000
  C        2.8415060    -0.2700650     0.0090350
  H        0.1981450    -2.4017980    -0.0309650
  H        2.6907970     1.8755160     0.0309210
  H       -0.3505540     2.5311140    -1.0192600
  H       -0.8159800     2.3277740     0.6689790
  H        0.7236060     3.1036700     0.2672330
  H        2.6805350    -2.4229320    -0.0122850
  H        3.9287950    -0.2645730     0.0170060
units angstrom
no_reorient  #important for SAPT in psi4, default
symmetry c1  #important for SAPT in psi4, default
}

set PROPERTIES_ORIGIN ["COM"]
properties('MP2/aug-cc-pvtz', properties = ['dipole'])
--------------------------------------------------------------------------

    Molecular point group: c1
  Charge       = 0
  Multiplicity = 1
  Basis Set: AUG-CC-PVTZ
    Blend: AUG-CC-PVTZ
  Basis Set: (AUG-CC-PVTZ AUX)
    Blend: AUG-CC-PVTZ-JKFIT

    Orbital Energies [Eh]
    ---------------------

    Doubly Occupied:

       1A    -26.334543     2A    -26.333941     3A    -26.332582
       4A    -11.508979     5A    -11.269839     6A    -11.264199
       7A    -11.259076     8A    -11.256063     9A    -11.248448
      10A    -11.247954    11A    -11.234095    12A     -1.717465
      13A     -1.626479    14A     -1.625321    15A     -1.180133
      16A     -1.071691    17A     -1.056738    18A     -0.973552
      19A     -0.937200    20A     -0.861776    21A     -0.836452
      22A     -0.813898    23A     -0.802954    24A     -0.773887
      25A     -0.706850    26A     -0.703342    27A     -0.688708
      28A     -0.665501    29A     -0.659333    30A     -0.648226
      31A     -0.645331    32A     -0.634351    33A     -0.589310
      34A     -0.584967    35A     -0.580018    36A     -0.553832
      37A     -0.508991    38A     -0.508446    39A     -0.506099
      40A     -0.359824    41A     -0.343905

  @DF-RHF Final Energy:  -605.57704477168954

   => Energetics <=

    Nuclear Repulsion Energy =            632.0983991934481310
    One-Electron Energy =               -2088.4422867819712337
    Two-Electron Energy =                 850.7668428168335595
    Total Energy =                       -605.5770447716895433
  Basis Set: (AUG-CC-PVTZ AUX)
    Blend: AUG-CC-PVTZ-RI
    Molecular point group: c1

    Geometry (in Angstrom), charge = 0, multiplicity = 1:

       Center              X                  Y                   Z               Mass
    ------------   -----------------  -----------------  -----------------  -----------------
         F           -1.859668698465     0.485281794538    -1.022290301333    18.998403162730
         F           -1.851562298465    -1.489111605462    -0.138742101333    18.998403162730
         F           -1.847551298465     0.247499394538     1.170714898667    18.998403162730
         C            0.148588701535    -0.216676605462    -0.015349101333    12.000000000000
         C            0.831348701535     1.015047394538     0.010918898667    12.000000000000
         C            0.840583701535    -1.430459605462    -0.014796101333    12.000000000000
         C            2.230178701535     0.974623394538     0.015789898667    12.000000000000
         C           -1.350418298465    -0.240444605462     0.004328898667    12.000000000000
         C            0.120871701535     2.345958394538    -0.015852101333    12.000000000000
         C            2.234904701535    -1.439403605462    -0.007656101333    12.000000000000
         C            2.931300701535    -0.232269605462     0.012078898667    12.000000000000
         H            0.287939701535    -2.364002605462    -0.027921101333     1.007825032230
         H            2.780591701535     1.913311394538     0.033964898667     1.007825032230
         H           -0.260759298465     2.568909394538    -1.016216101333     1.007825032230
         H           -0.726185298465     2.365569394538     0.672022898667     1.007825032230
         H            0.813400701535     3.141465394538     0.270276898667     1.007825032230
         H            2.770329701535    -2.385136605462    -0.009241101333     1.007825032230
         H            4.018589701535    -0.226777605462     0.020049898667     1.007825032230

  Basis Set: AUG-CC-PVTZ
    Blend: AUG-CC-PVTZ
  Basis Set: (AUG-CC-PVTZ AUX)
    Blend: AUG-CC-PVTZ-JKFIT
	 Reference Energy          =    -605.5770447716895433 [Eh]
	 Singles Energy            =      -0.0000000000000000 [Eh]
	 Same-Spin Energy          =      -0.5633831966021950 [Eh]
	 Opposite-Spin Energy      =      -1.6974640312715334 [Eh]
	 Correlation Energy        =      -2.2608472278737284 [Eh]
	 Total Energy              =    -607.8378919995632259 [Eh]

	 ================> DF-SCS-MP2 Energies <==================
	-----------------------------------------------------------
	 SCS Same-Spin Scale       =       0.3333333333333333 [-]
	 SCS Opposite-Spin Scale   =       1.2000000000000000 [-]
	 SCS Same-Spin Energy      =      -0.1877943988673983 [Eh]
	 SCS Opposite-Spin Energy  =      -2.0369568375258402 [Eh]
	 SCS Correlation Energy    =      -2.2247512363932387 [Eh]
	 SCS Total Energy          =    -607.8017960080827606 [Eh]
	-----------------------------------------------------------

  Dipole Moment: [D]
     X:     2.5356      Y:     0.4681      Z:    -0.0279     Total:     2.5786

*** Psi4 exiting successfully. Buy a developer a beer!
