                               Psi4 1.4a3.dev225

  ==> Input File <==

--------------------------------------------------------------------------
#psi4
#
memory 32 gb

molecule  {
0 1
  F       -1.9734470     0.4735540    -0.9939180
  F       -1.9413570    -1.5269070    -0.1417860
  F       -1.9373460     0.2097040     1.1676710
  C        0.0587940    -0.2544720    -0.0183930
  C        0.7415540     0.9772520     0.0078750
  C        0.7507890    -1.4682550    -0.0178400
  C        2.1403840     0.9368280     0.0127460
  C       -1.4402130    -0.2782400     0.0012850
  C        0.0310770     2.3081630    -0.0188960
  C        2.1451100    -1.4771990    -0.0107000
  C        2.8415060    -0.2700650     0.0090350
  H        0.1981450    -2.4017980    -0.0309650
  H        2.6907970     1.8755160     0.0309210
  H       -0.3505540     2.5311140    -1.0192600
  H       -0.8159800     2.3277740     0.6689790
  H        0.7362799     3.1182285     0.2724694
  H        2.6805350    -2.4229320    -0.0122850
  H        3.9287950    -0.2645730     0.0170060
units angstrom
no_reorient  #important for SAPT in psi4, default
symmetry c1  #important for SAPT in psi4, default
}

set PROPERTIES_ORIGIN ["COM"]
properties('MP2/aug-cc-pvtz', properties = ['dipole'])
--------------------------------------------------------------------------

    Molecular point group: c1
  Charge       = 0
  Multiplicity = 1
  Basis Set: AUG-CC-PVTZ
    Blend: AUG-CC-PVTZ
  Basis Set: (AUG-CC-PVTZ AUX)
    Blend: AUG-CC-PVTZ-JKFIT

    Orbital Energies [Eh]
    ---------------------

    Doubly Occupied:

       1A    -26.335510     2A    -26.331966     3A    -26.331092
       4A    -11.508741     5A    -11.270518     6A    -11.264946
       7A    -11.259790     8A    -11.256658     9A    -11.248864
      10A    -11.248264    11A    -11.236372    12A     -1.717431
      13A     -1.626672    14A     -1.623260    15A     -1.180602
      16A     -1.071935    17A     -1.056768    18A     -0.973182
      19A     -0.936415    20A     -0.862029    21A     -0.836717
      22A     -0.811578    23A     -0.803781    24A     -0.774060
      25A     -0.704717    26A     -0.704234    27A     -0.689177
      28A     -0.665705    29A     -0.656861    30A     -0.648378
      31A     -0.643945    32A     -0.634757    33A     -0.589872
      34A     -0.584999    35A     -0.580600    36A     -0.550824
      37A     -0.509000    38A     -0.508758    39A     -0.506672
      40A     -0.360521    41A     -0.344326

  @DF-RHF Final Energy:  -605.57698873627021

   => Energetics <=

    Nuclear Repulsion Energy =            631.9532387823660429
    One-Electron Energy =               -2088.1594559307641248
    Two-Electron Energy =                 850.6292284121278726
    Total Energy =                       -605.5769887362702093
  Basis Set: (AUG-CC-PVTZ AUX)
    Blend: AUG-CC-PVTZ-RI
    Molecular point group: c1

    Geometry (in Angstrom), charge = 0, multiplicity = 1:

       Center              X                  Y                   Z               Mass
    ------------   -----------------  -----------------  -----------------  -----------------
         F           -1.880885181497     0.508163419881    -0.994636269817    18.998403162730
         F           -1.848795181497    -1.492297580119    -0.142504269817    18.998403162730
         F           -1.844784181497     0.244313419881     1.166952730183    18.998403162730
         C            0.151355818503    -0.219862580119    -0.019111269817    12.000000000000
         C            0.834115818503     1.011861419881     0.007156730183    12.000000000000
         C            0.843350818503    -1.433645580119    -0.018558269817    12.000000000000
         C            2.232945818503     0.971437419881     0.012027730183    12.000000000000
         C           -1.347651181497    -0.243630580119     0.000566730183    12.000000000000
         C            0.123638818503     2.342772419881    -0.019614269817    12.000000000000
         C            2.237671818503    -1.442589580119    -0.011418269817    12.000000000000
         C            2.934067818503    -0.235455580119     0.008316730183    12.000000000000
         H            0.290706818503    -2.367188580119    -0.031683269817     1.007825032230
         H            2.783358818503     1.910125419881     0.030202730183     1.007825032230
         H           -0.257992181497     2.565723419881    -1.019978269817     1.007825032230
         H           -0.723418181497     2.362383419881     0.668260730183     1.007825032230
         H            0.828841718503     3.152837919881     0.271751130183     1.007825032230
         H            2.773096818503    -2.388322580119    -0.013003269817     1.007825032230
         H            4.021356818503    -0.229963580119     0.016287730183     1.007825032230

  Basis Set: AUG-CC-PVTZ
    Blend: AUG-CC-PVTZ
  Basis Set: (AUG-CC-PVTZ AUX)
    Blend: AUG-CC-PVTZ-JKFIT
	 Reference Energy          =    -605.5769887362702093 [Eh]
	 Singles Energy            =      -0.0000000000000000 [Eh]
	 Same-Spin Energy          =      -0.5633493340116774 [Eh]
	 Opposite-Spin Energy      =      -1.6974772264872182 [Eh]
	 Correlation Energy        =      -2.2608265604988955 [Eh]
	 Total Energy              =    -607.8378152967691221 [Eh]

	 ================> DF-SCS-MP2 Energies <==================
	-----------------------------------------------------------
	 SCS Same-Spin Scale       =       0.3333333333333333 [-]
	 SCS Opposite-Spin Scale   =       1.2000000000000000 [-]
	 SCS Same-Spin Energy      =      -0.1877831113372258 [Eh]
	 SCS Opposite-Spin Energy  =      -2.0369726717846617 [Eh]
	 SCS Correlation Energy    =      -2.2247557831218874 [Eh]
	 SCS Total Energy          =    -607.8017445193920594 [Eh]
	-----------------------------------------------------------

  Dipole Moment: [D]
     X:     2.5928      Y:     0.4221      Z:    -0.0646     Total:     2.6277

*** Psi4 exiting successfully. Buy a developer a beer!
