                               Psi4 1.4a3.dev225

  ==> Input File <==

--------------------------------------------------------------------------
#psi4
#
memory 32 gb

molecule  {
0 1
  F       -1.9734470     0.4735540    -0.9939180
  F       -1.9413570    -1.5269070    -0.1417860
  F       -1.9373460     0.2097040     1.1676710
  C        0.0587940    -0.2544720    -0.0183930
  C        0.7415540     0.9772520     0.0078750
  C        0.7507890    -1.4682550    -0.0178400
  C        2.1403840     0.9368280     0.0127460
  C       -1.4402130    -0.2782400     0.0012850
  C        0.0310770     2.3081630    -0.0188960
  C        2.1662855    -1.4891702    -0.0106916
  C        2.8415060    -0.2700650     0.0090350
  H        0.1981450    -2.4017980    -0.0309650
  H        2.6907970     1.8755160     0.0309210
  H       -0.3505540     2.5311140    -1.0192600
  H       -0.8159800     2.3277740     0.6689790
  H        0.7236060     3.1036700     0.2672330
  H        2.6805350    -2.4229320    -0.0122850
  H        3.9287950    -0.2645730     0.0170060
units angstrom
no_reorient  #important for SAPT in psi4, default
symmetry c1  #important for SAPT in psi4, default
}

set PROPERTIES_ORIGIN ["COM"]
properties('MP2/aug-cc-pvtz', properties = ['dipole'])
--------------------------------------------------------------------------

    Molecular point group: c1
  Charge       = 0
  Multiplicity = 1
  Basis Set: AUG-CC-PVTZ
    Blend: AUG-CC-PVTZ
  Basis Set: (AUG-CC-PVTZ AUX)
    Blend: AUG-CC-PVTZ-JKFIT

    Orbital Energies [Eh]
    ---------------------

    Doubly Occupied:

       1A    -26.335369     2A    -26.331934     3A    -26.331063
       4A    -11.508784     5A    -11.270643     6A    -11.265060
       7A    -11.262297     8A    -11.256738     9A    -11.249494
      10A    -11.248144    11A    -11.234060    12A     -1.717363
      13A     -1.626572    14A     -1.623224    15A     -1.178968
      16A     -1.071719    17A     -1.055799    18A     -0.972337
      19A     -0.938081    20A     -0.861010    21A     -0.837624
      22A     -0.811526    23A     -0.803817    24A     -0.775477
      25A     -0.704622    26A     -0.704046    27A     -0.688835
      28A     -0.665664    29A     -0.656797    30A     -0.648978
      31A     -0.643888    32A     -0.635891    33A     -0.588505
      34A     -0.585017    35A     -0.582582    36A     -0.553223
      37A     -0.511516    38A     -0.507201    39A     -0.505473
      40A     -0.360901    41A     -0.342633

  @DF-RHF Final Energy:  -605.57668413209797

   => Energetics <=

    Nuclear Repulsion Energy =            631.5718102690979094
    One-Electron Energy =               -2087.3912386058195807
    Two-Electron Energy =                 850.2427442046235910
    Total Energy =                       -605.5766841320979665
  Basis Set: (AUG-CC-PVTZ AUX)
    Blend: AUG-CC-PVTZ-RI
    Molecular point group: c1

    Geometry (in Angstrom), charge = 0, multiplicity = 1:

       Center              X                  Y                   Z               Mass
    ------------   -----------------  -----------------  -----------------  -----------------
         F           -1.882393041225     0.509152653470    -0.994603926328    18.998403162730
         F           -1.850303041225    -1.491308346530    -0.142471926328    18.998403162730
         F           -1.846292041225     0.245302653470     1.166985073672    18.998403162730
         C            0.149847958775    -0.218873346530    -0.019078926328    12.000000000000
         C            0.832607958775     1.012850653470     0.007189073672    12.000000000000
         C            0.841842958775    -1.432656346530    -0.018525926328    12.000000000000
         C            2.231437958775     0.972426653470     0.012060073672    12.000000000000
         C           -1.349159041225    -0.242641346530     0.000599073672    12.000000000000
         C            0.122130958775     2.343761653470    -0.019581926328    12.000000000000
         C            2.257339458775    -1.453571546530    -0.011377526328    12.000000000000
         C            2.932559958775    -0.234466346530     0.008349073672    12.000000000000
         H            0.289198958775    -2.366199346530    -0.031650926328     1.007825032230
         H            2.781850958775     1.911114653470     0.030235073672     1.007825032230
         H           -0.259500041225     2.566712653470    -1.019945926328     1.007825032230
         H           -0.724926041225     2.363372653470     0.668293073672     1.007825032230
         H            0.814659958775     3.139268653470     0.266547073672     1.007825032230
         H            2.771588958775    -2.387333346530    -0.012970926328     1.007825032230
         H            4.019848958775    -0.228974346530     0.016320073672     1.007825032230

  Basis Set: AUG-CC-PVTZ
    Blend: AUG-CC-PVTZ
  Basis Set: (AUG-CC-PVTZ AUX)
    Blend: AUG-CC-PVTZ-JKFIT
	 Reference Energy          =    -605.5766841320979665 [Eh]
	 Singles Energy            =      -0.0000000000000000 [Eh]
	 Same-Spin Energy          =      -0.5632665153464907 [Eh]
	 Opposite-Spin Energy      =      -1.6974121008355429 [Eh]
	 Correlation Energy        =      -2.2606786161820338 [Eh]
	 Total Energy              =    -607.8373627482800430 [Eh]

	 ================> DF-SCS-MP2 Energies <==================
	-----------------------------------------------------------
	 SCS Same-Spin Scale       =       0.3333333333333333 [-]
	 SCS Opposite-Spin Scale   =       1.2000000000000000 [-]
	 SCS Same-Spin Energy      =      -0.1877555051154969 [Eh]
	 SCS Opposite-Spin Energy  =      -2.0368945210026514 [Eh]
	 SCS Correlation Energy    =      -2.2246500261181485 [Eh]
	 SCS Total Energy          =    -607.8013341582161502 [Eh]
	-----------------------------------------------------------

  Dipole Moment: [D]
     X:     2.5950      Y:     0.4221      Z:    -0.0627     Total:     2.6298

*** Psi4 exiting successfully. Buy a developer a beer!
