                               Psi4 1.4a3.dev225

  ==> Input File <==

--------------------------------------------------------------------------
#psi4
#
memory 32 gb

molecule  {
0 1
  F       -1.9734470     0.4735540    -0.9939180
  F       -1.9413570    -1.5269070    -0.1417860
  F       -1.9373460     0.2097040     1.1676710
  C        0.0162141    -0.2298945    -0.0180956
  C        0.7415540     0.9772520     0.0078750
  C        0.7507890    -1.4682550    -0.0178400
  C        2.1403840     0.9368280     0.0127460
  C       -1.4402130    -0.2782400     0.0012850
  C        0.0310770     2.3081630    -0.0188960
  C        2.1451100    -1.4771990    -0.0107000
  C        2.8415060    -0.2700650     0.0090350
  H        0.1981450    -2.4017980    -0.0309650
  H        2.6907970     1.8755160     0.0309210
  H       -0.3505540     2.5311140    -1.0192600
  H       -0.8159800     2.3277740     0.6689790
  H        0.7236060     3.1036700     0.2672330
  H        2.6805350    -2.4229320    -0.0122850
  H        3.9287950    -0.2645730     0.0170060
units angstrom
no_reorient  #important for SAPT in psi4, default
symmetry c1  #important for SAPT in psi4, default
}

set PROPERTIES_ORIGIN ["COM"]
properties('MP2/aug-cc-pvtz', properties = ['dipole'])
--------------------------------------------------------------------------

    Molecular point group: c1
  Charge       = 0
  Multiplicity = 1
  Basis Set: AUG-CC-PVTZ
    Blend: AUG-CC-PVTZ
  Basis Set: (AUG-CC-PVTZ AUX)
    Blend: AUG-CC-PVTZ-JKFIT

    Orbital Energies [Eh]
    ---------------------

    Doubly Occupied:

       1A    -26.336378     2A    -26.330714     3A    -26.330082
       4A    -11.507471     5A    -11.272173     6A    -11.265536
       7A    -11.264299     8A    -11.258651     9A    -11.249278
      10A    -11.248835    11A    -11.232734    12A     -1.717843
      13A     -1.627041    14A     -1.622891    15A     -1.178305
      16A     -1.077266    17A     -1.055812    18A     -0.975175
      19A     -0.935415    20A     -0.865625    21A     -0.836607
      22A     -0.812296    23A     -0.803683    24A     -0.772119
      25A     -0.705241    26A     -0.704485    27A     -0.689481
      28A     -0.665853    29A     -0.656549    30A     -0.647785
      31A     -0.643589    32A     -0.635127    33A     -0.589953
      34A     -0.584910    35A     -0.582847    36A     -0.553089
      37A     -0.514395    38A     -0.505726    39A     -0.502333
      40A     -0.357462    41A     -0.345605

  @DF-RHF Final Energy:  -605.57321509899725

   => Energetics <=

    Nuclear Repulsion Energy =            632.2787966470301626
    One-Electron Energy =               -2088.7827062305577783
    Two-Electron Energy =                 850.9306944845304770
    Total Energy =                       -605.5732150989972524
  Basis Set: (AUG-CC-PVTZ AUX)
    Blend: AUG-CC-PVTZ-RI
    Molecular point group: c1

    Geometry (in Angstrom), charge = 0, multiplicity = 1:

       Center              X                  Y                   Z               Mass
    ------------   -----------------  -----------------  -----------------  -----------------
         F           -1.877612879569     0.506412357051    -0.994625594559    18.998403162730
         F           -1.845522879569    -1.494048642949    -0.142493594559    18.998403162730
         F           -1.841511879569     0.242562357051     1.166963405441    18.998403162730
         C            0.112048220431    -0.197036142949    -0.018803194559    12.000000000000
         C            0.837388120431     1.010110357051     0.007167405441    12.000000000000
         C            0.846623120431    -1.435396642949    -0.018547594559    12.000000000000
         C            2.236218120431     0.969686357051     0.012038405441    12.000000000000
         C           -1.344378879569    -0.245381642949     0.000577405441    12.000000000000
         C            0.126911120431     2.341021357051    -0.019603594559    12.000000000000
         C            2.240944120431    -1.444340642949    -0.011407594559    12.000000000000
         C            2.937340120431    -0.237206642949     0.008327405441    12.000000000000
         H            0.293979120431    -2.368939642949    -0.031672594559     1.007825032230
         H            2.786631120431     1.908374357051     0.030213405441     1.007825032230
         H           -0.254719879569     2.563972357051    -1.019967594559     1.007825032230
         H           -0.720145879569     2.360632357051     0.668271405441     1.007825032230
         H            0.819440120431     3.136528357051     0.266525405441     1.007825032230
         H            2.776369120431    -2.390073642949    -0.012992594559     1.007825032230
         H            4.024629120431    -0.231714642949     0.016298405441     1.007825032230

  Basis Set: AUG-CC-PVTZ
    Blend: AUG-CC-PVTZ
  Basis Set: (AUG-CC-PVTZ AUX)
    Blend: AUG-CC-PVTZ-JKFIT
	 Reference Energy          =    -605.5732150989972524 [Eh]
	 Singles Energy            =      -0.0000000000000000 [Eh]
	 Same-Spin Energy          =      -0.5637512983346789 [Eh]
	 Opposite-Spin Energy      =      -1.6980987709521578 [Eh]
	 Correlation Energy        =      -2.2618500692868366 [Eh]
	 Total Energy              =    -607.8350651682841317 [Eh]

	 ================> DF-SCS-MP2 Energies <==================
	-----------------------------------------------------------
	 SCS Same-Spin Scale       =       0.3333333333333333 [-]
	 SCS Opposite-Spin Scale   =       1.2000000000000000 [-]
	 SCS Same-Spin Energy      =      -0.1879170994448929 [Eh]
	 SCS Opposite-Spin Energy  =      -2.0377185251425893 [Eh]
	 SCS Correlation Energy    =      -2.2256356245874822 [Eh]
	 SCS Total Energy          =    -607.7988507235846782 [Eh]
	-----------------------------------------------------------

  Dipole Moment: [D]
     X:     2.6632      Y:     0.4166      Z:    -0.0616     Total:     2.6963

*** Psi4 exiting successfully. Buy a developer a beer!
