                               Psi4 1.4a3.dev225

  ==> Input File <==

--------------------------------------------------------------------------
#psi4
#
memory 32 gb

molecule  {
0 1
  F       -1.9734470     0.4735540    -0.9939180
  F       -1.9413570    -1.5269070    -0.1417860
  F       -1.9373460     0.2097040     1.1676710
  C        0.0587940    -0.2544720    -0.0183930
  C        0.7415540     0.9772520     0.0078750
  C        0.7507890    -1.4682550    -0.0178400
  C        2.1403840     0.9368280     0.0127460
  C       -1.4402130    -0.2782400     0.0012850
  C        0.0310770     2.3081630    -0.0188960
  C        2.0227327    -1.3977853    -0.0106244
  C        2.8415060    -0.2700650     0.0090350
  H        0.1981450    -2.4017980    -0.0309650
  H        2.6907970     1.8755160     0.0309210
  H       -0.3505540     2.5311140    -1.0192600
  H       -0.8159800     2.3277740     0.6689790
  H        0.7236060     3.1036700     0.2672330
  H        2.6805350    -2.4229320    -0.0122850
  H        3.9287950    -0.2645730     0.0170060
units angstrom
no_reorient  #important for SAPT in psi4, default
symmetry c1  #important for SAPT in psi4, default
}

set PROPERTIES_ORIGIN ["COM"]
properties('MP2/aug-cc-pvtz', properties = ['dipole'])
--------------------------------------------------------------------------

    Molecular point group: c1
  Charge       = 0
  Multiplicity = 1
  Basis Set: AUG-CC-PVTZ
    Blend: AUG-CC-PVTZ
  Basis Set: (AUG-CC-PVTZ AUX)
    Blend: AUG-CC-PVTZ-JKFIT

    Orbital Energies [Eh]
    ---------------------

    Doubly Occupied:

       1A    -26.336092     2A    -26.331506     3A    -26.330826
       4A    -11.508016     5A    -11.269264     6A    -11.264365
       7A    -11.257856     8A    -11.249607     9A    -11.246228
      10A    -11.242966    11A    -11.233949    12A     -1.717405
      13A     -1.626894    14A     -1.622959    15A     -1.193720
      16A     -1.075887    17A     -1.064971    18A     -0.981837
      19A     -0.932549    20A     -0.867962    21A     -0.834829
      22A     -0.811460    23A     -0.803812    24A     -0.767651
      25A     -0.705560    26A     -0.704576    27A     -0.693068
      28A     -0.670075    29A     -0.656837    30A     -0.647472
      31A     -0.643855    32A     -0.631839    33A     -0.602686
      34A     -0.585517    35A     -0.564432    36A     -0.556603
      37A     -0.521187    38A     -0.518020    39A     -0.475470
      40A     -0.364371    41A     -0.350153

  @DF-RHF Final Energy:  -605.54863186948216

   => Energetics <=

    Nuclear Repulsion Energy =            635.1211372402497091
    One-Electron Energy =               -2094.4108737943283813
    Two-Electron Energy =                 853.7411046845965075
    Total Energy =                       -605.5486318694821648
  Basis Set: (AUG-CC-PVTZ AUX)
    Blend: AUG-CC-PVTZ-RI
    Molecular point group: c1

    Geometry (in Angstrom), charge = 0, multiplicity = 1:

       Center              X                  Y                   Z               Mass
    ------------   -----------------  -----------------  -----------------  -----------------
         F           -1.871629943664     0.502300926480    -0.994608964754    18.998403162730
         F           -1.839539943664    -1.498160073520    -0.142476964754    18.998403162730
         F           -1.835528943664     0.238450926480     1.166980035246    18.998403162730
         C            0.160611056336    -0.225725073520    -0.019083964754    12.000000000000
         C            0.843371056336     1.005998926480     0.007184035246    12.000000000000
         C            0.852606056336    -1.439508073520    -0.018530964754    12.000000000000
         C            2.242201056336     0.965574926480     0.012055035246    12.000000000000
         C           -1.338395943664    -0.249493073520     0.000594035246    12.000000000000
         C            0.132894056336     2.336909926480    -0.019586964754    12.000000000000
         C            2.124549756336    -1.369038373520    -0.011315364754    12.000000000000
         C            2.943323056336    -0.241318073520     0.008344035246    12.000000000000
         H            0.299962056336    -2.373051073520    -0.031655964754     1.007825032230
         H            2.792614056336     1.904262926480     0.030230035246     1.007825032230
         H           -0.248736943664     2.559860926480    -1.019950964754     1.007825032230
         H           -0.714162943664     2.356520926480     0.668288035246     1.007825032230
         H            0.825423056336     3.132416926480     0.266542035246     1.007825032230
         H            2.782352056336    -2.394185073520    -0.012975964754     1.007825032230
         H            4.030612056336    -0.235826073520     0.016315035246     1.007825032230

  Basis Set: AUG-CC-PVTZ
    Blend: AUG-CC-PVTZ
  Basis Set: (AUG-CC-PVTZ AUX)
    Blend: AUG-CC-PVTZ-JKFIT
	 Reference Energy          =    -605.5486318694821648 [Eh]
	 Singles Energy            =      -0.0000000000000000 [Eh]
	 Same-Spin Energy          =      -0.5640806401036980 [Eh]
	 Opposite-Spin Energy      =      -1.6984942358745525 [Eh]
	 Correlation Energy        =      -2.2625748759782507 [Eh]
	 Total Energy              =    -607.8112067454603675 [Eh]

	 ================> DF-SCS-MP2 Energies <==================
	-----------------------------------------------------------
	 SCS Same-Spin Scale       =       0.3333333333333333 [-]
	 SCS Opposite-Spin Scale   =       1.2000000000000000 [-]
	 SCS Same-Spin Energy      =      -0.1880268800345660 [Eh]
	 SCS Opposite-Spin Energy  =      -2.0381930830494630 [Eh]
	 SCS Correlation Energy    =      -2.2262199630840289 [Eh]
	 SCS Total Energy          =    -607.7748518325662417 [Eh]
	-----------------------------------------------------------

  Dipole Moment: [D]
     X:     2.5635      Y:     0.5620      Z:    -0.0619     Total:     2.6251

*** Psi4 exiting successfully. Buy a developer a beer!
