                               Psi4 1.4a3.dev225

  ==> Input File <==

--------------------------------------------------------------------------
#psi4
#
memory 32 gb

molecule  {
0 1
  F       -1.9734470     0.4735540    -0.9939180
  F       -1.9413570    -1.5269070    -0.1417860
  F       -1.9373460     0.2097040     1.1676710
  C        0.0587940    -0.2544720    -0.0183930
  C        0.7415540     0.9772520     0.0078750
  C        0.7507890    -1.4682550    -0.0178400
  C        2.1403840     0.9368280     0.0127460
  C       -1.4402130    -0.2782400     0.0012850
  C        0.0310770     2.3081630    -0.0188960
  C        2.1451100    -1.4771990    -0.0107000
  C        2.8415060    -0.2700650     0.0090350
  H        0.1981450    -2.4017980    -0.0309650
  H        2.6907970     1.8755160     0.0309210
  H       -0.3505540     2.5311140    -1.0192600
  H       -0.8080239     2.3424861     0.6780930
  H        0.7236060     3.1036700     0.2672330
  H        2.6805350    -2.4229320    -0.0122850
  H        3.9287950    -0.2645730     0.0170060
units angstrom
no_reorient  #important for SAPT in psi4, default
symmetry c1  #important for SAPT in psi4, default
}

set PROPERTIES_ORIGIN ["COM"]
properties('MP2/aug-cc-pvtz', properties = ['dipole'])
--------------------------------------------------------------------------

    Molecular point group: c1
  Charge       = 0
  Multiplicity = 1
  Basis Set: AUG-CC-PVTZ
    Blend: AUG-CC-PVTZ
  Basis Set: (AUG-CC-PVTZ AUX)
    Blend: AUG-CC-PVTZ-JKFIT

    Orbital Energies [Eh]
    ---------------------

    Doubly Occupied:

       1A    -26.335355     2A    -26.331718     3A    -26.330829
       4A    -11.508548     5A    -11.270429     6A    -11.264835
       7A    -11.259711     8A    -11.256647     9A    -11.248866
      10A    -11.248320    11A    -11.233941    12A     -1.717202
      13A     -1.626476    14A     -1.622989    15A     -1.180554
      16A     -1.071907    17A     -1.057027    18A     -0.973502
      19A     -0.937146    20A     -0.861870    21A     -0.837107
      22A     -0.811349    23A     -0.803606    24A     -0.774047
      25A     -0.704479    26A     -0.704077    27A     -0.689209
      28A     -0.665669    29A     -0.656643    30A     -0.648563
      31A     -0.643707    32A     -0.634688    33A     -0.589829
      34A     -0.585638    35A     -0.580980    36A     -0.552458
      37A     -0.509255    38A     -0.508883    39A     -0.506700
      40A     -0.360464    41A     -0.344414

  @DF-RHF Final Energy:  -605.57754010316376

   => Energetics <=

    Nuclear Repulsion Energy =            632.0031436511533229
    One-Electron Energy =               -2088.2620935659124370
    Two-Electron Energy =                 850.6814098115953584
    Total Energy =                       -605.5775401031637557
  Basis Set: (AUG-CC-PVTZ AUX)
    Blend: AUG-CC-PVTZ-RI
    Molecular point group: c1

    Geometry (in Angstrom), charge = 0, multiplicity = 1:

       Center              X                  Y                   Z               Mass
    ------------   -----------------  -----------------  -----------------  -----------------
         F           -1.880855473797     0.508162452672    -0.994660686829    18.998403162730
         F           -1.848765473797    -1.492298547328    -0.142528686829    18.998403162730
         F           -1.844754473797     0.244312452672     1.166928313171    18.998403162730
         C            0.151385526203    -0.219863547328    -0.019135686829    12.000000000000
         C            0.834145526203     1.011860452672     0.007132313171    12.000000000000
         C            0.843380526203    -1.433646547328    -0.018582686829    12.000000000000
         C            2.232975526203     0.971436452672     0.012003313171    12.000000000000
         C           -1.347621473797    -0.243631547328     0.000542313171    12.000000000000
         C            0.123668526203     2.342771452672    -0.019638686829    12.000000000000
         C            2.237701526203    -1.442590547328    -0.011442686829    12.000000000000
         C            2.934097526203    -0.235456547328     0.008292313171    12.000000000000
         H            0.290736526203    -2.367189547328    -0.031707686829     1.007825032230
         H            2.783388526203     1.910124452672     0.030178313171     1.007825032230
         H           -0.257962473797     2.565722452672    -1.020002686829     1.007825032230
         H           -0.715432373797     2.377094552672     0.677350313171     1.007825032230
         H            0.816197526203     3.138278452672     0.266490313171     1.007825032230
         H            2.773126526203    -2.388323547328    -0.013027686829     1.007825032230
         H            4.021386526203    -0.229964547328     0.016263313171     1.007825032230

  Basis Set: AUG-CC-PVTZ
    Blend: AUG-CC-PVTZ
  Basis Set: (AUG-CC-PVTZ AUX)
    Blend: AUG-CC-PVTZ-JKFIT
	 Reference Energy          =    -605.5775401031637557 [Eh]
	 Singles Energy            =      -0.0000000000000000 [Eh]
	 Same-Spin Energy          =      -0.5633232675953286 [Eh]
	 Opposite-Spin Energy      =      -1.6973087789436736 [Eh]
	 Correlation Energy        =      -2.2606320465390022 [Eh]
	 Total Energy              =    -607.8381721497028138 [Eh]

	 ================> DF-SCS-MP2 Energies <==================
	-----------------------------------------------------------
	 SCS Same-Spin Scale       =       0.3333333333333333 [-]
	 SCS Opposite-Spin Scale   =       1.2000000000000000 [-]
	 SCS Same-Spin Energy      =      -0.1877744225317762 [Eh]
	 SCS Opposite-Spin Energy  =      -2.0367705347324083 [Eh]
	 SCS Correlation Energy    =      -2.2245449572641847 [Eh]
	 SCS Total Energy          =    -607.8020850604278849 [Eh]
	-----------------------------------------------------------

  Dipole Moment: [D]
     X:     2.6009      Y:     0.4357      Z:    -0.0577     Total:     2.6378

*** Psi4 exiting successfully. Buy a developer a beer!
