                               Psi4 1.4a3.dev225

  ==> Input File <==

--------------------------------------------------------------------------
#psi4
#
memory 32 gb

molecule  {
0 1
  F       -1.9734470     0.4735540    -0.9939180
  F       -1.9413570    -1.5269070    -0.1417860
  F       -1.9373460     0.2097040     1.1676710
  C        0.0587940    -0.2544720    -0.0183930
  C        0.7415540     0.9772520     0.0078750
  C        0.7507890    -1.4682550    -0.0178400
  C        2.1403840     0.9368280     0.0127460
  C       -1.4402130    -0.2782400     0.0012850
  C        0.0216599     2.3258037    -0.0192508
  C        2.1451100    -1.4771990    -0.0107000
  C        2.8415060    -0.2700650     0.0090350
  H        0.1981450    -2.4017980    -0.0309650
  H        2.6907970     1.8755160     0.0309210
  H       -0.3505540     2.5311140    -1.0192600
  H       -0.8159800     2.3277740     0.6689790
  H        0.7236060     3.1036700     0.2672330
  H        2.6805350    -2.4229320    -0.0122850
  H        3.9287950    -0.2645730     0.0170060
units angstrom
no_reorient  #important for SAPT in psi4, default
symmetry c1  #important for SAPT in psi4, default
}

set PROPERTIES_ORIGIN ["COM"]
properties('MP2/aug-cc-pvtz', properties = ['dipole'])
--------------------------------------------------------------------------

    Molecular point group: c1
  Charge       = 0
  Multiplicity = 1
  Basis Set: AUG-CC-PVTZ
    Blend: AUG-CC-PVTZ
  Basis Set: (AUG-CC-PVTZ AUX)
    Blend: AUG-CC-PVTZ-JKFIT

    Orbital Energies [Eh]
    ---------------------

    Doubly Occupied:

       1A    -26.335392     2A    -26.331876     3A    -26.331047
       4A    -11.508588     5A    -11.271030     6A    -11.264768
       7A    -11.259629     8A    -11.256581     9A    -11.248738
      10A    -11.248232    11A    -11.233634    12A     -1.717336
      13A     -1.626568    14A     -1.623186    15A     -1.179842
      16A     -1.071178    17A     -1.055688    18A     -0.973393
      19A     -0.937733    20A     -0.861752    21A     -0.837243
      22A     -0.811491    23A     -0.803624    24A     -0.774006
      25A     -0.704609    26A     -0.704145    27A     -0.688615
      28A     -0.665833    29A     -0.656793    30A     -0.648207
      31A     -0.643885    32A     -0.634102    33A     -0.589345
      34A     -0.586811    35A     -0.578421    36A     -0.556951
      37A     -0.509996    38A     -0.509503    39A     -0.504204
      40A     -0.360370    41A     -0.344678

  @DF-RHF Final Energy:  -605.57746403303099

   => Energetics <=

    Nuclear Repulsion Energy =            631.6828469732917029
    One-Electron Energy =               -2087.6225764838400210
    Two-Electron Energy =                 850.3622654775172123
    Total Energy =                       -605.5774640330309921
  Basis Set: (AUG-CC-PVTZ AUX)
    Blend: AUG-CC-PVTZ-RI
    Molecular point group: c1

    Geometry (in Angstrom), charge = 0, multiplicity = 1:

       Center              X                  Y                   Z               Mass
    ------------   -----------------  -----------------  -----------------  -----------------
         F           -1.880099312796     0.506932454570    -0.994576694835    18.998403162730
         F           -1.848009312796    -1.493528545430    -0.142444694835    18.998403162730
         F           -1.843998312796     0.243082454570     1.167012305165    18.998403162730
         C            0.152141687204    -0.221093545430    -0.019051694835    12.000000000000
         C            0.834901687204     1.010630454570     0.007216305165    12.000000000000
         C            0.844136687204    -1.434876545430    -0.018498694835    12.000000000000
         C            2.233731687204     0.970206454570     0.012087305165    12.000000000000
         C           -1.346865312796    -0.244861545430     0.000626305165    12.000000000000
         C            0.115007587204     2.359182154570    -0.019909494835    12.000000000000
         C            2.238457687204    -1.443820545430    -0.011358694835    12.000000000000
         C            2.934853687204    -0.236686545430     0.008376305165    12.000000000000
         H            0.291492687204    -2.368419545430    -0.031623694835     1.007825032230
         H            2.784144687204     1.908894454570     0.030262305165     1.007825032230
         H           -0.257206312796     2.564492454570    -1.019918694835     1.007825032230
         H           -0.722632312796     2.361152454570     0.668320305165     1.007825032230
         H            0.816953687204     3.137048454570     0.266574305165     1.007825032230
         H            2.773882687204    -2.389553545430    -0.012943694835     1.007825032230
         H            4.022142687204    -0.231194545430     0.016347305165     1.007825032230

  Basis Set: AUG-CC-PVTZ
    Blend: AUG-CC-PVTZ
  Basis Set: (AUG-CC-PVTZ AUX)
    Blend: AUG-CC-PVTZ-JKFIT
	 Reference Energy          =    -605.5774640330309921 [Eh]
	 Singles Energy            =      -0.0000000000000000 [Eh]
	 Same-Spin Energy          =      -0.5631636945199988 [Eh]
	 Opposite-Spin Energy      =      -1.6971744112412996 [Eh]
	 Correlation Energy        =      -2.2603381057612983 [Eh]
	 Total Energy              =    -607.8378021387923127 [Eh]

	 ================> DF-SCS-MP2 Energies <==================
	-----------------------------------------------------------
	 SCS Same-Spin Scale       =       0.3333333333333333 [-]
	 SCS Opposite-Spin Scale   =       1.2000000000000000 [-]
	 SCS Same-Spin Energy      =      -0.1877212315066663 [Eh]
	 SCS Opposite-Spin Energy  =      -2.0366092934895597 [Eh]
	 SCS Correlation Energy    =      -2.2243305249962257 [Eh]
	 SCS Total Energy          =    -607.8017945580272681 [Eh]
	-----------------------------------------------------------

  Dipole Moment: [D]
     X:     2.6001      Y:     0.4299      Z:    -0.0621     Total:     2.6361

*** Psi4 exiting successfully. Buy a developer a beer!
