                               Psi4 1.4a3.dev225

  ==> Input File <==

--------------------------------------------------------------------------
#psi4
#
memory 32 gb

molecule  {
0 1
  F       -1.8996649     0.3927314    -1.0843775
  F       -1.9413570    -1.5269070    -0.1417860
  F       -1.9373460     0.2097040     1.1676710
  C        0.0587940    -0.2544720    -0.0183930
  C        0.7415540     0.9772520     0.0078750
  C        0.7507890    -1.4682550    -0.0178400
  C        2.1403840     0.9368280     0.0127460
  C       -1.4402130    -0.2782400     0.0012850
  C        0.0310770     2.3081630    -0.0188960
  C        2.1451100    -1.4771990    -0.0107000
  C        2.8415060    -0.2700650     0.0090350
  H        0.1981450    -2.4017980    -0.0309650
  H        2.6907970     1.8755160     0.0309210
  H       -0.3505540     2.5311140    -1.0192600
  H       -0.8159800     2.3277740     0.6689790
  H        0.7236060     3.1036700     0.2672330
  H        2.6805350    -2.4229320    -0.0122850
  H        3.9287950    -0.2645730     0.0170060
units angstrom
no_reorient  #important for SAPT in psi4, default
symmetry c1  #important for SAPT in psi4, default
}

set PROPERTIES_ORIGIN ["COM"]
properties('MP2/aug-cc-pvtz', properties = ['dipole'])
--------------------------------------------------------------------------

    Molecular point group: c1
  Charge       = 0
  Multiplicity = 1
  Basis Set: AUG-CC-PVTZ
    Blend: AUG-CC-PVTZ
  Basis Set: (AUG-CC-PVTZ AUX)
    Blend: AUG-CC-PVTZ-JKFIT

    Orbital Energies [Eh]
    ---------------------

    Doubly Occupied:

       1A    -26.339571     2A    -26.333725     3A    -26.332767
       4A    -11.509731     5A    -11.268775     6A    -11.263052
       7A    -11.257752     8A    -11.254867     9A    -11.247736
      10A    -11.247367    11A    -11.234345    12A     -1.717978
      13A     -1.632666    14A     -1.622870    15A     -1.179284
      16A     -1.071171    17A     -1.056141    18A     -0.973552
      19A     -0.937263    20A     -0.861471    21A     -0.835315
      22A     -0.818530    23A     -0.801432    24A     -0.773572
      25A     -0.711460    26A     -0.701601    27A     -0.687771
      28A     -0.665530    29A     -0.664344    30A     -0.647869
      31A     -0.645851    32A     -0.633646    33A     -0.588338
      34A     -0.585074    35A     -0.578773    36A     -0.553716
      37A     -0.508382    38A     -0.507711    39A     -0.505008
      40A     -0.358474    41A     -0.343161

  @DF-RHF Final Energy:  -605.57422961319685

   => Energetics <=

    Nuclear Repulsion Energy =            632.2673006321367666
    One-Electron Energy =               -2088.7677813543077718
    Two-Electron Energy =                 850.9262511089741565
    Total Energy =                       -605.5742296131968487
  Basis Set: (AUG-CC-PVTZ AUX)
    Blend: AUG-CC-PVTZ-RI
    Molecular point group: c1

    Geometry (in Angstrom), charge = 0, multiplicity = 1:

       Center              X                  Y                   Z               Mass
    ------------   -----------------  -----------------  -----------------  -----------------
         F           -1.815781426646     0.437026373822    -1.074324988246    18.998403162730
         F           -1.857473526646    -1.482612026178    -0.131733488246    18.998403162730
         F           -1.853462526646     0.253998973822     1.177723511754    18.998403162730
         C            0.142677473354    -0.210177026178    -0.008340488246    12.000000000000
         C            0.825437473354     1.021546973822     0.017927511754    12.000000000000
         C            0.834672473354    -1.423960026178    -0.007787488246    12.000000000000
         C            2.224267473354     0.981122973822     0.022798511754    12.000000000000
         C           -1.356329526646    -0.233945026178     0.011337511754    12.000000000000
         C            0.114960473354     2.352457973822    -0.008843488246    12.000000000000
         C            2.228993473354    -1.432904026178    -0.000647488246    12.000000000000
         C            2.925389473354    -0.225770026178     0.019087511754    12.000000000000
         H            0.282028473354    -2.357503026178    -0.020912488246     1.007825032230
         H            2.774680473354     1.919810973822     0.040973511754     1.007825032230
         H           -0.266670526646     2.575408973822    -1.009207488246     1.007825032230
         H           -0.732096526646     2.372068973822     0.679031511754     1.007825032230
         H            0.807489473354     3.147964973822     0.277285511754     1.007825032230
         H            2.764418473354    -2.378637026178    -0.002232488246     1.007825032230
         H            4.012678473354    -0.220278026178     0.027058511754     1.007825032230

  Basis Set: AUG-CC-PVTZ
    Blend: AUG-CC-PVTZ
  Basis Set: (AUG-CC-PVTZ AUX)
    Blend: AUG-CC-PVTZ-JKFIT
	 Reference Energy          =    -605.5742296131968487 [Eh]
	 Singles Energy            =      -0.0000000000000000 [Eh]
	 Same-Spin Energy          =      -0.5635277582006505 [Eh]
	 Opposite-Spin Energy      =      -1.6978419130861209 [Eh]
	 Correlation Energy        =      -2.2613696712867712 [Eh]
	 Total Energy              =    -607.8355992844835782 [Eh]

	 ================> DF-SCS-MP2 Energies <==================
	-----------------------------------------------------------
	 SCS Same-Spin Scale       =       0.3333333333333333 [-]
	 SCS Opposite-Spin Scale   =       1.2000000000000000 [-]
	 SCS Same-Spin Energy      =      -0.1878425860668835 [Eh]
	 SCS Opposite-Spin Energy  =      -2.0374102957033449 [Eh]
	 SCS Correlation Energy    =      -2.2252528817702282 [Eh]
	 SCS Total Energy          =    -607.7994824949670374 [Eh]
	-----------------------------------------------------------

  Dipole Moment: [D]
     X:     2.4101      Y:     0.5395      Z:     0.0364     Total:     2.4700

*** Psi4 exiting successfully. Buy a developer a beer!
