                               Psi4 1.4a3.dev225

  ==> Input File <==

--------------------------------------------------------------------------
#psi4
#
memory 32 gb

molecule  {
0 1
  F       -1.9734470     0.4735540    -0.9939180
  F       -1.9413570    -1.5269070    -0.1417860
  F       -1.9373460     0.2097040     1.1676710
  C        0.0587940    -0.2544720    -0.0183930
  C        0.8706668     1.0564478     0.0526322
  C        0.7507890    -1.4682550    -0.0178400
  C        2.1403840     0.9368280     0.0127460
  C       -1.4402130    -0.2782400     0.0012850
  C        0.0310770     2.3081630    -0.0188960
  C        2.1451100    -1.4771990    -0.0107000
  C        2.8415060    -0.2700650     0.0090350
  H        0.1981450    -2.4017980    -0.0309650
  H        2.6907970     1.8755160     0.0309210
  H       -0.3505540     2.5311140    -1.0192600
  H       -0.8159800     2.3277740     0.6689790
  H        0.7236060     3.1036700     0.2672330
  H        2.6805350    -2.4229320    -0.0122850
  H        3.9287950    -0.2645730     0.0170060
units angstrom
no_reorient  #important for SAPT in psi4, default
symmetry c1  #important for SAPT in psi4, default
}

set PROPERTIES_ORIGIN ["COM"]
properties('MP2/aug-cc-pvtz', properties = ['dipole'])
--------------------------------------------------------------------------

    Molecular point group: c1
  Charge       = 0
  Multiplicity = 1
  Basis Set: AUG-CC-PVTZ
    Blend: AUG-CC-PVTZ
  Basis Set: (AUG-CC-PVTZ AUX)
    Blend: AUG-CC-PVTZ-JKFIT

    Orbital Energies [Eh]
    ---------------------

    Doubly Occupied:

       1A    -26.335228     2A    -26.330900     3A    -26.330214
       4A    -11.509613     5A    -11.272226     6A    -11.266481
       7A    -11.261038     8A    -11.258948     9A    -11.250012
      10A    -11.233607    11A    -11.233449    12A     -1.716596
      13A     -1.625963    14A     -1.622305    15A     -1.180290
      16A     -1.072828    17A     -1.062574    18A     -0.975544
      19A     -0.939025    20A     -0.868257    21A     -0.823951
      22A     -0.810760    23A     -0.798468    24A     -0.779576
      25A     -0.704249    26A     -0.703292    27A     -0.690260
      28A     -0.663633    29A     -0.655919    30A     -0.647555
      31A     -0.643131    32A     -0.632718    33A     -0.602052
      34A     -0.585040    35A     -0.576074    36A     -0.550017
      37A     -0.526882    38A     -0.509217    39A     -0.475868
      40A     -0.372857    41A     -0.339928

  @DF-RHF Final Energy:  -605.54925846387891

   => Energetics <=

    Nuclear Repulsion Energy =            630.6778319359962097
    One-Electron Energy =               -2085.5810890509214914
    Two-Electron Energy =                 849.3539986510463677
    Total Energy =                       -605.5492584638789140
  Basis Set: (AUG-CC-PVTZ AUX)
    Blend: AUG-CC-PVTZ-RI
    Molecular point group: c1

    Geometry (in Angstrom), charge = 0, multiplicity = 1:

       Center              X                  Y                   Z               Mass
    ------------   -----------------  -----------------  -----------------  -----------------
         F           -1.890485810507     0.502317263876    -0.997959038176    18.998403162730
         F           -1.858395810507    -1.498143736124    -0.145827038176    18.998403162730
         F           -1.854384810507     0.238467263876     1.163629961824    18.998403162730
         C            0.141755189493    -0.225708736124    -0.022434038176    12.000000000000
         C            0.953627989493     1.085211063876     0.048591161824    12.000000000000
         C            0.833750189493    -1.439491736124    -0.021881038176    12.000000000000
         C            2.223345189493     0.965591263876     0.008704961824    12.000000000000
         C           -1.357251810507    -0.249476736124    -0.002756038176    12.000000000000
         C            0.114038189493     2.336926263876    -0.022937038176    12.000000000000
         C            2.228071189493    -1.448435736124    -0.014741038176    12.000000000000
         C            2.924467189493    -0.241301736124     0.004993961824    12.000000000000
         H            0.281106189493    -2.373034736124    -0.035006038176     1.007825032230
         H            2.773758189493     1.904279263876     0.026879961824     1.007825032230
         H           -0.267592810507     2.559877263876    -1.023301038176     1.007825032230
         H           -0.733018810507     2.356537263876     0.664937961824     1.007825032230
         H            0.806567189493     3.132433263876     0.263191961824     1.007825032230
         H            2.763496189493    -2.394168736124    -0.016326038176     1.007825032230
         H            4.011756189493    -0.235809736124     0.012964961824     1.007825032230

  Basis Set: AUG-CC-PVTZ
    Blend: AUG-CC-PVTZ
  Basis Set: (AUG-CC-PVTZ AUX)
    Blend: AUG-CC-PVTZ-JKFIT
	 Reference Energy          =    -605.5492584638789140 [Eh]
	 Singles Energy            =      -0.0000000000000000 [Eh]
	 Same-Spin Energy          =      -0.5625346119062977 [Eh]
	 Opposite-Spin Energy      =      -1.6983399140698994 [Eh]
	 Correlation Energy        =      -2.2608745259761971 [Eh]
	 Total Energy              =    -607.8101329898551057 [Eh]

	 ================> DF-SCS-MP2 Energies <==================
	-----------------------------------------------------------
	 SCS Same-Spin Scale       =       0.3333333333333333 [-]
	 SCS Opposite-Spin Scale   =       1.2000000000000000 [-]
	 SCS Same-Spin Energy      =      -0.1875115373020992 [Eh]
	 SCS Opposite-Spin Energy  =      -2.0380078968838791 [Eh]
	 SCS Correlation Energy    =      -2.2255194341859781 [Eh]
	 SCS Total Energy          =    -607.7747778980649400 [Eh]
	-----------------------------------------------------------

  Dipole Moment: [D]
     X:     2.5887      Y:     0.3700      Z:    -0.0731     Total:     2.6160

*** Psi4 exiting successfully. Buy a developer a beer!
