                               Psi4 1.4a3.dev225

  ==> Input File <==

--------------------------------------------------------------------------
#psi4
#
memory 32 gb

molecule  {
0 1
  F       -1.9734470     0.4735540    -0.9939180
  F       -1.9413570    -1.5269070    -0.1417860
  F       -1.9373460     0.2097040     1.1676710
  C        0.0587940    -0.2544720    -0.0183930
  C        0.7855283     1.0020700     0.0228510
  C        0.7507890    -1.4682550    -0.0178400
  C        2.1403840     0.9368280     0.0127460
  C       -1.4402130    -0.2782400     0.0012850
  C        0.0310770     2.3081630    -0.0188960
  C        2.1451100    -1.4771990    -0.0107000
  C        2.8415060    -0.2700650     0.0090350
  H        0.1981450    -2.4017980    -0.0309650
  H        2.6907970     1.8755160     0.0309210
  H       -0.3505540     2.5311140    -1.0192600
  H       -0.8159800     2.3277740     0.6689790
  H        0.7236060     3.1036700     0.2672330
  H        2.6805350    -2.4229320    -0.0122850
  H        3.9287950    -0.2645730     0.0170060
units angstrom
no_reorient  #important for SAPT in psi4, default
symmetry c1  #important for SAPT in psi4, default
}

set PROPERTIES_ORIGIN ["COM"]
properties('MP2/aug-cc-pvtz', properties = ['dipole'])
--------------------------------------------------------------------------

    Molecular point group: c1
  Charge       = 0
  Multiplicity = 1
  Basis Set: AUG-CC-PVTZ
    Blend: AUG-CC-PVTZ
  Basis Set: (AUG-CC-PVTZ AUX)
    Blend: AUG-CC-PVTZ-JKFIT

    Orbital Energies [Eh]
    ---------------------

    Doubly Occupied:

       1A    -26.335529     2A    -26.331561     3A    -26.330783
       4A    -11.509181     5A    -11.269517     6A    -11.267791
       7A    -11.260376     8A    -11.257545     9A    -11.249001
      10A    -11.243424    11A    -11.233510    12A     -1.717167
      13A     -1.626477    14A     -1.622914    15A     -1.179751
      16A     -1.068692    17A     -1.062101    18A     -0.974163
      19A     -0.937307    20A     -0.863958    21A     -0.832274
      22A     -0.811313    23A     -0.802372    24A     -0.776563
      25A     -0.704475    26A     -0.704021    27A     -0.689468
      28A     -0.665416    29A     -0.656537    30A     -0.648523
      31A     -0.643676    32A     -0.634103    33A     -0.593374
      34A     -0.584649    35A     -0.578825    36A     -0.552426
      37A     -0.514850    38A     -0.508636    39A     -0.499683
      40A     -0.361300    41A     -0.345016

  @DF-RHF Final Energy:  -605.57440160945896

   => Energetics <=

    Nuclear Repulsion Energy =            631.5741867160722904
    One-Electron Energy =               -2087.4006814784529524
    Two-Electron Energy =                 850.2520931529217023
    Total Energy =                       -605.5744016094589597
  Basis Set: (AUG-CC-PVTZ AUX)
    Blend: AUG-CC-PVTZ-RI
    Molecular point group: c1

    Geometry (in Angstrom), charge = 0, multiplicity = 1:

       Center              X                  Y                   Z               Mass
    ------------   -----------------  -----------------  -----------------  -----------------
         F           -1.884102417208     0.506394325184    -0.995726145742    18.998403162730
         F           -1.852012417208    -1.494066674816    -0.143594145742    18.998403162730
         F           -1.848001417208     0.242544325184     1.165862854258    18.998403162730
         C            0.148138582792    -0.221631674816    -0.020201145742    12.000000000000
         C            0.874872882792     1.034910325184     0.021042854258    12.000000000000
         C            0.840133582792    -1.435414674816    -0.019648145742    12.000000000000
         C            2.229728582792     0.969668325184     0.010937854258    12.000000000000
         C           -1.350868417208    -0.245399674816    -0.000523145742    12.000000000000
         C            0.120421582792     2.341003325184    -0.020704145742    12.000000000000
         C            2.234454582792    -1.444358674816    -0.012508145742    12.000000000000
         C            2.930850582792    -0.237224674816     0.007226854258    12.000000000000
         H            0.287489582792    -2.368957674816    -0.032773145742     1.007825032230
         H            2.780141582792     1.908356325184     0.029112854258     1.007825032230
         H           -0.261209417208     2.563954325184    -1.021068145742     1.007825032230
         H           -0.726635417208     2.360614325184     0.667170854258     1.007825032230
         H            0.812950582792     3.136510325184     0.265424854258     1.007825032230
         H            2.769879582792    -2.390091674816    -0.014093145742     1.007825032230
         H            4.018139582792    -0.231732674816     0.015197854258     1.007825032230

  Basis Set: AUG-CC-PVTZ
    Blend: AUG-CC-PVTZ
  Basis Set: (AUG-CC-PVTZ AUX)
    Blend: AUG-CC-PVTZ-JKFIT
	 Reference Energy          =    -605.5744016094589597 [Eh]
	 Singles Energy            =      -0.0000000000000000 [Eh]
	 Same-Spin Energy          =      -0.5631647037096710 [Eh]
	 Opposite-Spin Energy      =      -1.6974147374457893 [Eh]
	 Correlation Energy        =      -2.2605794411554605 [Eh]
	 Total Energy              =    -607.8349810506143740 [Eh]

	 ================> DF-SCS-MP2 Energies <==================
	-----------------------------------------------------------
	 SCS Same-Spin Scale       =       0.3333333333333333 [-]
	 SCS Opposite-Spin Scale   =       1.2000000000000000 [-]
	 SCS Same-Spin Energy      =      -0.1877215679032236 [Eh]
	 SCS Opposite-Spin Energy  =      -2.0368976849349472 [Eh]
	 SCS Correlation Energy    =      -2.2246192528381710 [Eh]
	 SCS Total Energy          =    -607.7990208622970840 [Eh]
	-----------------------------------------------------------

  Dipole Moment: [D]
     X:     2.5922      Y:     0.4062      Z:    -0.0663     Total:     2.6247

*** Psi4 exiting successfully. Buy a developer a beer!
