                               Psi4 1.4a3.dev225

  ==> Input File <==

--------------------------------------------------------------------------
#psi4
#
memory 32 gb

molecule  {
0 1
  F       -1.9734470     0.4735540    -0.9939180
  F       -1.9413570    -1.5269070    -0.1417860
  F       -1.9373460     0.2097040     1.1676710
  C        0.0587940    -0.2544720    -0.0183930
  C        0.7410631     0.9528363     0.0074572
  C        0.7507890    -1.4682550    -0.0178400
  C        2.1403840     0.9368280     0.0127460
  C       -1.4402130    -0.2782400     0.0012850
  C        0.0310770     2.3081630    -0.0188960
  C        2.1451100    -1.4771990    -0.0107000
  C        2.8415060    -0.2700650     0.0090350
  H        0.1981450    -2.4017980    -0.0309650
  H        2.6907970     1.8755160     0.0309210
  H       -0.3505540     2.5311140    -1.0192600
  H       -0.8159800     2.3277740     0.6689790
  H        0.7236060     3.1036700     0.2672330
  H        2.6805350    -2.4229320    -0.0122850
  H        3.9287950    -0.2645730     0.0170060
units angstrom
no_reorient  #important for SAPT in psi4, default
symmetry c1  #important for SAPT in psi4, default
}

set PROPERTIES_ORIGIN ["COM"]
properties('MP2/aug-cc-pvtz', properties = ['dipole'])
--------------------------------------------------------------------------

    Molecular point group: c1
  Charge       = 0
  Multiplicity = 1
  Basis Set: AUG-CC-PVTZ
    Blend: AUG-CC-PVTZ
  Basis Set: (AUG-CC-PVTZ AUX)
    Blend: AUG-CC-PVTZ-JKFIT

    Orbital Energies [Eh]
    ---------------------

    Doubly Occupied:

       1A    -26.335833     2A    -26.331974     3A    -26.331189
       4A    -11.509100     5A    -11.268751     6A    -11.262992
       7A    -11.259563     8A    -11.256467     9A    -11.248721
      10A    -11.248336    11A    -11.234466    12A     -1.717574
      13A     -1.626861    14A     -1.623308    15A     -1.182679
      16A     -1.072478    17A     -1.054910    18A     -0.972433
      19A     -0.937051    20A     -0.862257    21A     -0.839198
      22A     -0.811709    23A     -0.804441    24A     -0.774243
      25A     -0.704798    26A     -0.704319    27A     -0.689358
      28A     -0.666211    29A     -0.656949    30A     -0.648330
      31A     -0.644020    32A     -0.635094    33A     -0.589803
      34A     -0.583199    35A     -0.579400    36A     -0.553266
      37A     -0.512831    38A     -0.510196    39A     -0.501608
      40A     -0.361473    41A     -0.345396

  @DF-RHF Final Energy:  -605.57741020875517

   => Energetics <=

    Nuclear Repulsion Energy =            632.3299318086508265
    One-Electron Energy =               -2088.9091112446767511
    Two-Electron Energy =                 851.0017692272707563
    Total Energy =                       -605.5774102087551682
  Basis Set: (AUG-CC-PVTZ AUX)
    Blend: AUG-CC-PVTZ-RI
    Molecular point group: c1

    Geometry (in Angstrom), charge = 0, multiplicity = 1:

       Center              X                  Y                   Z               Mass
    ------------   -----------------  -----------------  -----------------  -----------------
         F           -1.880768568717     0.510085699482    -0.994571971311    18.998403162730
         F           -1.848678568717    -1.490375300518    -0.142439971311    18.998403162730
         F           -1.844667568717     0.246235699482     1.167017028689    18.998403162730
         C            0.151472431283    -0.217940300518    -0.019046971311    12.000000000000
         C            0.833741531283     0.989367999482     0.006803228689    12.000000000000
         C            0.843467431283    -1.431723300518    -0.018493971311    12.000000000000
         C            2.233062431283     0.973359699482     0.012092028689    12.000000000000
         C           -1.347534568717    -0.241708300518     0.000631028689    12.000000000000
         C            0.123755431283     2.344694699482    -0.019549971311    12.000000000000
         C            2.237788431283    -1.440667300518    -0.011353971311    12.000000000000
         C            2.934184431283    -0.233533300518     0.008381028689    12.000000000000
         H            0.290823431283    -2.365266300518    -0.031618971311     1.007825032230
         H            2.783475431283     1.912047699482     0.030267028689     1.007825032230
         H           -0.257875568717     2.567645699482    -1.019913971311     1.007825032230
         H           -0.723301568717     2.364305699482     0.668325028689     1.007825032230
         H            0.816284431283     3.140201699482     0.266579028689     1.007825032230
         H            2.773213431283    -2.386400300518    -0.012938971311     1.007825032230
         H            4.021473431283    -0.228041300518     0.016352028689     1.007825032230

  Basis Set: AUG-CC-PVTZ
    Blend: AUG-CC-PVTZ
  Basis Set: (AUG-CC-PVTZ AUX)
    Blend: AUG-CC-PVTZ-JKFIT
	 Reference Energy          =    -605.5774102087551682 [Eh]
	 Singles Energy            =      -0.0000000000000000 [Eh]
	 Same-Spin Energy          =      -0.5631567955890137 [Eh]
	 Opposite-Spin Energy      =      -1.6970671470355154 [Eh]
	 Correlation Energy        =      -2.2602239426245290 [Eh]
	 Total Energy              =    -607.8376341513796888 [Eh]

	 ================> DF-SCS-MP2 Energies <==================
	-----------------------------------------------------------
	 SCS Same-Spin Scale       =       0.3333333333333333 [-]
	 SCS Opposite-Spin Scale   =       1.2000000000000000 [-]
	 SCS Same-Spin Energy      =      -0.1877189318630045 [Eh]
	 SCS Opposite-Spin Energy  =      -2.0364805764426186 [Eh]
	 SCS Correlation Energy    =      -2.2241995083056230 [Eh]
	 SCS Total Energy          =    -607.8016097170608418 [Eh]
	-----------------------------------------------------------

  Dipole Moment: [D]
     X:     2.6103      Y:     0.4112      Z:    -0.0608     Total:     2.6432

*** Psi4 exiting successfully. Buy a developer a beer!
