                               Psi4 1.4a3.dev225

  ==> Input File <==

--------------------------------------------------------------------------
#psi4
#
memory 32 gb

molecule  {
0 1
  F       -2.0413868     0.5461398    -0.8925549
  F       -1.9413570    -1.5269070    -0.1417860
  F       -1.9373460     0.2097040     1.1676710
  C        0.0587940    -0.2544720    -0.0183930
  C        0.7415540     0.9772520     0.0078750
  C        0.7507890    -1.4682550    -0.0178400
  C        2.1403840     0.9368280     0.0127460
  C       -1.4402130    -0.2782400     0.0012850
  C        0.0310770     2.3081630    -0.0188960
  C        2.1451100    -1.4771990    -0.0107000
  C        2.8415060    -0.2700650     0.0090350
  H        0.1981450    -2.4017980    -0.0309650
  H        2.6907970     1.8755160     0.0309210
  H       -0.3505540     2.5311140    -1.0192600
  H       -0.8159800     2.3277740     0.6689790
  H        0.7236060     3.1036700     0.2672330
  H        2.6805350    -2.4229320    -0.0122850
  H        3.9287950    -0.2645730     0.0170060
units angstrom
no_reorient  #important for SAPT in psi4, default
symmetry c1  #important for SAPT in psi4, default
}

set PROPERTIES_ORIGIN ["COM"]
properties('MP2/aug-cc-pvtz', properties = ['dipole'])
--------------------------------------------------------------------------

    Molecular point group: c1
  Charge       = 0
  Multiplicity = 1
  Basis Set: AUG-CC-PVTZ
    Blend: AUG-CC-PVTZ
  Basis Set: (AUG-CC-PVTZ AUX)
    Blend: AUG-CC-PVTZ-JKFIT

    Orbital Energies [Eh]
    ---------------------

    Doubly Occupied:

       1A    -26.337987     2A    -26.328747     3A    -26.321466
       4A    -11.507640     5A    -11.271805     6A    -11.266681
       7A    -11.261561     8A    -11.258249     9A    -11.249837
      10A    -11.249076    11A    -11.233636    12A     -1.717393
      13A     -1.630212    14A     -1.612215    15A     -1.181775
      16A     -1.072722    17A     -1.057910    18A     -0.973497
      19A     -0.936994    20A     -0.862530    21A     -0.838798
      22A     -0.805986    23A     -0.803657    24A     -0.774510
      25A     -0.707462    26A     -0.697111    27A     -0.690537
      28A     -0.667455    29A     -0.650982    30A     -0.649858
      31A     -0.635584    32A     -0.634212    33A     -0.591256
      34A     -0.584702    35A     -0.582335    36A     -0.554051
      37A     -0.510341    38A     -0.509739    39A     -0.507836
      40A     -0.362213    41A     -0.345294

  @DF-RHF Final Energy:  -605.57504386475205

   => Energetics <=

    Nuclear Repulsion Energy =            632.0663399483670446
    One-Electron Energy =               -2088.4110593988189066
    Two-Electron Energy =                 850.7696755856999289
    Total Energy =                       -605.5750438647520468
  Basis Set: (AUG-CC-PVTZ AUX)
    Blend: AUG-CC-PVTZ-RI
    Molecular point group: c1

    Geometry (in Angstrom), charge = 0, multiplicity = 1:

       Center              X                  Y                   Z               Mass
    ------------   -----------------  -----------------  -----------------  -----------------
         F           -1.940680520958     0.572224746268    -0.905272294141    18.998403162730
         F           -1.840650720958    -1.500822053732    -0.154503394141    18.998403162730
         F           -1.836639720958     0.235788946268     1.154953605859    18.998403162730
         C            0.159500279042    -0.228387053732    -0.031110394141    12.000000000000
         C            0.842260279042     1.003336946268    -0.004842394141    12.000000000000
         C            0.851495279042    -1.442170053732    -0.030557394141    12.000000000000
         C            2.241090279042     0.962912946268     0.000028605859    12.000000000000
         C           -1.339506720958    -0.252155053732    -0.011432394141    12.000000000000
         C            0.131783279042     2.334247946268    -0.031613394141    12.000000000000
         C            2.245816279042    -1.451114053732    -0.023417394141    12.000000000000
         C            2.942212279042    -0.243980053732    -0.003682394141    12.000000000000
         H            0.298851279042    -2.375713053732    -0.043682394141     1.007825032230
         H            2.791503279042     1.901600946268     0.018203605859     1.007825032230
         H           -0.249847720958     2.557198946268    -1.031977394141     1.007825032230
         H           -0.715273720958     2.353858946268     0.656261605859     1.007825032230
         H            0.824312279042     3.129754946268     0.254515605859     1.007825032230
         H            2.781241279042    -2.396847053732    -0.025002394141     1.007825032230
         H            4.029501279042    -0.238488053732     0.004288605859     1.007825032230

  Basis Set: AUG-CC-PVTZ
    Blend: AUG-CC-PVTZ
  Basis Set: (AUG-CC-PVTZ AUX)
    Blend: AUG-CC-PVTZ-JKFIT
	 Reference Energy          =    -605.5750438647520468 [Eh]
	 Singles Energy            =      -0.0000000000000000 [Eh]
	 Same-Spin Energy          =      -0.5633231641201292 [Eh]
	 Opposite-Spin Energy      =      -1.6971162070321713 [Eh]
	 Correlation Energy        =      -2.2604393711523003 [Eh]
	 Total Energy              =    -607.8354832359043485 [Eh]

	 ================> DF-SCS-MP2 Energies <==================
	-----------------------------------------------------------
	 SCS Same-Spin Scale       =       0.3333333333333333 [-]
	 SCS Opposite-Spin Scale   =       1.2000000000000000 [-]
	 SCS Same-Spin Energy      =      -0.1877743880400430 [Eh]
	 SCS Opposite-Spin Energy  =      -2.0365394484386052 [Eh]
	 SCS Correlation Energy    =      -2.2243138364786481 [Eh]
	 SCS Total Energy          =    -607.7993577012307469 [Eh]
	-----------------------------------------------------------

  Dipole Moment: [D]
     X:     2.7707      Y:     0.3333      Z:    -0.1761     Total:     2.7963

*** Psi4 exiting successfully. Buy a developer a beer!
