                               Psi4 1.4a3.dev225

  ==> Input File <==

--------------------------------------------------------------------------
#psi4
#
memory 32 gb

molecule  {
0 1
  F       -1.9734470     0.4735540    -0.9939180
  F       -1.9413570    -1.5269070    -0.1417860
  F       -1.9373460     0.2097040     1.1676710
  C        0.0587940    -0.2544720    -0.0183930
  C        0.7415540     0.9772520     0.0078750
  C        0.7507890    -1.4682550    -0.0178400
  C        2.1403840     0.9368280     0.0127460
  C       -1.4402130    -0.2782400     0.0012850
  C        0.0310770     2.3081630    -0.0188960
  C        2.1451100    -1.4771990    -0.0107000
  C        2.8415060    -0.2700650     0.0090350
  H        0.1981450    -2.4017980    -0.0309650
  H        2.6907970     1.8755160     0.0309210
  H       -0.3505540     2.5311140    -1.0192600
  H       -0.8159800     2.3277740     0.6689790
  H        0.7236060     3.1036700     0.2672330
  H        2.6805350    -2.4229320    -0.0122850
  H        3.9787930    -0.2643205     0.0173725
units angstrom
no_reorient  #important for SAPT in psi4, default
symmetry c1  #important for SAPT in psi4, default
}

set PROPERTIES_ORIGIN ["COM"]
properties('MP2/aug-cc-pvtz', properties = ['dipole'])
--------------------------------------------------------------------------

    Molecular point group: c1
  Charge       = 0
  Multiplicity = 1
  Basis Set: AUG-CC-PVTZ
    Blend: AUG-CC-PVTZ
  Basis Set: (AUG-CC-PVTZ AUX)
    Blend: AUG-CC-PVTZ-JKFIT

    Orbital Energies [Eh]
    ---------------------

    Doubly Occupied:

       1A    -26.335553     2A    -26.331950     3A    -26.331103
       4A    -11.508770     5A    -11.270689     6A    -11.264988
       7A    -11.262282     8A    -11.260062     9A    -11.249277
      10A    -11.248716    11A    -11.234174    12A     -1.717446
      13A     -1.626696    14A     -1.623260    15A     -1.180681
      16A     -1.071237    17A     -1.057200    18A     -0.973148
      19A     -0.936988    20A     -0.860382    21A     -0.836892
      22A     -0.811592    23A     -0.803864    24A     -0.773177
      25A     -0.704723    26A     -0.704208    27A     -0.684624
      28A     -0.666058    29A     -0.656875    30A     -0.648727
      31A     -0.643960    32A     -0.633375    33A     -0.588292
      34A     -0.584964    35A     -0.579634    36A     -0.553481
      37A     -0.509176    38A     -0.509041    39A     -0.504639
      40A     -0.360702    41A     -0.344557

  @DF-RHF Final Energy:  -605.57506987938018

   => Energetics <=

    Nuclear Repulsion Energy =            631.7933302447976303
    One-Electron Energy =               -2087.8424721685669283
    Two-Electron Energy =                 850.4740720443890041
    Total Energy =                       -605.5750698793801803
  Basis Set: (AUG-CC-PVTZ AUX)
    Blend: AUG-CC-PVTZ-RI
    Molecular point group: c1

    Geometry (in Angstrom), charge = 0, multiplicity = 1:

       Center              X                  Y                   Z               Mass
    ------------   -----------------  -----------------  -----------------  -----------------
         F           -1.881120209088     0.508253503894    -0.994605604353    18.998403162730
         F           -1.849030209088    -1.492207496106    -0.142473604353    18.998403162730
         F           -1.845019209088     0.244403503894     1.166983395647    18.998403162730
         C            0.151120790912    -0.219772496106    -0.019080604353    12.000000000000
         C            0.833880790912     1.011951503894     0.007187395647    12.000000000000
         C            0.843115790912    -1.433555496106    -0.018527604353    12.000000000000
         C            2.232710790912     0.971527503894     0.012058395647    12.000000000000
         C           -1.347886209088    -0.243540496106     0.000597395647    12.000000000000
         C            0.123403790912     2.342862503894    -0.019583604353    12.000000000000
         C            2.237436790912    -1.442499496106    -0.011387604353    12.000000000000
         C            2.933832790912    -0.235365496106     0.008347395647    12.000000000000
         H            0.290471790912    -2.367098496106    -0.031652604353     1.007825032230
         H            2.783123790912     1.910215503894     0.030233395647     1.007825032230
         H           -0.258227209088     2.565813503894    -1.019947604353     1.007825032230
         H           -0.723653209088     2.362473503894     0.668291395647     1.007825032230
         H            0.815932790912     3.138369503894     0.266545395647     1.007825032230
         H            2.772861790912    -2.388232496106    -0.012972604353     1.007825032230
         H            4.071119790912    -0.229620996106     0.016684895647     1.007825032230

  Basis Set: AUG-CC-PVTZ
    Blend: AUG-CC-PVTZ
  Basis Set: (AUG-CC-PVTZ AUX)
    Blend: AUG-CC-PVTZ-JKFIT
	 Reference Energy          =    -605.5750698793801803 [Eh]
	 Singles Energy            =      -0.0000000000000000 [Eh]
	 Same-Spin Energy          =      -0.5634391802092047 [Eh]
	 Opposite-Spin Energy      =      -1.6977516582844749 [Eh]
	 Correlation Energy        =      -2.2611908384936799 [Eh]
	 Total Energy              =    -607.8362607178738699 [Eh]

	 ================> DF-SCS-MP2 Energies <==================
	-----------------------------------------------------------
	 SCS Same-Spin Scale       =       0.3333333333333333 [-]
	 SCS Opposite-Spin Scale   =       1.2000000000000000 [-]
	 SCS Same-Spin Energy      =      -0.1878130600697349 [Eh]
	 SCS Opposite-Spin Energy  =      -2.0373019899413700 [Eh]
	 SCS Correlation Energy    =      -2.2251150500111048 [Eh]
	 SCS Total Energy          =    -607.8001849293913210 [Eh]
	-----------------------------------------------------------

  Dipole Moment: [D]
     X:     2.5765      Y:     0.4350      Z:    -0.0627     Total:     2.6137

*** Psi4 exiting successfully. Buy a developer a beer!
