                               Psi4 1.4a3.dev225

  ==> Input File <==

--------------------------------------------------------------------------
#psi4
#
memory 32 gb

molecule  {
0 1
  F       -1.9734470     0.4735540    -0.9939180
  F       -1.9413570    -1.5269070    -0.1417860
  F       -1.9373460     0.2097040     1.1676710
  C        0.0587940    -0.2544720    -0.0183930
  C        0.7415540     0.9772520     0.0078750
  C        0.7507890    -1.4682550    -0.0178400
  C        2.1403840     0.9368280     0.0127460
  C       -1.4402130    -0.2782400     0.0012850
  C        0.0781624     2.2199597    -0.0171218
  C        2.1451100    -1.4771990    -0.0107000
  C        2.8415060    -0.2700650     0.0090350
  H        0.1981450    -2.4017980    -0.0309650
  H        2.6907970     1.8755160     0.0309210
  H       -0.3505540     2.5311140    -1.0192600
  H       -0.8159800     2.3277740     0.6689790
  H        0.7236060     3.1036700     0.2672330
  H        2.6805350    -2.4229320    -0.0122850
  H        3.9287950    -0.2645730     0.0170060
units angstrom
no_reorient  #important for SAPT in psi4, default
symmetry c1  #important for SAPT in psi4, default
}

set PROPERTIES_ORIGIN ["COM"]
properties('MP2/aug-cc-pvtz', properties = ['dipole'])
--------------------------------------------------------------------------

    Molecular point group: c1
  Charge       = 0
  Multiplicity = 1
  Basis Set: AUG-CC-PVTZ
    Blend: AUG-CC-PVTZ
  Basis Set: (AUG-CC-PVTZ AUX)
    Blend: AUG-CC-PVTZ-JKFIT

    Orbital Energies [Eh]
    ---------------------

    Doubly Occupied:

       1A    -26.335507     2A    -26.331528     3A    -26.330601
       4A    -11.508766     5A    -11.266021     6A    -11.264668
       7A    -11.260097     8A    -11.256826     9A    -11.249042
      10A    -11.248270    11A    -11.237356    12A     -1.717186
      13A     -1.626515    14A     -1.622852    15A     -1.185142
      16A     -1.078831    17A     -1.062618    18A     -0.974627
      19A     -0.934604    20A     -0.863030    21A     -0.835461
      22A     -0.811309    23A     -0.804041    24A     -0.774016
      25A     -0.704656    26A     -0.704262    27A     -0.692729
      28A     -0.666502    29A     -0.656527    30A     -0.651663
      31A     -0.643572    32A     -0.638325    33A     -0.598299
      34A     -0.586968    35A     -0.577170    36A     -0.541188
      37A     -0.518086    38A     -0.502078    39A     -0.499125
      40A     -0.360865    41A     -0.341109

  @DF-RHF Final Energy:  -605.56514137382453

   => Energetics <=

    Nuclear Repulsion Energy =            633.9603685854518744
    One-Electron Energy =               -2092.1269453513405097
    Two-Electron Energy =                 852.6014353920642179
    Total Energy =                       -605.5651413738245310
  Basis Set: (AUG-CC-PVTZ AUX)
    Blend: AUG-CC-PVTZ-RI
    Molecular point group: c1

    Geometry (in Angstrom), charge = 0, multiplicity = 1:

       Center              X                  Y                   Z               Mass
    ------------   -----------------  -----------------  -----------------  -----------------
         F           -1.884335676837     0.514868275384    -0.994736319968    18.998403162730
         F           -1.852245676837    -1.485592724616    -0.142604319968    18.998403162730
         F           -1.848234676837     0.251018275384     1.166852680032    18.998403162730
         C            0.147905323163    -0.213157724616    -0.019211319968    12.000000000000
         C            0.830665323163     1.018566275384     0.007056680032    12.000000000000
         C            0.839900323163    -1.426940724616    -0.018658319968    12.000000000000
         C            2.229495323163     0.978142275384     0.011927680032    12.000000000000
         C           -1.351101676837    -0.236925724616     0.000466680032    12.000000000000
         C            0.167273723163     2.261273975384    -0.017940119968    12.000000000000
         C            2.234221323163    -1.435884724616    -0.011518319968    12.000000000000
         C            2.930617323163    -0.228750724616     0.008216680032    12.000000000000
         H            0.287256323163    -2.360483724616    -0.031783319968     1.007825032230
         H            2.779908323163     1.916830275384     0.030102680032     1.007825032230
         H           -0.261442676837     2.572428275384    -1.020078319968     1.007825032230
         H           -0.726868676837     2.369088275384     0.668160680032     1.007825032230
         H            0.812717323163     3.144984275384     0.266414680032     1.007825032230
         H            2.769646323163    -2.381617724616    -0.013103319968     1.007825032230
         H            4.017906323163    -0.223258724616     0.016187680032     1.007825032230

  Basis Set: AUG-CC-PVTZ
    Blend: AUG-CC-PVTZ
  Basis Set: (AUG-CC-PVTZ AUX)
    Blend: AUG-CC-PVTZ-JKFIT
	 Reference Energy          =    -605.5651413738245310 [Eh]
	 Singles Energy            =      -0.0000000000000000 [Eh]
	 Same-Spin Energy          =      -0.5647415567775922 [Eh]
	 Opposite-Spin Energy      =      -1.6989488314664956 [Eh]
	 Correlation Energy        =      -2.2636903882440880 [Eh]
	 Total Energy              =    -607.8288317620686030 [Eh]

	 ================> DF-SCS-MP2 Energies <==================
	-----------------------------------------------------------
	 SCS Same-Spin Scale       =       0.3333333333333333 [-]
	 SCS Opposite-Spin Scale   =       1.2000000000000000 [-]
	 SCS Same-Spin Energy      =      -0.1882471855925307 [Eh]
	 SCS Opposite-Spin Energy  =      -2.0387385977597945 [Eh]
	 SCS Correlation Energy    =      -2.2269857833523252 [Eh]
	 SCS Total Energy          =    -607.7921271571768784 [Eh]
	-----------------------------------------------------------

  Dipole Moment: [D]
     X:     2.5753      Y:     0.4523      Z:    -0.0662     Total:     2.6156

*** Psi4 exiting successfully. Buy a developer a beer!
