                               Psi4 1.4a3.dev225

  ==> Input File <==

--------------------------------------------------------------------------
#psi4
#
memory 32 gb

molecule  {
0 1
  F       -1.9734470     0.4735540    -0.9939180
  F       -1.9413570    -1.5269070    -0.1417860
  F       -1.9373460     0.2097040     1.1676710
  C        0.0587940    -0.2544720    -0.0183930
  C        0.7409985     0.9284157     0.0070410
  C        0.7507890    -1.4682550    -0.0178400
  C        2.1403840     0.9368280     0.0127460
  C       -1.4402130    -0.2782400     0.0012850
  C        0.0310770     2.3081630    -0.0188960
  C        2.1451100    -1.4771990    -0.0107000
  C        2.8415060    -0.2700650     0.0090350
  H        0.1981450    -2.4017980    -0.0309650
  H        2.6907970     1.8755160     0.0309210
  H       -0.3505540     2.5311140    -1.0192600
  H       -0.8159800     2.3277740     0.6689790
  H        0.7236060     3.1036700     0.2672330
  H        2.6805350    -2.4229320    -0.0122850
  H        3.9287950    -0.2645730     0.0170060
units angstrom
no_reorient  #important for SAPT in psi4, default
symmetry c1  #important for SAPT in psi4, default
}

set PROPERTIES_ORIGIN ["COM"]
properties('MP2/aug-cc-pvtz', properties = ['dipole'])
--------------------------------------------------------------------------

    Molecular point group: c1
  Charge       = 0
  Multiplicity = 1
  Basis Set: AUG-CC-PVTZ
    Blend: AUG-CC-PVTZ
  Basis Set: (AUG-CC-PVTZ AUX)
    Blend: AUG-CC-PVTZ-JKFIT

    Orbital Energies [Eh]
    ---------------------

    Doubly Occupied:

       1A    -26.336252     2A    -26.332126     3A    -26.331406
       4A    -11.509588     5A    -11.267152     6A    -11.261178
       7A    -11.259334     8A    -11.256308     9A    -11.248642
      10A    -11.248462    11A    -11.234919    12A     -1.717834
      13A     -1.627160    14A     -1.623481    15A     -1.184984
      16A     -1.073307    17A     -1.052721    18A     -0.971473
      19A     -0.936834    20A     -0.862638    21A     -0.841335
      22A     -0.811957    23A     -0.805148    24A     -0.774408
      25A     -0.705007    26A     -0.704481    27A     -0.689676
      28A     -0.666507    29A     -0.657153    30A     -0.648073
      31A     -0.644210    32A     -0.635533    33A     -0.590330
      34A     -0.581552    35A     -0.577965    36A     -0.552607
      37A     -0.516109    38A     -0.511745    39A     -0.495980
      40A     -0.362878    41A     -0.346183

  @DF-RHF Final Energy:  -605.57579495438006

   => Energetics <=

    Nuclear Repulsion Energy =            632.6131062321179570
    One-Electron Energy =               -2089.4685219729135497
    Two-Electron Energy =                 851.2796207864156486
    Total Energy =                       -605.5757949543800578
  Basis Set: (AUG-CC-PVTZ AUX)
    Blend: AUG-CC-PVTZ-RI
    Molecular point group: c1

    Geometry (in Angstrom), charge = 0, multiplicity = 1:

       Center              X                  Y                   Z               Mass
    ------------   -----------------  -----------------  -----------------  -----------------
         F           -1.880763725230     0.511916672478    -0.994540766059    18.998403162730
         F           -1.848673725230    -1.488544327522    -0.142408766059    18.998403162730
         F           -1.844662725230     0.248066672478     1.167048233941    18.998403162730
         C            0.151477274770    -0.216109327522    -0.019015766059    12.000000000000
         C            0.833681774770     0.966778372478     0.006418233941    12.000000000000
         C            0.843472274770    -1.429892327522    -0.018462766059    12.000000000000
         C            2.233067274770     0.975190672478     0.012123233941    12.000000000000
         C           -1.347529725230    -0.239877327522     0.000662233941    12.000000000000
         C            0.123760274770     2.346525672478    -0.019518766059    12.000000000000
         C            2.237793274770    -1.438836327522    -0.011322766059    12.000000000000
         C            2.934189274770    -0.231702327522     0.008412233941    12.000000000000
         H            0.290828274770    -2.363435327522    -0.031587766059     1.007825032230
         H            2.783480274770     1.913878672478     0.030298233941     1.007825032230
         H           -0.257870725230     2.569476672478    -1.019882766059     1.007825032230
         H           -0.723296725230     2.366136672478     0.668356233941     1.007825032230
         H            0.816289274770     3.142032672478     0.266610233941     1.007825032230
         H            2.773218274770    -2.384569327522    -0.012907766059     1.007825032230
         H            4.021478274770    -0.226210327522     0.016383233941     1.007825032230

  Basis Set: AUG-CC-PVTZ
    Blend: AUG-CC-PVTZ
  Basis Set: (AUG-CC-PVTZ AUX)
    Blend: AUG-CC-PVTZ-JKFIT
	 Reference Energy          =    -605.5757949543800578 [Eh]
	 Singles Energy            =      -0.0000000000000000 [Eh]
	 Same-Spin Energy          =      -0.5630067351212311 [Eh]
	 Opposite-Spin Energy      =      -1.6968993210151764 [Eh]
	 Correlation Energy        =      -2.2599060561364075 [Eh]
	 Total Energy              =    -607.8357010105164591 [Eh]

	 ================> DF-SCS-MP2 Energies <==================
	-----------------------------------------------------------
	 SCS Same-Spin Scale       =       0.3333333333333333 [-]
	 SCS Opposite-Spin Scale   =       1.2000000000000000 [-]
	 SCS Same-Spin Energy      =      -0.1876689117070770 [Eh]
	 SCS Opposite-Spin Energy  =      -2.0362791852182114 [Eh]
	 SCS Correlation Energy    =      -2.2239480969252883 [Eh]
	 SCS Total Energy          =    -607.7997430513053132 [Eh]
	-----------------------------------------------------------

  Dipole Moment: [D]
     X:     2.6234      Y:     0.3897      Z:    -0.0591     Total:     2.6529

*** Psi4 exiting successfully. Buy a developer a beer!
