                               Psi4 1.4a3.dev225

  ==> Input File <==

--------------------------------------------------------------------------
#psi4
#
memory 32 gb

molecule  {
0 1
  F       -1.9734470     0.4735540    -0.9939180
  F       -1.9413570    -1.5269070    -0.1417860
  F       -1.9373460     0.2097040     1.1676710
  C        0.0587940    -0.2544720    -0.0183930
  C        0.7477751     1.0747174     0.0095597
  C        0.7507890    -1.4682550    -0.0178400
  C        2.1403840     0.9368280     0.0127460
  C       -1.4402130    -0.2782400     0.0012850
  C        0.0310770     2.3081630    -0.0188960
  C        2.1451100    -1.4771990    -0.0107000
  C        2.8415060    -0.2700650     0.0090350
  H        0.1981450    -2.4017980    -0.0309650
  H        2.6907970     1.8755160     0.0309210
  H       -0.3505540     2.5311140    -1.0192600
  H       -0.8159800     2.3277740     0.6689790
  H        0.7236060     3.1036700     0.2672330
  H        2.6805350    -2.4229320    -0.0122850
  H        3.9287950    -0.2645730     0.0170060
units angstrom
no_reorient  #important for SAPT in psi4, default
symmetry c1  #important for SAPT in psi4, default
}

set PROPERTIES_ORIGIN ["COM"]
properties('MP2/aug-cc-pvtz', properties = ['dipole'])
--------------------------------------------------------------------------

    Molecular point group: c1
  Charge       = 0
  Multiplicity = 1
  Basis Set: AUG-CC-PVTZ
    Blend: AUG-CC-PVTZ
  Basis Set: (AUG-CC-PVTZ AUX)
    Blend: AUG-CC-PVTZ-JKFIT

    Orbital Energies [Eh]
    ---------------------

    Doubly Occupied:

       1A    -26.333786     2A    -26.331270     3A    -26.330218
       4A    -11.506844     5A    -11.276639     6A    -11.270977
       7A    -11.260109     8A    -11.257338     9A    -11.249028
      10A    -11.248250    11A    -11.231900    12A     -1.716318
      13A     -1.625410    14A     -1.622478    15A     -1.173802
      16A     -1.076659    17A     -1.061155    18A     -0.978811
      19A     -0.936870    20A     -0.861233    21A     -0.828799
      22A     -0.810532    23A     -0.800380    24A     -0.772739
      25A     -0.703996    26A     -0.703517    27A     -0.689572
      28A     -0.664720    29A     -0.656017    30A     -0.650852
      31A     -0.643151    32A     -0.633549    33A     -0.596375
      34A     -0.592700    35A     -0.581152    36A     -0.555871
      37A     -0.522657    38A     -0.503421    39A     -0.491043
      40A     -0.359516    41A     -0.337121

  @DF-RHF Final Energy:  -605.56382905105966

   => Energetics <=

    Nuclear Repulsion Energy =            630.9893644188246071
    One-Electron Energy =               -2086.2128426959466196
    Two-Electron Energy =                 849.6596492260623563
    Total Energy =                       -605.5638290510596562
  Basis Set: (AUG-CC-PVTZ AUX)
    Blend: AUG-CC-PVTZ-RI
    Molecular point group: c1

    Geometry (in Angstrom), charge = 0, multiplicity = 1:

       Center              X                  Y                   Z               Mass
    ------------   -----------------  -----------------  -----------------  -----------------
         F           -1.881271811502     0.500947471805    -0.994729609564    18.998403162730
         F           -1.849181811502    -1.499513528195    -0.142597609564    18.998403162730
         F           -1.845170811502     0.237097471805     1.166859390436    18.998403162730
         C            0.150969188498    -0.227078528195    -0.019204609564    12.000000000000
         C            0.839950288498     1.102110871805     0.008748090436    12.000000000000
         C            0.842964188498    -1.440861528195    -0.018651609564    12.000000000000
         C            2.232559188498     0.964221471805     0.011934390436    12.000000000000
         C           -1.348037811502    -0.250846528195     0.000473390436    12.000000000000
         C            0.123252188498     2.335556471805    -0.019707609564    12.000000000000
         C            2.237285188498    -1.449805528195    -0.011511609564    12.000000000000
         C            2.933681188498    -0.242671528195     0.008223390436    12.000000000000
         H            0.290320188498    -2.374404528195    -0.031776609564     1.007825032230
         H            2.782972188498     1.902909471805     0.030109390436     1.007825032230
         H           -0.258378811502     2.558507471805    -1.020071609564     1.007825032230
         H           -0.723804811502     2.355167471805     0.668167390436     1.007825032230
         H            0.815781188498     3.131063471805     0.266421390436     1.007825032230
         H            2.772710188498    -2.395538528195    -0.013096609564     1.007825032230
         H            4.020970188498    -0.237179528195     0.016194390436     1.007825032230

  Basis Set: AUG-CC-PVTZ
    Blend: AUG-CC-PVTZ
  Basis Set: (AUG-CC-PVTZ AUX)
    Blend: AUG-CC-PVTZ-JKFIT
	 Reference Energy          =    -605.5638290510596562 [Eh]
	 Singles Energy            =      -0.0000000000000000 [Eh]
	 Same-Spin Energy          =      -0.5643794340535999 [Eh]
	 Opposite-Spin Energy      =      -1.6992238324766986 [Eh]
	 Correlation Energy        =      -2.2636032665302985 [Eh]
	 Total Energy              =    -607.8274323175899099 [Eh]

	 ================> DF-SCS-MP2 Energies <==================
	-----------------------------------------------------------
	 SCS Same-Spin Scale       =       0.3333333333333333 [-]
	 SCS Opposite-Spin Scale   =       1.2000000000000000 [-]
	 SCS Same-Spin Energy      =      -0.1881264780178666 [Eh]
	 SCS Opposite-Spin Energy  =      -2.0390685989720381 [Eh]
	 SCS Correlation Energy    =      -2.2271950769899047 [Eh]
	 SCS Total Energy          =    -607.7910241280495711 [Eh]
	-----------------------------------------------------------

  Dipole Moment: [D]
     X:     2.5336      Y:     0.5330      Z:    -0.0701     Total:     2.5900

*** Psi4 exiting successfully. Buy a developer a beer!
