                               Psi4 1.4a3.dev225

  ==> Input File <==

--------------------------------------------------------------------------
#psi4
#
memory 32 gb

molecule  {
0 1
  F       -1.9734470     0.4735540    -0.9939180
  F       -1.9413570    -1.5269070    -0.1417860
  F       -1.9373460     0.2097040     1.1676710
  C        0.0587940    -0.2544720    -0.0183930
  C        0.7415540     0.9772520     0.0078750
  C        0.7507890    -1.4682550    -0.0178400
  C        2.1403840     0.9368280     0.0127460
  C       -1.4402130    -0.2782400     0.0012850
  C        0.0310770     2.3081630    -0.0188960
  C        2.2751172    -1.5433871    -0.0105594
  C        2.8415060    -0.2700650     0.0090350
  H        0.1981450    -2.4017980    -0.0309650
  H        2.6907970     1.8755160     0.0309210
  H       -0.3505540     2.5311140    -1.0192600
  H       -0.8159800     2.3277740     0.6689790
  H        0.7236060     3.1036700     0.2672330
  H        2.6805350    -2.4229320    -0.0122850
  H        3.9287950    -0.2645730     0.0170060
units angstrom
no_reorient  #important for SAPT in psi4, default
symmetry c1  #important for SAPT in psi4, default
}

set PROPERTIES_ORIGIN ["COM"]
properties('MP2/aug-cc-pvtz', properties = ['dipole'])
--------------------------------------------------------------------------

    Molecular point group: c1
  Charge       = 0
  Multiplicity = 1
  Basis Set: AUG-CC-PVTZ
    Blend: AUG-CC-PVTZ
  Basis Set: (AUG-CC-PVTZ AUX)
    Blend: AUG-CC-PVTZ-JKFIT

    Orbital Energies [Eh]
    ---------------------

    Doubly Occupied:

       1A    -26.335242     2A    -26.332550     3A    -26.331565
       4A    -11.509594     5A    -11.274410     6A    -11.272511
       7A    -11.266017     8A    -11.258601     9A    -11.253512
      10A    -11.248060    11A    -11.234758    12A     -1.717681
      13A     -1.626705    14A     -1.623737    15A     -1.173060
      16A     -1.071456    17A     -1.050801    18A     -0.967533
      19A     -0.943169    20A     -0.856982    21A     -0.841789
      22A     -0.811917    23A     -0.804942    24A     -0.784479
      25A     -0.704925    26A     -0.703501    27A     -0.689020
      28A     -0.667459    29A     -0.657129    30A     -0.651099
      31A     -0.644234    32A     -0.642816    33A     -0.594491
      34A     -0.584646    35A     -0.578965    36A     -0.549168
      37A     -0.523025    38A     -0.500617    39A     -0.489381
      40A     -0.364796    41A     -0.334665

  @DF-RHF Final Energy:  -605.54919087810015

   => Energetics <=

    Nuclear Repulsion Energy =            629.3155031973813038
    One-Electron Energy =               -2082.7873619800211600
    Two-Electron Energy =                 847.9226679045397077
    Total Energy =                       -605.5491908781001484
  Basis Set: (AUG-CC-PVTZ AUX)
    Blend: AUG-CC-PVTZ-RI
    Molecular point group: c1

    Geometry (in Angstrom), charge = 0, multiplicity = 1:

       Center              X                  Y                   Z               Mass
    ------------   -----------------  -----------------  -----------------  -----------------
         F           -1.890552869558     0.513217651047    -0.994613838231    18.998403162730
         F           -1.858462869558    -1.487243348953    -0.142481838231    18.998403162730
         F           -1.854451869558     0.249367651047     1.166975161769    18.998403162730
         C            0.141688130442    -0.214808348953    -0.019088838231    12.000000000000
         C            0.824448130442     1.016915651047     0.007179161769    12.000000000000
         C            0.833683130442    -1.428591348953    -0.018535838231    12.000000000000
         C            2.223278130442     0.976491651047     0.012050161769    12.000000000000
         C           -1.357318869558    -0.238576348953     0.000589161769    12.000000000000
         C            0.113971130442     2.347826651047    -0.019591838231    12.000000000000
         C            2.358011330442    -1.503723448953    -0.011255238231    12.000000000000
         C            2.924400130442    -0.230401348953     0.008339161769    12.000000000000
         H            0.281039130442    -2.362134348953    -0.031660838231     1.007825032230
         H            2.773691130442     1.915179651047     0.030225161769     1.007825032230
         H           -0.267659869558     2.570777651047    -1.019955838231     1.007825032230
         H           -0.733085869558     2.367437651047     0.668283161769     1.007825032230
         H            0.806500130442     3.143333651047     0.266537161769     1.007825032230
         H            2.763429130442    -2.383268348953    -0.012980838231     1.007825032230
         H            4.011689130442    -0.224909348953     0.016310161769     1.007825032230

  Basis Set: AUG-CC-PVTZ
    Blend: AUG-CC-PVTZ
  Basis Set: (AUG-CC-PVTZ AUX)
    Blend: AUG-CC-PVTZ-JKFIT
	 Reference Energy          =    -605.5491908781001484 [Eh]
	 Singles Energy            =      -0.0000000000000000 [Eh]
	 Same-Spin Energy          =      -0.5631236556445167 [Eh]
	 Opposite-Spin Energy      =      -1.6991194783589028 [Eh]
	 Correlation Energy        =      -2.2622431340034197 [Eh]
	 Total Energy              =    -607.8114340121035184 [Eh]

	 ================> DF-SCS-MP2 Energies <==================
	-----------------------------------------------------------
	 SCS Same-Spin Scale       =       0.3333333333333333 [-]
	 SCS Opposite-Spin Scale   =       1.2000000000000000 [-]
	 SCS Same-Spin Energy      =      -0.1877078852148389 [Eh]
	 SCS Opposite-Spin Energy  =      -2.0389433740306830 [Eh]
	 SCS Correlation Energy    =      -2.2266512592455219 [Eh]
	 SCS Total Energy          =    -607.7758421373456486 [Eh]
	-----------------------------------------------------------

  Dipole Moment: [D]
     X:     2.5710      Y:     0.3996      Z:    -0.0631     Total:     2.6026

*** Psi4 exiting successfully. Buy a developer a beer!
