                               Psi4 1.4a3.dev225

  ==> Input File <==

--------------------------------------------------------------------------
#psi4
#
memory 32 gb

molecule  {
0 1
  F       -1.9734470     0.4735540    -0.9939180
  F       -1.9413570    -1.5269070    -0.1417860
  F       -1.9373460     0.2097040     1.1676710
  C        0.0587940    -0.2544720    -0.0183930
  C        0.7415540     0.9772520     0.0078750
  C        0.7507890    -1.4682550    -0.0178400
  C        2.1403840     0.9368280     0.0127460
  C       -1.4402130    -0.2782400     0.0012850
  C        0.0310770     2.3081630    -0.0188960
  C        2.1451100    -1.4771990    -0.0107000
  C        2.7410422    -0.0971293     0.0095667
  H        0.1981450    -2.4017980    -0.0309650
  H        2.6907970     1.8755160     0.0309210
  H       -0.3505540     2.5311140    -1.0192600
  H       -0.8159800     2.3277740     0.6689790
  H        0.7236060     3.1036700     0.2672330
  H        2.6805350    -2.4229320    -0.0122850
  H        3.9287950    -0.2645730     0.0170060
units angstrom
no_reorient  #important for SAPT in psi4, default
symmetry c1  #important for SAPT in psi4, default
}

set PROPERTIES_ORIGIN ["COM"]
properties('MP2/aug-cc-pvtz', properties = ['dipole'])
--------------------------------------------------------------------------

    Molecular point group: c1
  Charge       = 0
  Multiplicity = 1
  Basis Set: AUG-CC-PVTZ
    Blend: AUG-CC-PVTZ
  Basis Set: (AUG-CC-PVTZ AUX)
    Blend: AUG-CC-PVTZ-JKFIT

    Orbital Energies [Eh]
    ---------------------

    Doubly Occupied:

       1A    -26.335344     2A    -26.331175     3A    -26.330304
       4A    -11.508018     5A    -11.275451     6A    -11.261627
       7A    -11.256431     8A    -11.255067     9A    -11.249481
      10A    -11.236167    11A    -11.223406    12A     -1.716917
      13A     -1.626318    14A     -1.622572    15A     -1.194610
      16A     -1.087059    17A     -1.056044    18A     -0.986844
      19A     -0.929482    20A     -0.853509    21A     -0.840275
      22A     -0.811053    23A     -0.803349    24A     -0.773999
      25A     -0.704336    26A     -0.703672    27A     -0.684109
      28A     -0.668907    29A     -0.656383    30A     -0.654155
      31A     -0.643419    32A     -0.631510    33A     -0.600851
      34A     -0.588591    35A     -0.572455    36A     -0.547731
      37A     -0.522786    38A     -0.519125    39A     -0.465628
      40A     -0.389788    41A     -0.331272

  @DF-RHF Final Energy:  -605.51478183744211

   => Energetics <=

    Nuclear Repulsion Energy =            634.6974805064998009
    One-Electron Energy =               -2093.5260784155484544
    Two-Electron Energy =                 853.3138160716066523
    Total Energy =                       -605.5147818374421149
  Basis Set: (AUG-CC-PVTZ AUX)
    Blend: AUG-CC-PVTZ-RI
    Molecular point group: c1

    Geometry (in Angstrom), charge = 0, multiplicity = 1:

       Center              X                  Y                   Z               Mass
    ------------   -----------------  -----------------  -----------------  -----------------
         F           -1.873272942884     0.495288967047    -0.994643161571    18.998403162730
         F           -1.841182942884    -1.505172032953    -0.142511161571    18.998403162730
         F           -1.837171942884     0.231438967047     1.166945838429    18.998403162730
         C            0.158968057116    -0.232737032953    -0.019118161571    12.000000000000
         C            0.841728057116     0.998986967047     0.007149838429    12.000000000000
         C            0.850963057116    -1.446520032953    -0.018565161571    12.000000000000
         C            2.240558057116     0.958562967047     0.012020838429    12.000000000000
         C           -1.340038942884    -0.256505032953     0.000559838429    12.000000000000
         C            0.131251057116     2.329897967047    -0.019621161571    12.000000000000
         C            2.245284057116    -1.455464032953    -0.011425161571    12.000000000000
         C            2.841216257116    -0.075394332953     0.008841538429    12.000000000000
         H            0.298319057116    -2.380063032953    -0.031690161571     1.007825032230
         H            2.790971057116     1.897250967047     0.030195838429     1.007825032230
         H           -0.250379942884     2.552848967047    -1.019985161571     1.007825032230
         H           -0.715805942884     2.349508967047     0.668253838429     1.007825032230
         H            0.823780057116     3.125404967047     0.266507838429     1.007825032230
         H            2.780709057116    -2.401197032953    -0.013010161571     1.007825032230
         H            4.028969057116    -0.242838032953     0.016280838429     1.007825032230

  Basis Set: AUG-CC-PVTZ
    Blend: AUG-CC-PVTZ
  Basis Set: (AUG-CC-PVTZ AUX)
    Blend: AUG-CC-PVTZ-JKFIT
	 Reference Energy          =    -605.5147818374421149 [Eh]
	 Singles Energy            =      -0.0000000000000000 [Eh]
	 Same-Spin Energy          =      -0.5631029865027845 [Eh]
	 Opposite-Spin Energy      =      -1.6989383974611223 [Eh]
	 Correlation Energy        =      -2.2620413839639069 [Eh]
	 Total Energy              =    -607.7768232214060617 [Eh]

	 ================> DF-SCS-MP2 Energies <==================
	-----------------------------------------------------------
	 SCS Same-Spin Scale       =       0.3333333333333333 [-]
	 SCS Opposite-Spin Scale   =       1.2000000000000000 [-]
	 SCS Same-Spin Energy      =      -0.1877009955009281 [Eh]
	 SCS Opposite-Spin Energy  =      -2.0387260769533468 [Eh]
	 SCS Correlation Energy    =      -2.2264270724542752 [Eh]
	 SCS Total Energy          =    -607.7412089098963861 [Eh]
	-----------------------------------------------------------

  Dipole Moment: [D]
     X:     2.5070      Y:     0.4291      Z:    -0.0640     Total:     2.5442

*** Psi4 exiting successfully. Buy a developer a beer!
