                               Psi4 1.4a3.dev225

  ==> Input File <==

--------------------------------------------------------------------------
#psi4
#
memory 32 gb

molecule  {
0 1
  F       -1.9734470     0.4735540    -0.9939180
  F       -1.9413570    -1.5269070    -0.1417860
  F       -1.9373460     0.2097040     1.1676710
  C        0.0587940    -0.2544720    -0.0183930
  C        0.7415540     0.9772520     0.0078750
  C        0.7507890    -1.4682550    -0.0178400
  C        2.1403840     0.9368280     0.0127460
  C       -1.4402130    -0.2782400     0.0012850
  C        0.0310770     2.3081630    -0.0188960
  C        2.1451100    -1.4771990    -0.0107000
  C        2.8415060    -0.2700650     0.0090350
  H        0.1981450    -2.4017980    -0.0309650
  H        2.6907970     1.8755160     0.0309210
  H       -0.3505540     2.5311140    -1.0192600
  H       -0.8159800     2.3277740     0.6689790
  H        0.7236060     3.1036700     0.2672330
  H        2.5820009    -2.2488891    -0.0119933
  H        3.9287950    -0.2645730     0.0170060
units angstrom
no_reorient  #important for SAPT in psi4, default
symmetry c1  #important for SAPT in psi4, default
}

set PROPERTIES_ORIGIN ["COM"]
properties('MP2/aug-cc-pvtz', properties = ['dipole'])
--------------------------------------------------------------------------

    Molecular point group: c1
  Charge       = 0
  Multiplicity = 1
  Basis Set: AUG-CC-PVTZ
    Blend: AUG-CC-PVTZ
  Basis Set: (AUG-CC-PVTZ AUX)
    Blend: AUG-CC-PVTZ-JKFIT

    Orbital Energies [Eh]
    ---------------------

    Doubly Occupied:

       1A    -26.335070     2A    -26.331404     3A    -26.330569
       4A    -11.508032     5A    -11.270059     6A    -11.263828
       7A    -11.258564     8A    -11.255464     9A    -11.247249
      10A    -11.233693    11A    -11.225072    12A     -1.716931
      13A     -1.626205    14A     -1.622745    15A     -1.181025
      16A     -1.077273    17A     -1.057555    18A     -0.975157
      19A     -0.943271    20A     -0.861374    21A     -0.842768
      22A     -0.811079    23A     -0.805319    24A     -0.789144
      25A     -0.705712    26A     -0.704140    27A     -0.697049
      28A     -0.666267    29A     -0.656386    30A     -0.653174
      31A     -0.643468    32A     -0.638881    33A     -0.598175
      34A     -0.585093    35A     -0.583526    36A     -0.553421
      37A     -0.513959    38A     -0.508193    39A     -0.507410
      40A     -0.359623    41A     -0.343945

  @DF-RHF Final Energy:  -605.54273639965265

   => Energetics <=

    Nuclear Repulsion Energy =            633.2648462237165177
    One-Electron Energy =               -2090.6406224513293637
    Two-Electron Energy =                 851.8330398279600786
    Total Energy =                       -605.5427363996526537
  Basis Set: (AUG-CC-PVTZ AUX)
    Blend: AUG-CC-PVTZ-RI
    Molecular point group: c1

    Geometry (in Angstrom), charge = 0, multiplicity = 1:

       Center              X                  Y                   Z               Mass
    ------------   -----------------  -----------------  -----------------  -----------------
         F           -1.880184911476     0.507159156302    -0.994605133342    18.998403162730
         F           -1.848094911476    -1.493301843698    -0.142473133342    18.998403162730
         F           -1.844083911476     0.243309156302     1.166983866658    18.998403162730
         C            0.152056088524    -0.220866843698    -0.019080133342    12.000000000000
         C            0.834816088524     1.010857156302     0.007187866658    12.000000000000
         C            0.844051088524    -1.434649843698    -0.018527133342    12.000000000000
         C            2.233646088524     0.970433156302     0.012058866658    12.000000000000
         C           -1.346950911476    -0.244634843698     0.000597866658    12.000000000000
         C            0.124339088524     2.341768156302    -0.019583133342    12.000000000000
         C            2.238372088524    -1.443593843698    -0.011387133342    12.000000000000
         C            2.934768088524    -0.236459843698     0.008347866658    12.000000000000
         H            0.291407088524    -2.368192843698    -0.031652133342     1.007825032230
         H            2.784059088524     1.909121156302     0.030233866658     1.007825032230
         H           -0.257291911476     2.564719156302    -1.019947133342     1.007825032230
         H           -0.722717911476     2.361379156302     0.668291866658     1.007825032230
         H            0.816868088524     3.137275156302     0.266545866658     1.007825032230
         H            2.675262988524    -2.215283943698    -0.012680433342     1.007825032230
         H            4.022057088524    -0.230967843698     0.016318866658     1.007825032230

  Basis Set: AUG-CC-PVTZ
    Blend: AUG-CC-PVTZ
  Basis Set: (AUG-CC-PVTZ AUX)
    Blend: AUG-CC-PVTZ-JKFIT
	 Reference Energy          =    -605.5427363996526537 [Eh]
	 Singles Energy            =      -0.0000000000000000 [Eh]
	 Same-Spin Energy          =      -0.5631765893014613 [Eh]
	 Opposite-Spin Energy      =      -1.6967953758953447 [Eh]
	 Correlation Energy        =      -2.2599719651968062 [Eh]
	 Total Energy              =    -607.8027083648494227 [Eh]

	 ================> DF-SCS-MP2 Energies <==================
	-----------------------------------------------------------
	 SCS Same-Spin Scale       =       0.3333333333333333 [-]
	 SCS Opposite-Spin Scale   =       1.2000000000000000 [-]
	 SCS Same-Spin Energy      =      -0.1877255297671538 [Eh]
	 SCS Opposite-Spin Energy  =      -2.0361544510744136 [Eh]
	 SCS Correlation Energy    =      -2.2238799808415672 [Eh]
	 SCS Total Energy          =    -607.7666163804942698 [Eh]
	-----------------------------------------------------------

  Dipole Moment: [D]
     X:     2.6149      Y:     0.4098      Z:    -0.0629     Total:     2.6476

*** Psi4 exiting successfully. Buy a developer a beer!
