                               Psi4 1.4a3.dev225

  ==> Input File <==

--------------------------------------------------------------------------
#psi4
#
memory 32 gb

molecule  {
0 1
  F       -1.9734470     0.4735540    -0.9939180
  F       -1.9413570    -1.5269070    -0.1417860
  F       -1.9373460     0.2097040     1.1676710
  C        0.0587940    -0.2544720    -0.0183930
  C        0.7415540     0.9772520     0.0078750
  C        0.7507890    -1.4682550    -0.0178400
  C        2.1403840     0.9368280     0.0127460
  C       -1.4402130    -0.2782400     0.0012850
  C        0.0310770     2.3081630    -0.0188960
  C        2.1451100    -1.4771990    -0.0107000
  C        2.8415060    -0.2700650     0.0090350
  H        0.1981450    -2.4017980    -0.0309650
  H        2.6907970     1.8755160     0.0309210
  H       -0.3505540     2.5311140    -1.0192600
  H       -0.8159800     2.3277740     0.6689790
  H        0.5968666     2.9580846     0.2148687
  H        2.6805350    -2.4229320    -0.0122850
  H        3.9287950    -0.2645730     0.0170060
units angstrom
no_reorient  #important for SAPT in psi4, default
symmetry c1  #important for SAPT in psi4, default
}

set PROPERTIES_ORIGIN ["COM"]
properties('MP2/aug-cc-pvtz', properties = ['dipole'])
--------------------------------------------------------------------------

    Molecular point group: c1
  Charge       = 0
  Multiplicity = 1
  Basis Set: AUG-CC-PVTZ
    Blend: AUG-CC-PVTZ
  Basis Set: (AUG-CC-PVTZ AUX)
    Blend: AUG-CC-PVTZ-JKFIT

    Orbital Energies [Eh]
    ---------------------

    Doubly Occupied:

       1A    -26.334747     2A    -26.330769     3A    -26.330160
       4A    -11.507780     5A    -11.269150     6A    -11.263729
       7A    -11.259204     8A    -11.256549     9A    -11.248395
      10A    -11.248202    11A    -11.209525    12A     -1.716476
      13A     -1.625783    14A     -1.622229    15A     -1.180551
      16A     -1.074096    17A     -1.061323    18A     -0.981416
      19A     -0.945984    20A     -0.861368    21A     -0.841312
      22A     -0.810639    23A     -0.803160    24A     -0.774354
      25A     -0.704027    26A     -0.703729    27A     -0.690131
      28A     -0.670368    29A     -0.655980    30A     -0.651963
      31A     -0.643023    32A     -0.634171    33A     -0.593859
      34A     -0.589076    35A     -0.581875    36A     -0.573582
      37A     -0.511592    38A     -0.508139    39A     -0.505749
      40A     -0.360052    41A     -0.343910

  @DF-RHF Final Energy:  -605.54361638091950

   => Energetics <=

    Nuclear Repulsion Energy =            633.1803057994441133
    One-Electron Energy =               -2090.4915892219109992
    Two-Electron Energy =                 851.7676670415473836
    Total Energy =                       -605.5436163809195023
  Basis Set: (AUG-CC-PVTZ AUX)
    Blend: AUG-CC-PVTZ-RI
    Molecular point group: c1

    Geometry (in Angstrom), charge = 0, multiplicity = 1:

       Center              X                  Y                   Z               Mass
    ------------   -----------------  -----------------  -----------------  -----------------
         F           -1.880007304415     0.509171836293    -0.994273561708    18.998403162730
         F           -1.847917304415    -1.491289163707    -0.142141561708    18.998403162730
         F           -1.843906304415     0.245321836293     1.167315438292    18.998403162730
         C            0.152233695585    -0.218854163707    -0.018748561708    12.000000000000
         C            0.834993695585     1.012869836293     0.007519438292    12.000000000000
         C            0.844228695585    -1.432637163707    -0.018195561708    12.000000000000
         C            2.233823695585     0.972445836293     0.012390438292    12.000000000000
         C           -1.346773304415    -0.242622163707     0.000929438292    12.000000000000
         C            0.124516695585     2.343780836293    -0.019251561708    12.000000000000
         C            2.238549695585    -1.441581163707    -0.011055561708    12.000000000000
         C            2.934945695585    -0.234447163707     0.008679438292    12.000000000000
         H            0.291584695585    -2.366180163707    -0.031320561708     1.007825032230
         H            2.784236695585     1.911133836293     0.030565438292     1.007825032230
         H           -0.257114304415     2.566731836293    -1.019615561708     1.007825032230
         H           -0.722540304415     2.363391836293     0.668623438292     1.007825032230
         H            0.690306295585     2.993702436293     0.214513138292     1.007825032230
         H            2.773974695585    -2.387314163707    -0.012640561708     1.007825032230
         H            4.022234695585    -0.228955163707     0.016650438292     1.007825032230

  Basis Set: AUG-CC-PVTZ
    Blend: AUG-CC-PVTZ
  Basis Set: (AUG-CC-PVTZ AUX)
    Blend: AUG-CC-PVTZ-JKFIT
	 Reference Energy          =    -605.5436163809195023 [Eh]
	 Singles Energy            =      -0.0000000000000000 [Eh]
	 Same-Spin Energy          =      -0.5633537328597917 [Eh]
	 Opposite-Spin Energy      =      -1.6965000406615982 [Eh]
	 Correlation Energy        =      -2.2598537735213897 [Eh]
	 Total Energy              =    -607.8034701544409018 [Eh]

	 ================> DF-SCS-MP2 Energies <==================
	-----------------------------------------------------------
	 SCS Same-Spin Scale       =       0.3333333333333333 [-]
	 SCS Opposite-Spin Scale   =       1.2000000000000000 [-]
	 SCS Same-Spin Energy      =      -0.1877845776199306 [Eh]
	 SCS Opposite-Spin Energy  =      -2.0358000487939178 [Eh]
	 SCS Correlation Energy    =      -2.2235846264138486 [Eh]
	 SCS Total Energy          =    -607.7672010073333695 [Eh]
	-----------------------------------------------------------

  Dipole Moment: [D]
     X:     2.6217      Y:     0.5129      Z:    -0.0499     Total:     2.6718

*** Psi4 exiting successfully. Buy a developer a beer!
