                               Psi4 1.4a3.dev225

  ==> Input File <==

--------------------------------------------------------------------------
#psi4
#
memory 32 gb

molecule  {
0 1
  F       -1.9734470     0.4735540    -0.9939180
  F       -1.9413570    -1.5269070    -0.1417860
  F       -1.9373460     0.2097040     1.1676710
  C        0.0587940    -0.2544720    -0.0183930
  C        0.7415540     0.9772520     0.0078750
  C        0.7507890    -1.4682550    -0.0178400
  C        2.1403840     0.9368280     0.0127460
  C       -1.4402130    -0.2782400     0.0012850
  C        0.0310770     2.3081630    -0.0188960
  C        2.1451100    -1.4771990    -0.0107000
  C        2.8415060    -0.2700650     0.0090350
  H        0.1981450    -2.4017980    -0.0309650
  H        2.6907970     1.8755160     0.0309210
  H       -0.3505540     2.5311140    -1.0192600
  H       -0.8159800     2.3277740     0.6689790
  H        0.7236060     3.1036700     0.2672330
  H        2.6903884    -2.4403363    -0.0123142
  H        3.9287950    -0.2645730     0.0170060
units angstrom
no_reorient  #important for SAPT in psi4, default
symmetry c1  #important for SAPT in psi4, default
}

set PROPERTIES_ORIGIN ["COM"]
properties('MP2/aug-cc-pvtz', properties = ['dipole'])
--------------------------------------------------------------------------

    Molecular point group: c1
  Charge       = 0
  Multiplicity = 1
  Basis Set: AUG-CC-PVTZ
    Blend: AUG-CC-PVTZ
  Basis Set: (AUG-CC-PVTZ AUX)
    Blend: AUG-CC-PVTZ-JKFIT

    Orbital Energies [Eh]
    ---------------------

    Doubly Occupied:

       1A    -26.335471     2A    -26.331888     3A    -26.331041
       4A    -11.508711     5A    -11.270420     6A    -11.264930
       7A    -11.259904     8A    -11.256833     9A    -11.251076
      10A    -11.248380    11A    -11.234028    12A     -1.717376
      13A     -1.626621    14A     -1.623197    15A     -1.180595
      16A     -1.071713    17A     -1.057025    18A     -0.973511
      19A     -0.936777    20A     -0.862036    21A     -0.836785
      22A     -0.811525    23A     -0.803688    24A     -0.772853
      25A     -0.704645    26A     -0.704163    27A     -0.688493
      28A     -0.665911    29A     -0.656807    30A     -0.648384
      31A     -0.643892    32A     -0.634170    33A     -0.589332
      34A     -0.584911    35A     -0.579552    36A     -0.553967
      37A     -0.509315    38A     -0.508830    39A     -0.505850
      40A     -0.360577    41A     -0.344352

  @DF-RHF Final Energy:  -605.57689266394129

   => Energetics <=

    Nuclear Repulsion Energy =            631.9462038116078020
    One-Electron Energy =               -2088.1471227085648934
    Two-Electron Energy =                 850.6240262330157975
    Total Energy =                       -605.5768926639412939
  Basis Set: (AUG-CC-PVTZ AUX)
    Blend: AUG-CC-PVTZ-RI
    Molecular point group: c1

    Geometry (in Angstrom), charge = 0, multiplicity = 1:

       Center              X                  Y                   Z               Mass
    ------------   -----------------  -----------------  -----------------  -----------------
         F           -1.880867420980     0.508364687692    -0.994603112654    18.998403162730
         F           -1.848777420980    -1.492096312308    -0.142471112654    18.998403162730
         F           -1.844766420980     0.244514687692     1.166985887346    18.998403162730
         C            0.151373579020    -0.219661312308    -0.019078112654    12.000000000000
         C            0.834133579020     1.012062687692     0.007189887346    12.000000000000
         C            0.843368579020    -1.433444312308    -0.018525112654    12.000000000000
         C            2.232963579020     0.971638687692     0.012060887346    12.000000000000
         C           -1.347633420980    -0.243429312308     0.000599887346    12.000000000000
         C            0.123656579020     2.342973687692    -0.019581112654    12.000000000000
         C            2.237689579020    -1.442388312308    -0.011385112654    12.000000000000
         C            2.934085579020    -0.235254312308     0.008349887346    12.000000000000
         H            0.290724579020    -2.366987312308    -0.031650112654     1.007825032230
         H            2.783376579020     1.910326687692     0.030235887346     1.007825032230
         H           -0.257974420980     2.565924687692    -1.019945112654     1.007825032230
         H           -0.723400420980     2.362584687692     0.668293887346     1.007825032230
         H            0.816185579020     3.138480687692     0.266547887346     1.007825032230
         H            2.782967979020    -2.405525612308    -0.012999312654     1.007825032230
         H            4.021374579020    -0.229762312308     0.016320887346     1.007825032230

  Basis Set: AUG-CC-PVTZ
    Blend: AUG-CC-PVTZ
  Basis Set: (AUG-CC-PVTZ AUX)
    Blend: AUG-CC-PVTZ-JKFIT
	 Reference Energy          =    -605.5768926639412939 [Eh]
	 Singles Energy            =      -0.0000000000000000 [Eh]
	 Same-Spin Energy          =      -0.5633757265650373 [Eh]
	 Opposite-Spin Energy      =      -1.6974797364845489 [Eh]
	 Correlation Energy        =      -2.2608554630495861 [Eh]
	 Total Energy              =    -607.8377481269908458 [Eh]

	 ================> DF-SCS-MP2 Energies <==================
	-----------------------------------------------------------
	 SCS Same-Spin Scale       =       0.3333333333333333 [-]
	 SCS Opposite-Spin Scale   =       1.2000000000000000 [-]
	 SCS Same-Spin Energy      =      -0.1877919088550124 [Eh]
	 SCS Opposite-Spin Energy  =      -2.0369756837814585 [Eh]
	 SCS Correlation Energy    =      -2.2247675926364709 [Eh]
	 SCS Total Energy          =    -607.8016602565777475 [Eh]
	-----------------------------------------------------------

  Dipole Moment: [D]
     X:     2.5926      Y:     0.4387      Z:    -0.0626     Total:     2.6302

*** Psi4 exiting successfully. Buy a developer a beer!
