                               Psi4 1.4a3.dev225

  ==> Input File <==

--------------------------------------------------------------------------
#psi4
#
memory 32 gb

molecule  {
0 1
  F       -1.9734470     0.4735540    -0.9939180
  F       -1.9413570    -1.5269070    -0.1417860
  F       -1.9373460     0.2097040     1.1676710
  C        0.0587940    -0.2544720    -0.0183930
  C        0.7415540     0.9772520     0.0078750
  C        0.7507890    -1.4682550    -0.0178400
  C        2.1403840     0.9368280     0.0127460
  C       -1.4402130    -0.2782400     0.0012850
  C        0.0310770     2.3081630    -0.0188960
  C        2.1451100    -1.4771990    -0.0107000
  C        2.7556022    -0.2244157     0.0083406
  H        0.1981450    -2.4017980    -0.0309650
  H        2.6907970     1.8755160     0.0309210
  H       -0.3505540     2.5311140    -1.0192600
  H       -0.8159800     2.3277740     0.6689790
  H        0.7236060     3.1036700     0.2672330
  H        2.6805350    -2.4229320    -0.0122850
  H        3.9287950    -0.2645730     0.0170060
units angstrom
no_reorient  #important for SAPT in psi4, default
symmetry c1  #important for SAPT in psi4, default
}

set PROPERTIES_ORIGIN ["COM"]
properties('MP2/aug-cc-pvtz', properties = ['dipole'])
--------------------------------------------------------------------------

    Molecular point group: c1
  Charge       = 0
  Multiplicity = 1
  Basis Set: AUG-CC-PVTZ
    Blend: AUG-CC-PVTZ
  Basis Set: (AUG-CC-PVTZ AUX)
    Blend: AUG-CC-PVTZ-JKFIT

    Orbital Energies [Eh]
    ---------------------

    Doubly Occupied:

       1A    -26.335204     2A    -26.331428     3A    -26.330549
       4A    -11.508220     5A    -11.272067     6A    -11.262779
       7A    -11.258815     8A    -11.253885     9A    -11.247935
      10A    -11.239092    11A    -11.234689    12A     -1.717007
      13A     -1.626312    14A     -1.622783    15A     -1.188239
      16A     -1.075219    17A     -1.061302    18A     -0.978618
      19A     -0.936219    20A     -0.856560    21A     -0.840214
      22A     -0.811174    23A     -0.804606    24A     -0.773657
      25A     -0.704453    26A     -0.703896    27A     -0.684292
      28A     -0.668198    29A     -0.656480    30A     -0.652754
      31A     -0.643546    32A     -0.631821    33A     -0.593876
      34A     -0.586307    35A     -0.576033    36A     -0.551596
      37A     -0.517007    38A     -0.514998    39A     -0.489174
      40A     -0.369709    41A     -0.342534

  @DF-RHF Final Energy:  -605.56565587308398

   => Energetics <=

    Nuclear Repulsion Energy =            633.9703912909091059
    One-Electron Energy =               -2092.1656016398819702
    Two-Electron Energy =                 852.6295544758889946
    Total Energy =                       -605.5656558730839834
  Basis Set: (AUG-CC-PVTZ AUX)
    Blend: AUG-CC-PVTZ-RI
    Molecular point group: c1

    Geometry (in Angstrom), charge = 0, multiplicity = 1:

       Center              X                  Y                   Z               Mass
    ------------   -----------------  -----------------  -----------------  -----------------
         F           -1.874364601845     0.504832465616    -0.994551232790    18.998403162730
         F           -1.842274601845    -1.495628534384    -0.142419232790    18.998403162730
         F           -1.838263601845     0.240982465616     1.167037767210    18.998403162730
         C            0.157876398155    -0.223193534384    -0.019026232790    12.000000000000
         C            0.840636398155     1.008530465616     0.007241767210    12.000000000000
         C            0.849871398155    -1.436976534384    -0.018473232790    12.000000000000
         C            2.239466398155     0.968106465616     0.012112767210    12.000000000000
         C           -1.341130601845    -0.246961534384     0.000651767210    12.000000000000
         C            0.130159398155     2.339441465616    -0.019529232790    12.000000000000
         C            2.244192398155    -1.445920534384    -0.011333232790    12.000000000000
         C            2.854684598155    -0.193137234384     0.007707367210    12.000000000000
         H            0.297227398155    -2.370519534384    -0.031598232790     1.007825032230
         H            2.789879398155     1.906794465616     0.030287767210     1.007825032230
         H           -0.251471601845     2.562392465616    -1.019893232790     1.007825032230
         H           -0.716897601845     2.359052465616     0.668345767210     1.007825032230
         H            0.822688398155     3.134948465616     0.266599767210     1.007825032230
         H            2.779617398155    -2.391653534384    -0.012918232790     1.007825032230
         H            4.027877398155    -0.233294534384     0.016372767210     1.007825032230

  Basis Set: AUG-CC-PVTZ
    Blend: AUG-CC-PVTZ
  Basis Set: (AUG-CC-PVTZ AUX)
    Blend: AUG-CC-PVTZ-JKFIT
	 Reference Energy          =    -605.5656558730839834 [Eh]
	 Singles Energy            =      -0.0000000000000000 [Eh]
	 Same-Spin Energy          =      -0.5635227931490397 [Eh]
	 Opposite-Spin Energy      =      -1.6973893375858138 [Eh]
	 Correlation Energy        =      -2.2609121307348534 [Eh]
	 Total Energy              =    -607.8265680038188066 [Eh]

	 ================> DF-SCS-MP2 Energies <==================
	-----------------------------------------------------------
	 SCS Same-Spin Scale       =       0.3333333333333333 [-]
	 SCS Opposite-Spin Scale   =       1.2000000000000000 [-]
	 SCS Same-Spin Energy      =      -0.1878409310496799 [Eh]
	 SCS Opposite-Spin Energy  =      -2.0368672051029764 [Eh]
	 SCS Correlation Energy    =      -2.2247081361526564 [Eh]
	 SCS Total Energy          =    -607.7903640092366686 [Eh]
	-----------------------------------------------------------

  Dipole Moment: [D]
     X:     2.5338      Y:     0.4264      Z:    -0.0637     Total:     2.5702

*** Psi4 exiting successfully. Buy a developer a beer!
