                               Psi4 1.4a3.dev225

  ==> Input File <==

--------------------------------------------------------------------------
#psi4
#
memory 32 gb

molecule  {
0 1
  F       -1.9734470     0.4735540    -0.9939180
  F       -1.9413570    -1.5269070    -0.1417860
  F       -1.9373460     0.2097040     1.1676710
  C        0.1022058    -0.2775488    -0.0186584
  C        0.7415540     0.9772520     0.0078750
  C        0.7507890    -1.4682550    -0.0178400
  C        2.1403840     0.9368280     0.0127460
  C       -1.4402130    -0.2782400     0.0012850
  C        0.0310770     2.3081630    -0.0188960
  C        2.1451100    -1.4771990    -0.0107000
  C        2.8415060    -0.2700650     0.0090350
  H        0.1981450    -2.4017980    -0.0309650
  H        2.6907970     1.8755160     0.0309210
  H       -0.3505540     2.5311140    -1.0192600
  H       -0.8159800     2.3277740     0.6689790
  H        0.7236060     3.1036700     0.2672330
  H        2.6805350    -2.4229320    -0.0122850
  H        3.9287950    -0.2645730     0.0170060
units angstrom
no_reorient  #important for SAPT in psi4, default
symmetry c1  #important for SAPT in psi4, default
}

set PROPERTIES_ORIGIN ["COM"]
properties('MP2/aug-cc-pvtz', properties = ['dipole'])
--------------------------------------------------------------------------

    Molecular point group: c1
  Charge       = 0
  Multiplicity = 1
  Basis Set: AUG-CC-PVTZ
    Blend: AUG-CC-PVTZ
  Basis Set: (AUG-CC-PVTZ AUX)
    Blend: AUG-CC-PVTZ-JKFIT

    Orbital Energies [Eh]
    ---------------------

    Doubly Occupied:

       1A    -26.334247     2A    -26.332513     3A    -26.331479
       4A    -11.508930     5A    -11.268887     6A    -11.264890
       7A    -11.254786     8A    -11.254160     9A    -11.248501
      10A    -11.247801    11A    -11.235259    12A     -1.716521
      13A     -1.625821    14A     -1.623047    15A     -1.183656
      16A     -1.067659    17A     -1.058788    18A     -0.971707
      19A     -0.938601    20A     -0.858004    21A     -0.837799
      22A     -0.810405    23A     -0.803739    24A     -0.775712
      25A     -0.703855    26A     -0.703538    27A     -0.689066
      28A     -0.665871    29A     -0.656665    30A     -0.650540
      31A     -0.643745    32A     -0.633545    33A     -0.589909
      34A     -0.585483    35A     -0.577373    36A     -0.554680
      37A     -0.512637    38A     -0.512159    39A     -0.500339
      40A     -0.363981    41A     -0.342817

  @DF-RHF Final Energy:  -605.57554260377174

   => Energetics <=

    Nuclear Repulsion Energy =            631.8664526585926069
    One-Electron Energy =               -2088.0057576762219469
    Two-Electron Energy =                 850.5637624138576030
    Total Energy =                       -605.5755426037717370
  Basis Set: (AUG-CC-PVTZ AUX)
    Blend: AUG-CC-PVTZ-RI
    Molecular point group: c1

    Geometry (in Angstrom), charge = 0, multiplicity = 1:

       Center              X                  Y                   Z               Mass
    ------------   -----------------  -----------------  -----------------  -----------------
         F           -1.884060242883     0.509985313343    -0.994583397741    18.998403162730
         F           -1.851970242883    -1.490475686657    -0.142451397741    18.998403162730
         F           -1.847959242883     0.246135313343     1.167005602259    18.998403162730
         C            0.191592557117    -0.241117486657    -0.019323797741    12.000000000000
         C            0.830940757117     1.013683313343     0.007209602259    12.000000000000
         C            0.840175757117    -1.431823686657    -0.018505397741    12.000000000000
         C            2.229770757117     0.973259313343     0.012080602259    12.000000000000
         C           -1.350826242883    -0.241808686657     0.000619602259    12.000000000000
         C            0.120463757117     2.344594313343    -0.019561397741    12.000000000000
         C            2.234496757117    -1.440767686657    -0.011365397741    12.000000000000
         C            2.930892757117    -0.233633686657     0.008369602259    12.000000000000
         H            0.287531757117    -2.365366686657    -0.031630397741     1.007825032230
         H            2.780183757117     1.911947313343     0.030255602259     1.007825032230
         H           -0.261167242883     2.567545313343    -1.019925397741     1.007825032230
         H           -0.726593242883     2.364205313343     0.668313602259     1.007825032230
         H            0.812992757117     3.140101313343     0.266567602259     1.007825032230
         H            2.769921757117    -2.386500686657    -0.012950397741     1.007825032230
         H            4.018181757117    -0.228141686657     0.016340602259     1.007825032230

  Basis Set: AUG-CC-PVTZ
    Blend: AUG-CC-PVTZ
  Basis Set: (AUG-CC-PVTZ AUX)
    Blend: AUG-CC-PVTZ-JKFIT
	 Reference Energy          =    -605.5755426037717370 [Eh]
	 Singles Energy            =      -0.0000000000000000 [Eh]
	 Same-Spin Energy          =      -0.5630906794489190 [Eh]
	 Opposite-Spin Energy      =      -1.6969450485079030 [Eh]
	 Correlation Energy        =      -2.2600357279568222 [Eh]
	 Total Energy              =    -607.8355783317285841 [Eh]

	 ================> DF-SCS-MP2 Energies <==================
	-----------------------------------------------------------
	 SCS Same-Spin Scale       =       0.3333333333333333 [-]
	 SCS Opposite-Spin Scale   =       1.2000000000000000 [-]
	 SCS Same-Spin Energy      =      -0.1876968931496397 [Eh]
	 SCS Opposite-Spin Energy  =      -2.0363340582094835 [Eh]
	 SCS Correlation Energy    =      -2.2240309513591230 [Eh]
	 SCS Total Energy          =    -607.7995735551309053 [Eh]
	-----------------------------------------------------------

  Dipole Moment: [D]
     X:     2.5422      Y:     0.4482      Z:    -0.0638     Total:     2.5822

*** Psi4 exiting successfully. Buy a developer a beer!
