                               Psi4 1.4a3.dev225

  ==> Input File <==

--------------------------------------------------------------------------
#psi4
#
memory 32 gb

molecule  {
0 1
  F       -1.9734470     0.4735540    -0.9939180
  F       -1.9413570    -1.5269070    -0.1417860
  F       -1.9373460     0.2097040     1.1676710
  C        0.0587940    -0.2544720    -0.0183930
  C        0.7450008     0.8308333     0.0053949
  C        0.7507890    -1.4682550    -0.0178400
  C        2.1403840     0.9368280     0.0127460
  C       -1.4402130    -0.2782400     0.0012850
  C        0.0310770     2.3081630    -0.0188960
  C        2.1451100    -1.4771990    -0.0107000
  C        2.8415060    -0.2700650     0.0090350
  H        0.1981450    -2.4017980    -0.0309650
  H        2.6907970     1.8755160     0.0309210
  H       -0.3505540     2.5311140    -1.0192600
  H       -0.8159800     2.3277740     0.6689790
  H        0.7236060     3.1036700     0.2672330
  H        2.6805350    -2.4229320    -0.0122850
  H        3.9287950    -0.2645730     0.0170060
units angstrom
no_reorient  #important for SAPT in psi4, default
symmetry c1  #important for SAPT in psi4, default
}

set PROPERTIES_ORIGIN ["COM"]
properties('MP2/aug-cc-pvtz', properties = ['dipole'])
--------------------------------------------------------------------------

    Molecular point group: c1
  Charge       = 0
  Multiplicity = 1
  Basis Set: AUG-CC-PVTZ
    Blend: AUG-CC-PVTZ
  Basis Set: (AUG-CC-PVTZ AUX)
    Blend: AUG-CC-PVTZ-JKFIT

    Orbital Energies [Eh]
    ---------------------

    Doubly Occupied:

       1A    -26.338005     2A    -26.332814     3A    -26.332388
       4A    -11.511707     5A    -11.260998     6A    -11.259314
       7A    -11.255834     8A    -11.252715     9A    -11.249438
      10A    -11.248221    11A    -11.236088    12A     -1.718937
      13A     -1.628421    14A     -1.624228    15A     -1.196014
      16A     -1.078114    17A     -1.044646    18A     -0.969726
      19A     -0.934552    20A     -0.865132    21A     -0.848976
      22A     -0.813028    23A     -0.807727    24A     -0.774838
      25A     -0.705936    26A     -0.705277    27A     -0.692391
      28A     -0.667473    29A     -0.658058    30A     -0.647620
      31A     -0.645051    32A     -0.637263    33A     -0.594483
      34A     -0.576127    35A     -0.572621    36A     -0.549612
      37A     -0.526306    38A     -0.518652    39A     -0.469100
      40A     -0.371384    41A     -0.346874

  @DF-RHF Final Energy:  -605.55390641887539

   => Energetics <=

    Nuclear Repulsion Energy =            633.7913457342330048
    One-Electron Energy =               -2091.7583275343449714
    Two-Electron Energy =                 852.4130753812366947
    Total Energy =                       -605.5539064188753855
  Basis Set: (AUG-CC-PVTZ AUX)
    Blend: AUG-CC-PVTZ-RI
    Molecular point group: c1

    Geometry (in Angstrom), charge = 0, multiplicity = 1:

       Center              X                  Y                   Z               Mass
    ------------   -----------------  -----------------  -----------------  -----------------
         F           -1.881063803984     0.519233066804    -0.994417347116    18.998403162730
         F           -1.848973803984    -1.481227933196    -0.142285347116    18.998403162730
         F           -1.844962803984     0.255383066804     1.167171652884    18.998403162730
         C            0.151177196016    -0.208792933196    -0.018892347116    12.000000000000
         C            0.837383996016     0.876512366804     0.004895552884    12.000000000000
         C            0.843172196016    -1.422575933196    -0.018339347116    12.000000000000
         C            2.232767196016     0.982507066804     0.012246652884    12.000000000000
         C           -1.347829803984    -0.232560933196     0.000785652884    12.000000000000
         C            0.123460196016     2.353842066804    -0.019395347116    12.000000000000
         C            2.237493196016    -1.431519933196    -0.011199347116    12.000000000000
         C            2.933889196016    -0.224385933196     0.008535652884    12.000000000000
         H            0.290528196016    -2.356118933196    -0.031464347116     1.007825032230
         H            2.783180196016     1.921195066804     0.030421652884     1.007825032230
         H           -0.258170803984     2.576793066804    -1.019759347116     1.007825032230
         H           -0.723596803984     2.373453066804     0.668479652884     1.007825032230
         H            0.815989196016     3.149349066804     0.266733652884     1.007825032230
         H            2.772918196016    -2.377252933196    -0.012784347116     1.007825032230
         H            4.021178196016    -0.218893933196     0.016506652884     1.007825032230

  Basis Set: AUG-CC-PVTZ
    Blend: AUG-CC-PVTZ
  Basis Set: (AUG-CC-PVTZ AUX)
    Blend: AUG-CC-PVTZ-JKFIT
	 Reference Energy          =    -605.5539064188753855 [Eh]
	 Singles Energy            =      -0.0000000000000000 [Eh]
	 Same-Spin Energy          =      -0.5627557560778595 [Eh]
	 Opposite-Spin Energy      =      -1.6971380393308320 [Eh]
	 Correlation Energy        =      -2.2598937954086917 [Eh]
	 Total Energy              =    -607.8138002142841287 [Eh]

	 ================> DF-SCS-MP2 Energies <==================
	-----------------------------------------------------------
	 SCS Same-Spin Scale       =       0.3333333333333333 [-]
	 SCS Opposite-Spin Scale   =       1.2000000000000000 [-]
	 SCS Same-Spin Energy      =      -0.1875852520259532 [Eh]
	 SCS Opposite-Spin Energy  =      -2.0365656471969982 [Eh]
	 SCS Correlation Energy    =      -2.2241508992229515 [Eh]
	 SCS Total Energy          =    -607.7780573180983765 [Eh]
	-----------------------------------------------------------

  Dipole Moment: [D]
     X:     2.6709      Y:     0.3019      Z:    -0.0529     Total:     2.6885

*** Psi4 exiting successfully. Buy a developer a beer!
