                               Psi4 1.4a3.dev225

  ==> Input File <==

--------------------------------------------------------------------------
#psi4
#
memory 32 gb

molecule  {
0 1
  F       -1.9734470     0.4735540    -0.9939180
  F       -1.9413570    -1.5269070    -0.1417860
  F       -1.9373460     0.2097040     1.1676710
  C        0.0587940    -0.2544720    -0.0183930
  C        0.7415540     0.9772520     0.0078750
  C        0.7507890    -1.4682550    -0.0178400
  C        2.1403840     0.9368280     0.0127460
  C       -1.4402130    -0.2782400     0.0012850
  C       -0.0160084     2.3963663    -0.0206702
  C        2.1451100    -1.4771990    -0.0107000
  C        2.8415060    -0.2700650     0.0090350
  H        0.1981450    -2.4017980    -0.0309650
  H        2.6907970     1.8755160     0.0309210
  H       -0.3505540     2.5311140    -1.0192600
  H       -0.8159800     2.3277740     0.6689790
  H        0.7236060     3.1036700     0.2672330
  H        2.6805350    -2.4229320    -0.0122850
  H        3.9287950    -0.2645730     0.0170060
units angstrom
no_reorient  #important for SAPT in psi4, default
symmetry c1  #important for SAPT in psi4, default
}

set PROPERTIES_ORIGIN ["COM"]
properties('MP2/aug-cc-pvtz', properties = ['dipole'])
--------------------------------------------------------------------------

    Molecular point group: c1
  Charge       = 0
  Multiplicity = 1
  Basis Set: AUG-CC-PVTZ
    Blend: AUG-CC-PVTZ
  Basis Set: (AUG-CC-PVTZ AUX)
    Blend: AUG-CC-PVTZ-JKFIT

    Orbital Energies [Eh]
    ---------------------

    Doubly Occupied:

       1A    -26.335255     2A    -26.332034     3A    -26.331276
       4A    -11.508387     5A    -11.273049     6A    -11.264567
       7A    -11.259229     8A    -11.256305     9A    -11.248433
      10A    -11.248150    11A    -11.233575    12A     -1.717369
      13A     -1.626538    14A     -1.623341    15A     -1.177447
      16A     -1.069095    17A     -1.050363    18A     -0.973010
      19A     -0.940108    20A     -0.861007    21A     -0.837765
      22A     -0.811553    23A     -0.803297    24A     -0.773765
      25A     -0.704633    26A     -0.704077    27A     -0.686781
      28A     -0.665667    29A     -0.656945    30A     -0.646780
      31A     -0.644064    32A     -0.632228    33A     -0.596037
      34A     -0.588652    35A     -0.573390    36A     -0.565823
      37A     -0.512746    38A     -0.511679    39A     -0.489550
      40A     -0.359968    41A     -0.345784

  @DF-RHF Final Energy:  -605.57054397545414

   => Energetics <=

    Nuclear Repulsion Energy =            630.2398011720242721
    One-Electron Energy =               -2084.7412489674084100
    Two-Electron Energy =                 848.9309038199299948
    Total Energy =                       -605.5705439754541430
  Basis Set: (AUG-CC-PVTZ AUX)
    Blend: AUG-CC-PVTZ-RI
    Molecular point group: c1

    Geometry (in Angstrom), charge = 0, multiplicity = 1:

       Center              X                  Y                   Z               Mass
    ------------   -----------------  -----------------  -----------------  -----------------
         F           -1.877275072601     0.501641912359    -0.994470273082    18.998403162730
         F           -1.845185072601    -1.498819087641    -0.142338273082    18.998403162730
         F           -1.841174072601     0.237791912359     1.167118726918    18.998403162730
         C            0.154965927399    -0.226384087641    -0.018945273082    12.000000000000
         C            0.837725927399     1.005339912359     0.007322726918    12.000000000000
         C            0.846960927399    -1.440167087641    -0.018392273082    12.000000000000
         C            2.236555927399     0.964915912359     0.012193726918    12.000000000000
         C           -1.344041072601    -0.250152087641     0.000732726918    12.000000000000
         C            0.080163527399     2.424454212359    -0.021222473082    12.000000000000
         C            2.241281927399    -1.449111087641    -0.011252273082    12.000000000000
         C            2.937677927399    -0.241977087641     0.008482726918    12.000000000000
         H            0.294316927399    -2.373710087641    -0.031517273082     1.007825032230
         H            2.786968927399     1.903603912359     0.030368726918     1.007825032230
         H           -0.254382072601     2.559201912359    -1.019812273082     1.007825032230
         H           -0.719808072601     2.355861912359     0.668426726918     1.007825032230
         H            0.819777927399     3.131757912359     0.266680726918     1.007825032230
         H            2.776706927399    -2.394844087641    -0.012837273082     1.007825032230
         H            4.024966927399    -0.236485087641     0.016453726918     1.007825032230

  Basis Set: AUG-CC-PVTZ
    Blend: AUG-CC-PVTZ
  Basis Set: (AUG-CC-PVTZ AUX)
    Blend: AUG-CC-PVTZ-JKFIT
	 Reference Energy          =    -605.5705439754541430 [Eh]
	 Singles Energy            =      -0.0000000000000000 [Eh]
	 Same-Spin Energy          =      -0.5627728579751166 [Eh]
	 Opposite-Spin Energy      =      -1.6970968546735825 [Eh]
	 Correlation Energy        =      -2.2598697126486993 [Eh]
	 Total Energy              =    -607.8304136881027944 [Eh]

	 ================> DF-SCS-MP2 Energies <==================
	-----------------------------------------------------------
	 SCS Same-Spin Scale       =       0.3333333333333333 [-]
	 SCS Opposite-Spin Scale   =       1.2000000000000000 [-]
	 SCS Same-Spin Energy      =      -0.1875909526583722 [Eh]
	 SCS Opposite-Spin Energy  =      -2.0365162256082989 [Eh]
	 SCS Correlation Energy    =      -2.2241071782666713 [Eh]
	 SCS Total Energy          =    -607.7946511537207925 [Eh]
	-----------------------------------------------------------

  Dipole Moment: [D]
     X:     2.6137      Y:     0.4171      Z:    -0.0606     Total:     2.6474

*** Psi4 exiting successfully. Buy a developer a beer!
