                               Psi4 1.4a3.dev225

  ==> Input File <==

--------------------------------------------------------------------------
#psi4
#
memory 32 gb

molecule  {
0 1
  F       -1.9734470     0.4735540    -0.9939180
  F       -1.9413570    -1.5269070    -0.1417860
  F       -1.9373460     0.2097040     1.1676710
  C        0.0587940    -0.2544720    -0.0183930
  C        0.7415540     0.9772520     0.0078750
  C        0.7507890    -1.4682550    -0.0178400
  C        2.1403840     0.9368280     0.0127460
  C       -1.4402130    -0.2782400     0.0012850
  C        0.0310770     2.3081630    -0.0188960
  C        2.1451100    -1.4771990    -0.0107000
  C        2.8415060    -0.2700650     0.0090350
  H        0.1981450    -2.4017980    -0.0309650
  H        2.6907970     1.8755160     0.0309210
  H       -0.3505540     2.5311140    -1.0192600
  H       -0.8159800     2.3277740     0.6689790
  H        0.7236060     3.1036700     0.2672330
  H        2.6805350    -2.4229320    -0.0122850
  H        3.7288029    -0.2655832     0.0155398
units angstrom
no_reorient  #important for SAPT in psi4, default
symmetry c1  #important for SAPT in psi4, default
}

set PROPERTIES_ORIGIN ["COM"]
properties('MP2/aug-cc-pvtz', properties = ['dipole'])
--------------------------------------------------------------------------

    Molecular point group: c1
  Charge       = 0
  Multiplicity = 1
  Basis Set: AUG-CC-PVTZ
    Blend: AUG-CC-PVTZ
  Basis Set: (AUG-CC-PVTZ AUX)
    Blend: AUG-CC-PVTZ-JKFIT

    Orbital Energies [Eh]
    ---------------------

    Doubly Occupied:

       1A    -26.335135     2A    -26.331588     3A    -26.330750
       4A    -11.508355     5A    -11.269396     6A    -11.264507
       7A    -11.258743     8A    -11.247786     9A    -11.247233
      10A    -11.233440    11A    -11.232796    12A     -1.717065
      13A     -1.626300    14A     -1.622902    15A     -1.181066
      16A     -1.078228    17A     -1.056778    18A     -0.977282
      19A     -0.939003    20A     -0.873098    21A     -0.838026
      22A     -0.811217    23A     -0.803347    24A     -0.780508
      25A     -0.713175    26A     -0.704328    27A     -0.703036
      28A     -0.665576    29A     -0.656503    30A     -0.649038
      31A     -0.643590    32A     -0.639172    33A     -0.596738
      34A     -0.584576    35A     -0.581452    36A     -0.554939
      37A     -0.514298    38A     -0.508015    39A     -0.507213
      40A     -0.360094    41A     -0.343465

  @DF-RHF Final Energy:  -605.54283196354538

   => Energetics <=

    Nuclear Repulsion Energy =            633.2615603474469026
    One-Electron Energy =               -2090.6292714848636933
    Two-Electron Energy =                 851.8248791738714090
    Total Energy =                       -605.5428319635453818
  Basis Set: (AUG-CC-PVTZ AUX)
    Blend: AUG-CC-PVTZ-RI
    Molecular point group: c1

    Geometry (in Angstrom), charge = 0, multiplicity = 1:

       Center              X                  Y                   Z               Mass
    ------------   -----------------  -----------------  -----------------  -----------------
         F           -1.879546036613     0.508261455040    -0.994594063952    18.998403162730
         F           -1.847456036613    -1.492199544960    -0.142462063952    18.998403162730
         F           -1.843445036613     0.244411455040     1.166994936048    18.998403162730
         C            0.152694963387    -0.219764544960    -0.019069063952    12.000000000000
         C            0.835454963387     1.011959455040     0.007198936048    12.000000000000
         C            0.844689963387    -1.433547544960    -0.018516063952    12.000000000000
         C            2.234284963387     0.971535455040     0.012069936048    12.000000000000
         C           -1.346312036613    -0.243532544960     0.000608936048    12.000000000000
         C            0.124977963387     2.342870455040    -0.019572063952    12.000000000000
         C            2.239010963387    -1.442491544960    -0.011376063952    12.000000000000
         C            2.935406963387    -0.235357544960     0.008358936048    12.000000000000
         H            0.292045963387    -2.367090544960    -0.031641063952     1.007825032230
         H            2.784697963387     1.910223455040     0.030244936048     1.007825032230
         H           -0.256653036613     2.565821455040    -1.019936063952     1.007825032230
         H           -0.722079036613     2.362481455040     0.668302936048     1.007825032230
         H            0.817506963387     3.138377455040     0.266556936048     1.007825032230
         H            2.774435963387    -2.388224544960    -0.012961063952     1.007825032230
         H            3.822703863387    -0.230875744960     0.014863736048     1.007825032230

  Basis Set: AUG-CC-PVTZ
    Blend: AUG-CC-PVTZ
  Basis Set: (AUG-CC-PVTZ AUX)
    Blend: AUG-CC-PVTZ-JKFIT
	 Reference Energy          =    -605.5428319635453818 [Eh]
	 Singles Energy            =      -0.0000000000000000 [Eh]
	 Same-Spin Energy          =      -0.5631840663386249 [Eh]
	 Opposite-Spin Energy      =      -1.6968238547724375 [Eh]
	 Correlation Energy        =      -2.2600079211110624 [Eh]
	 Total Energy              =    -607.8028398846564642 [Eh]

	 ================> DF-SCS-MP2 Energies <==================
	-----------------------------------------------------------
	 SCS Same-Spin Scale       =       0.3333333333333333 [-]
	 SCS Opposite-Spin Scale   =       1.2000000000000000 [-]
	 SCS Same-Spin Energy      =      -0.1877280221128750 [Eh]
	 SCS Opposite-Spin Energy  =      -2.0361886257269250 [Eh]
	 SCS Correlation Energy    =      -2.2239166478398000 [Eh]
	 SCS Total Energy          =    -607.7667486113851965 [Eh]
	-----------------------------------------------------------

  Dipole Moment: [D]
     X:     2.6319      Y:     0.4283      Z:    -0.0623     Total:     2.6673

*** Psi4 exiting successfully. Buy a developer a beer!
