                               Psi4 1.4a3.dev225

  ==> Input File <==

--------------------------------------------------------------------------
#psi4
#
memory 32 gb

molecule  {
0 1
  F       -1.9734470     0.4735540    -0.9939180
  F       -1.9413570    -1.5269070    -0.1417860
  F       -1.9373460     0.2097040     1.1676710
  C        0.0587940    -0.2544720    -0.0183930
  C        0.7415540     0.9772520     0.0078750
  C        0.7507890    -1.4682550    -0.0178400
  C        2.1403840     0.9368280     0.0127460
  C       -1.4009021    -0.3336636     0.0746531
  C        0.0310770     2.3081630    -0.0188960
  C        2.1451100    -1.4771990    -0.0107000
  C        2.8415060    -0.2700650     0.0090350
  H        0.1981450    -2.4017980    -0.0309650
  H        2.6907970     1.8755160     0.0309210
  H       -0.3505540     2.5311140    -1.0192600
  H       -0.8159800     2.3277740     0.6689790
  H        0.7236060     3.1036700     0.2672330
  H        2.6805350    -2.4229320    -0.0122850
  H        3.9287950    -0.2645730     0.0170060
units angstrom
no_reorient  #important for SAPT in psi4, default
symmetry c1  #important for SAPT in psi4, default
}

set PROPERTIES_ORIGIN ["COM"]
properties('MP2/aug-cc-pvtz', properties = ['dipole'])
--------------------------------------------------------------------------

    Molecular point group: c1
  Charge       = 0
  Multiplicity = 1
  Basis Set: AUG-CC-PVTZ
    Blend: AUG-CC-PVTZ
  Basis Set: (AUG-CC-PVTZ AUX)
    Blend: AUG-CC-PVTZ-JKFIT

    Orbital Energies [Eh]
    ---------------------

    Doubly Occupied:

       1A    -26.347830     2A    -26.342763     3A    -26.292097
       4A    -11.510129     5A    -11.274377     6A    -11.266059
       7A    -11.263401     8A    -11.260186     9A    -11.251088
      10A    -11.250633    11A    -11.232873    12A     -1.720521
      13A     -1.644014    14A     -1.576719    15A     -1.185435
      16A     -1.077777    17A     -1.061714    18A     -0.975101
      19A     -0.936970    20A     -0.865985    21A     -0.841753
      22A     -0.810946    23A     -0.795633    24A     -0.775050
      25A     -0.709656    26A     -0.696984    27A     -0.681804
      28A     -0.672083    29A     -0.656329    30A     -0.639424
      31A     -0.626969    32A     -0.623082    33A     -0.594369
      34A     -0.585569    35A     -0.580501    36A     -0.553475
      37A     -0.515082    38A     -0.511235    39A     -0.507221
      40A     -0.364344    41A     -0.346473

  @DF-RHF Final Energy:  -605.56680178037266

   => Energetics <=

    Nuclear Repulsion Energy =            631.9884201775670363
    One-Electron Energy =               -2088.2631298328574303
    Two-Electron Energy =                 850.7079078749176233
    Total Energy =                       -605.5668017803726570
  Basis Set: (AUG-CC-PVTZ AUX)
    Blend: AUG-CC-PVTZ-RI
    Molecular point group: c1

    Geometry (in Angstrom), charge = 0, multiplicity = 1:

       Center              X                  Y                   Z               Mass
    ------------   -----------------  -----------------  -----------------  -----------------
         F           -1.883752771439     0.512410565684    -1.000104185522    18.998403162730
         F           -1.851662771439    -1.488050434316    -0.147972185522    18.998403162730
         F           -1.847651771439     0.248560565684     1.161484814478    18.998403162730
         C            0.148488228561    -0.215615434316    -0.024579185522    12.000000000000
         C            0.831248228561     1.016108565684     0.001688814478    12.000000000000
         C            0.840483228561    -1.429398434316    -0.024026185522    12.000000000000
         C            2.230078228561     0.975684565684     0.006559814478    12.000000000000
         C           -1.311207871439    -0.294807034316     0.068466914478    12.000000000000
         C            0.120771228561     2.347019565684    -0.025082185522    12.000000000000
         C            2.234804228561    -1.438342434316    -0.016886185522    12.000000000000
         C            2.931200228561    -0.231208434316     0.002848814478    12.000000000000
         H            0.287839228561    -2.362941434316    -0.037151185522     1.007825032230
         H            2.780491228561     1.914372565684     0.024734814478     1.007825032230
         H           -0.260859771439     2.569970565684    -1.025446185522     1.007825032230
         H           -0.726285771439     2.366630565684     0.662792814478     1.007825032230
         H            0.813300228561     3.142526565684     0.261046814478     1.007825032230
         H            2.770229228561    -2.384075434316    -0.018471185522     1.007825032230
         H            4.018489228561    -0.225716434316     0.010819814478     1.007825032230

  Basis Set: AUG-CC-PVTZ
    Blend: AUG-CC-PVTZ
  Basis Set: (AUG-CC-PVTZ AUX)
    Blend: AUG-CC-PVTZ-JKFIT
	 Reference Energy          =    -605.5668017803726570 [Eh]
	 Singles Energy            =      -0.0000000000000000 [Eh]
	 Same-Spin Energy          =      -0.5641908820599146 [Eh]
	 Opposite-Spin Energy      =      -1.6992365425595661 [Eh]
	 Correlation Energy        =      -2.2634274246194810 [Eh]
	 Total Energy              =    -607.8302292049921789 [Eh]

	 ================> DF-SCS-MP2 Energies <==================
	-----------------------------------------------------------
	 SCS Same-Spin Scale       =       0.3333333333333333 [-]
	 SCS Opposite-Spin Scale   =       1.2000000000000000 [-]
	 SCS Same-Spin Energy      =      -0.1880636273533049 [Eh]
	 SCS Opposite-Spin Energy  =      -2.0390838510714793 [Eh]
	 SCS Correlation Energy    =      -2.2271474784247842 [Eh]
	 SCS Total Energy          =    -607.7939492587973973 [Eh]
	-----------------------------------------------------------

  Dipole Moment: [D]
     X:     2.9763      Y:     0.0660      Z:     0.4647     Total:     3.0130

*** Psi4 exiting successfully. Buy a developer a beer!
