                               Psi4 1.4a3.dev225

  ==> Input File <==

--------------------------------------------------------------------------
#psi4
#
memory 32 gb

molecule  {
0 1
  F       -1.9734470     0.4735540    -0.9939180
  F       -1.9413570    -1.5269070    -0.1417860
  F       -1.9373460     0.2097040     1.1676710
  C        0.1913124    -0.3190898    -0.0190920
  C        0.7415540     0.9772520     0.0078750
  C        0.7507890    -1.4682550    -0.0178400
  C        2.1403840     0.9368280     0.0127460
  C       -1.4402130    -0.2782400     0.0012850
  C        0.0310770     2.3081630    -0.0188960
  C        2.1451100    -1.4771990    -0.0107000
  C        2.8415060    -0.2700650     0.0090350
  H        0.1981450    -2.4017980    -0.0309650
  H        2.6907970     1.8755160     0.0309210
  H       -0.3505540     2.5311140    -1.0192600
  H       -0.8159800     2.3277740     0.6689790
  H        0.7236060     3.1036700     0.2672330
  H        2.6805350    -2.4229320    -0.0122850
  H        3.9287950    -0.2645730     0.0170060
units angstrom
no_reorient  #important for SAPT in psi4, default
symmetry c1  #important for SAPT in psi4, default
}

set PROPERTIES_ORIGIN ["COM"]
properties('MP2/aug-cc-pvtz', properties = ['dipole'])
--------------------------------------------------------------------------

    Molecular point group: c1
  Charge       = 0
  Multiplicity = 1
  Basis Set: AUG-CC-PVTZ
    Blend: AUG-CC-PVTZ
  Basis Set: (AUG-CC-PVTZ AUX)
    Blend: AUG-CC-PVTZ-JKFIT

    Orbital Energies [Eh]
    ---------------------

    Doubly Occupied:

       1A    -26.332337     2A    -26.331155     3A    -26.331011
       4A    -11.506401     5A    -11.267232     6A    -11.265201
       7A    -11.251768     8A    -11.248865     9A    -11.247475
      10A    -11.243113    11A    -11.237940    12A     -1.713882
      13A     -1.623367    14A     -1.621571    15A     -1.192661
      16A     -1.068309    17A     -1.057538    18A     -0.967531
      19A     -0.940431    20A     -0.849902    21A     -0.840300
      22A     -0.807332    23A     -0.803133    24A     -0.778020
      25A     -0.702138    26A     -0.701018    27A     -0.689423
      28A     -0.666145    29A     -0.655406    30A     -0.654604
      31A     -0.642367    32A     -0.630879    33A     -0.591076
      34A     -0.587150    35A     -0.571665    36A     -0.554984
      37A     -0.521028    38A     -0.519348    39A     -0.480459
      40A     -0.371916    41A     -0.340355

  @DF-RHF Final Energy:  -605.55232813664963

   => Energetics <=

    Nuclear Repulsion Energy =            631.6238744047522005
    One-Electron Energy =               -2087.5395400718539349
    Two-Electron Energy =                 850.3633375304519859
    Total Energy =                       -605.5523281366496349
  Basis Set: (AUG-CC-PVTZ AUX)
    Blend: AUG-CC-PVTZ-RI
    Molecular point group: c1

    Geometry (in Angstrom), charge = 0, multiplicity = 1:

       Center              X                  Y                   Z               Mass
    ------------   -----------------  -----------------  -----------------  -----------------
         F           -1.890741150738     0.513099915328    -0.994550887897    18.998403162730
         F           -1.858651150738    -1.487361084672    -0.142418887897    18.998403162730
         F           -1.854640150738     0.249249915328     1.167038112103    18.998403162730
         C            0.274018249262    -0.279543884672    -0.019724887897    12.000000000000
         C            0.824259849262     1.016797915328     0.007242112103    12.000000000000
         C            0.833494849262    -1.428709084672    -0.018472887897    12.000000000000
         C            2.223089849262     0.976373915328     0.012113112103    12.000000000000
         C           -1.357507150738    -0.238694084672     0.000652112103    12.000000000000
         C            0.113782849262     2.347708915328    -0.019528887897    12.000000000000
         C            2.227815849262    -1.437653084672    -0.011332887897    12.000000000000
         C            2.924211849262    -0.230519084672     0.008402112103    12.000000000000
         H            0.280850849262    -2.362252084672    -0.031597887897     1.007825032230
         H            2.773502849262     1.915061915328     0.030288112103     1.007825032230
         H           -0.267848150738     2.570659915328    -1.019892887897     1.007825032230
         H           -0.733274150738     2.367319915328     0.668346112103     1.007825032230
         H            0.806311849262     3.143215915328     0.266600112103     1.007825032230
         H            2.763240849262    -2.383386084672    -0.012917887897     1.007825032230
         H            4.011500849262    -0.225027084672     0.016373112103     1.007825032230

  Basis Set: AUG-CC-PVTZ
    Blend: AUG-CC-PVTZ
  Basis Set: (AUG-CC-PVTZ AUX)
    Blend: AUG-CC-PVTZ-JKFIT
	 Reference Energy          =    -605.5523281366496349 [Eh]
	 Singles Energy            =      -0.0000000000000000 [Eh]
	 Same-Spin Energy          =      -0.5630806227918130 [Eh]
	 Opposite-Spin Energy      =      -1.6973309172258850 [Eh]
	 Correlation Energy        =      -2.2604115400176981 [Eh]
	 Total Energy              =    -607.8127396766673201 [Eh]

	 ================> DF-SCS-MP2 Energies <==================
	-----------------------------------------------------------
	 SCS Same-Spin Scale       =       0.3333333333333333 [-]
	 SCS Opposite-Spin Scale   =       1.2000000000000000 [-]
	 SCS Same-Spin Energy      =      -0.1876935409306043 [Eh]
	 SCS Opposite-Spin Energy  =      -2.0367971006710621 [Eh]
	 SCS Correlation Energy    =      -2.2244906416016663 [Eh]
	 SCS Total Energy          =    -607.7768187782512541 [Eh]
	-----------------------------------------------------------

  Dipole Moment: [D]
     X:     2.4845      Y:     0.4717      Z:    -0.0667     Total:     2.5298

*** Psi4 exiting successfully. Buy a developer a beer!
