                               Psi4 1.4a3.dev225

  ==> Input File <==

--------------------------------------------------------------------------
#psi4
#
memory 32 gb

molecule  {
0 1
  F       -1.9734470     0.4735540    -0.9939180
  F       -1.9413570    -1.5269070    -0.1417860
  F       -1.9373460     0.2097040     1.1676710
  C        0.0587940    -0.2544720    -0.0183930
  C        0.6967141     0.9540555    -0.0071336
  C        0.7507890    -1.4682550    -0.0178400
  C        2.1403840     0.9368280     0.0127460
  C       -1.4402130    -0.2782400     0.0012850
  C        0.0310770     2.3081630    -0.0188960
  C        2.1451100    -1.4771990    -0.0107000
  C        2.8415060    -0.2700650     0.0090350
  H        0.1981450    -2.4017980    -0.0309650
  H        2.6907970     1.8755160     0.0309210
  H       -0.3505540     2.5311140    -1.0192600
  H       -0.8159800     2.3277740     0.6689790
  H        0.7236060     3.1036700     0.2672330
  H        2.6805350    -2.4229320    -0.0122850
  H        3.9287950    -0.2645730     0.0170060
units angstrom
no_reorient  #important for SAPT in psi4, default
symmetry c1  #important for SAPT in psi4, default
}

set PROPERTIES_ORIGIN ["COM"]
properties('MP2/aug-cc-pvtz', properties = ['dipole'])
--------------------------------------------------------------------------

    Molecular point group: c1
  Charge       = 0
  Multiplicity = 1
  Basis Set: AUG-CC-PVTZ
    Blend: AUG-CC-PVTZ
  Basis Set: (AUG-CC-PVTZ AUX)
    Blend: AUG-CC-PVTZ-JKFIT

    Orbital Energies [Eh]
    ---------------------

    Doubly Occupied:

       1A    -26.335158     2A    -26.332064     3A    -26.331135
       4A    -11.507894     5A    -11.270699     6A    -11.261330
       7A    -11.258869     8A    -11.255691     9A    -11.252645
      10A    -11.248799    11A    -11.234723    12A     -1.717403
      13A     -1.626566    14A     -1.623326    15A     -1.182069
      16A     -1.075331    17A     -1.052236    18A     -0.972961
      19A     -0.937536    20A     -0.860514    21A     -0.841353
      22A     -0.811562    23A     -0.804602    24A     -0.771146
      25A     -0.704839    26A     -0.704095    27A     -0.688915
      28A     -0.666071    29A     -0.656921    30A     -0.648620
      31A     -0.643942    32A     -0.635208    33A     -0.587808
      34A     -0.585323    35A     -0.581818    36A     -0.555446
      37A     -0.516588    38A     -0.508847    39A     -0.497807
      40A     -0.363689    41A     -0.340681

  @DF-RHF Final Energy:  -605.57443694716414

   => Energetics <=

    Nuclear Repulsion Energy =            632.5500064653408572
    One-Electron Energy =               -2089.3444228428138558
    Two-Electron Energy =                 851.2199794303088538
    Total Energy =                       -605.5744369471641448
  Basis Set: (AUG-CC-PVTZ AUX)
    Blend: AUG-CC-PVTZ-RI
    Molecular point group: c1

    Geometry (in Angstrom), charge = 0, multiplicity = 1:

       Center              X                  Y                   Z               Mass
    ------------   -----------------  -----------------  -----------------  -----------------
         F           -1.877443432505     0.509994288040    -0.993478003071    18.998403162730
         F           -1.845353432505    -1.490466711960    -0.141346003071    18.998403162730
         F           -1.841342432505     0.246144288040     1.168110996929    18.998403162730
         C            0.154797567495    -0.218031711960    -0.017953003071    12.000000000000
         C            0.792717667495     0.990495788040    -0.006693603071    12.000000000000
         C            0.846792567495    -1.431814711960    -0.017400003071    12.000000000000
         C            2.236387567495     0.973268288040     0.013185996929    12.000000000000
         C           -1.344209432505    -0.241799711960     0.001724996929    12.000000000000
         C            0.127080567495     2.344603288040    -0.018456003071    12.000000000000
         C            2.241113567495    -1.440758711960    -0.010260003071    12.000000000000
         C            2.937509567495    -0.233624711960     0.009474996929    12.000000000000
         H            0.294148567495    -2.365357711960    -0.030525003071     1.007825032230
         H            2.786800567495     1.911956288040     0.031360996929     1.007825032230
         H           -0.254550432505     2.567554288040    -1.018820003071     1.007825032230
         H           -0.719976432505     2.364214288040     0.669418996929     1.007825032230
         H            0.819609567495     3.140110288040     0.267672996929     1.007825032230
         H            2.776538567495    -2.386491711960    -0.011845003071     1.007825032230
         H            4.024798567495    -0.228132711960     0.017445996929     1.007825032230

  Basis Set: AUG-CC-PVTZ
    Blend: AUG-CC-PVTZ
  Basis Set: (AUG-CC-PVTZ AUX)
    Blend: AUG-CC-PVTZ-JKFIT
	 Reference Energy          =    -605.5744369471641448 [Eh]
	 Singles Energy            =      -0.0000000000000000 [Eh]
	 Same-Spin Energy          =      -0.5633606978882892 [Eh]
	 Opposite-Spin Energy      =      -1.6974936824921301 [Eh]
	 Correlation Energy        =      -2.2608543803804193 [Eh]
	 Total Energy              =    -607.8352913275446099 [Eh]

	 ================> DF-SCS-MP2 Energies <==================
	-----------------------------------------------------------
	 SCS Same-Spin Scale       =       0.3333333333333333 [-]
	 SCS Opposite-Spin Scale   =       1.2000000000000000 [-]
	 SCS Same-Spin Energy      =      -0.1877868992960964 [Eh]
	 SCS Opposite-Spin Energy  =      -2.0369924189905562 [Eh]
	 SCS Correlation Energy    =      -2.2247793182866524 [Eh]
	 SCS Total Energy          =    -607.7992162654508093 [Eh]
	-----------------------------------------------------------

  Dipole Moment: [D]
     X:     2.5987      Y:     0.4639      Z:    -0.0590     Total:     2.6405

*** Psi4 exiting successfully. Buy a developer a beer!
