                               Psi4 1.4a3.dev225

  ==> Input File <==

--------------------------------------------------------------------------
#psi4
#
memory 32 gb

molecule  {
0 1
  F       -1.9734470     0.4735540    -0.9939180
  F       -1.9413570    -1.5269070    -0.1417860
  F       -1.9373460     0.2097040     1.1676710
  C        0.0587940    -0.2544720    -0.0183930
  C        0.7415540     0.9772520     0.0078750
  C        0.7507890    -1.4682550    -0.0178400
  C        2.1403840     0.9368280     0.0127460
  C       -1.4402130    -0.2782400     0.0012850
  C        0.0310770     2.3081630    -0.0188960
  C        2.2310201    -1.5228417    -0.0106302
  C        2.8415060    -0.2700650     0.0090350
  H        0.1981450    -2.4017980    -0.0309650
  H        2.6907970     1.8755160     0.0309210
  H       -0.3505540     2.5311140    -1.0192600
  H       -0.8159800     2.3277740     0.6689790
  H        0.7236060     3.1036700     0.2672330
  H        2.6805350    -2.4229320    -0.0122850
  H        3.9287950    -0.2645730     0.0170060
units angstrom
no_reorient  #important for SAPT in psi4, default
symmetry c1  #important for SAPT in psi4, default
}

set PROPERTIES_ORIGIN ["COM"]
properties('MP2/aug-cc-pvtz', properties = ['dipole'])
--------------------------------------------------------------------------

    Molecular point group: c1
  Charge       = 0
  Multiplicity = 1
  Basis Set: AUG-CC-PVTZ
    Blend: AUG-CC-PVTZ
  Basis Set: (AUG-CC-PVTZ AUX)
    Blend: AUG-CC-PVTZ-JKFIT

    Orbital Energies [Eh]
    ---------------------

    Doubly Occupied:

       1A    -26.335278     2A    -26.332299     3A    -26.331356
       4A    -11.509279     5A    -11.271686     6A    -11.270000
       7A    -11.265515     8A    -11.257578     9A    -11.251778
      10A    -11.248021    11A    -11.234429    12A     -1.717544
      13A     -1.626640    14A     -1.623524    15A     -1.175063
      16A     -1.071412    17A     -1.052550    18A     -0.969177
      19A     -0.941056    20A     -0.858439    21A     -0.839839
      22A     -0.811751    23A     -0.804381    24A     -0.780535
      25A     -0.704785    26A     -0.703705    27A     -0.688492
      28A     -0.666118    29A     -0.656985    30A     -0.650143
      31A     -0.644088    32A     -0.640237    33A     -0.591985
      34A     -0.584430    35A     -0.581366    36A     -0.550882
      37A     -0.519242    38A     -0.502926    39A     -0.496945
      40A     -0.363001    41A     -0.337719

  @DF-RHF Final Energy:  -605.56472080932849

   => Energetics <=

    Nuclear Repulsion Energy =            630.1894419004106567
    One-Electron Energy =               -2084.5839683540880287
    Two-Electron Energy =                 848.8298056443488804
    Total Energy =                       -605.5647208093284917
  Basis Set: (AUG-CC-PVTZ AUX)
    Blend: AUG-CC-PVTZ-RI
    Molecular point group: c1

    Geometry (in Angstrom), charge = 0, multiplicity = 1:

       Center              X                  Y                   Z               Mass
    ------------   -----------------  -----------------  -----------------  -----------------
         F           -1.887246619945     0.511677227282    -0.994608529890    18.998403162730
         F           -1.855156619945    -1.488783772718    -0.142476529890    18.998403162730
         F           -1.851145619945     0.247827227282     1.166980470110    18.998403162730
         C            0.144994380055    -0.216348772718    -0.019083529890    12.000000000000
         C            0.827754380055     1.015375227282     0.007184470110    12.000000000000
         C            0.836989380055    -1.430131772718    -0.018530529890    12.000000000000
         C            2.226584380055     0.974951227282     0.012055470110    12.000000000000
         C           -1.354012619945    -0.240116772718     0.000594470110    12.000000000000
         C            0.117277380055     2.346286227282    -0.019586529890    12.000000000000
         C            2.317220480055    -1.484718472718    -0.011320729890    12.000000000000
         C            2.927706380055    -0.231941772718     0.008344470110    12.000000000000
         H            0.284345380055    -2.363674772718    -0.031655529890     1.007825032230
         H            2.776997380055     1.913639227282     0.030230470110     1.007825032230
         H           -0.264353619945     2.569237227282    -1.019950529890     1.007825032230
         H           -0.729779619945     2.365897227282     0.668288470110     1.007825032230
         H            0.809806380055     3.141793227282     0.266542470110     1.007825032230
         H            2.766735380055    -2.384808772718    -0.012975529890     1.007825032230
         H            4.014995380055    -0.226449772718     0.016315470110     1.007825032230

  Basis Set: AUG-CC-PVTZ
    Blend: AUG-CC-PVTZ
  Basis Set: (AUG-CC-PVTZ AUX)
    Blend: AUG-CC-PVTZ-JKFIT
	 Reference Energy          =    -605.5647208093284917 [Eh]
	 Singles Energy            =      -0.0000000000000000 [Eh]
	 Same-Spin Energy          =      -0.5631352890408434 [Eh]
	 Opposite-Spin Energy      =      -1.6981901658040823 [Eh]
	 Correlation Energy        =      -2.2613254548449255 [Eh]
	 Total Energy              =    -607.8260462641734421 [Eh]

	 ================> DF-SCS-MP2 Energies <==================
	-----------------------------------------------------------
	 SCS Same-Spin Scale       =       0.3333333333333333 [-]
	 SCS Opposite-Spin Scale   =       1.2000000000000000 [-]
	 SCS Same-Spin Energy      =      -0.1877117630136145 [Eh]
	 SCS Opposite-Spin Energy  =      -2.0378281989648985 [Eh]
	 SCS Correlation Energy    =      -2.2255399619785128 [Eh]
	 SCS Total Energy          =    -607.7902607713069756 [Eh]
	-----------------------------------------------------------

  Dipole Moment: [D]
     X:     2.5832      Y:     0.4026      Z:    -0.0629     Total:     2.6151

*** Psi4 exiting successfully. Buy a developer a beer!
