                               Psi4 1.4a3.dev225

  ==> Input File <==

--------------------------------------------------------------------------
#psi4
#
memory 32 gb

molecule  {
0 1
  F       -1.9734470     0.4735540    -0.9939180
  F       -1.9413570    -1.5269070    -0.1417860
  F       -1.9373460     0.2097040     1.1676710
  C        0.0587940    -0.2544720    -0.0183930
  C        0.7415540     0.9772520     0.0078750
  C        0.7507890    -1.4682550    -0.0178400
  C        2.1403840     0.9368280     0.0127460
  C       -1.4402130    -0.2782400     0.0012850
  C        0.0310770     2.3081630    -0.0188960
  C        2.1451100    -1.4771990    -0.0107000
  C        2.8624678    -0.2824056     0.0091937
  H        0.1981450    -2.4017980    -0.0309650
  H        2.6907970     1.8755160     0.0309210
  H       -0.3505540     2.5311140    -1.0192600
  H       -0.8159800     2.3277740     0.6689790
  H        0.7236060     3.1036700     0.2672330
  H        2.6805350    -2.4229320    -0.0122850
  H        3.9287950    -0.2645730     0.0170060
units angstrom
no_reorient  #important for SAPT in psi4, default
symmetry c1  #important for SAPT in psi4, default
}

set PROPERTIES_ORIGIN ["COM"]
properties('MP2/aug-cc-pvtz', properties = ['dipole'])
--------------------------------------------------------------------------

    Molecular point group: c1
  Charge       = 0
  Multiplicity = 1
  Basis Set: AUG-CC-PVTZ
    Blend: AUG-CC-PVTZ
  Basis Set: (AUG-CC-PVTZ AUX)
    Blend: AUG-CC-PVTZ-JKFIT

    Orbital Energies [Eh]
    ---------------------

    Doubly Occupied:

       1A    -26.335516     2A    -26.331972     3A    -26.331135
       4A    -11.508787     5A    -11.270003     6A    -11.265377
       7A    -11.260033     8A    -11.257409     9A    -11.250473
      10A    -11.249235    11A    -11.233839    12A     -1.717442
      13A     -1.626675    14A     -1.623273    15A     -1.179049
      16A     -1.071513    17A     -1.055964    18A     -0.972535
      19A     -0.937352    20A     -0.863406    21A     -0.836409
      22A     -0.811586    23A     -0.803473    24A     -0.774511
      25A     -0.704686    26A     -0.704262    27A     -0.690969
      28A     -0.665585    29A     -0.656865    30A     -0.648143
      31A     -0.643954    32A     -0.634868    33A     -0.590159
      34A     -0.584685    35A     -0.581018    36A     -0.554314
      37A     -0.511734    38A     -0.507432    39A     -0.504553
      40A     -0.358549    41A     -0.344610

  @DF-RHF Final Energy:  -605.57650134737469

   => Energetics <=

    Nuclear Repulsion Energy =            631.5966329709107185
    One-Electron Energy =               -2087.4395684716100732
    Two-Electron Energy =                 850.2664341533245533
    Total Energy =                       -605.5765013473746876
  Basis Set: (AUG-CC-PVTZ AUX)
    Blend: AUG-CC-PVTZ-RI
    Molecular point group: c1

    Geometry (in Angstrom), charge = 0, multiplicity = 1:

       Center              X                  Y                   Z               Mass
    ------------   -----------------  -----------------  -----------------  -----------------
         F           -1.882377018730     0.509180349818    -0.994615195307    18.998403162730
         F           -1.850287018730    -1.491280650182    -0.142483195307    18.998403162730
         F           -1.846276018730     0.245330349818     1.166973804693    18.998403162730
         C            0.149863981270    -0.218845650182    -0.019090195307    12.000000000000
         C            0.832623981270     1.012878349818     0.007177804693    12.000000000000
         C            0.841858981270    -1.432628650182    -0.018537195307    12.000000000000
         C            2.231453981270     0.972454349818     0.012048804693    12.000000000000
         C           -1.349143018730    -0.242613650182     0.000587804693    12.000000000000
         C            0.122146981270     2.343789349818    -0.019593195307    12.000000000000
         C            2.236179981270    -1.441572650182    -0.011397195307    12.000000000000
         C            2.953537781270    -0.246779250182     0.008496504693    12.000000000000
         H            0.289214981270    -2.366171650182    -0.031662195307     1.007825032230
         H            2.781866981270     1.911142349818     0.030223804693     1.007825032230
         H           -0.259484018730     2.566740349818    -1.019957195307     1.007825032230
         H           -0.724910018730     2.363400349818     0.668281804693     1.007825032230
         H            0.814675981270     3.139296349818     0.266535804693     1.007825032230
         H            2.771604981270    -2.387305650182    -0.012982195307     1.007825032230
         H            4.019864981270    -0.228946650182     0.016308804693     1.007825032230

  Basis Set: AUG-CC-PVTZ
    Blend: AUG-CC-PVTZ
  Basis Set: (AUG-CC-PVTZ AUX)
    Blend: AUG-CC-PVTZ-JKFIT
	 Reference Energy          =    -605.5765013473746876 [Eh]
	 Singles Energy            =      -0.0000000000000000 [Eh]
	 Same-Spin Energy          =      -0.5633325894571249 [Eh]
	 Opposite-Spin Energy      =      -1.6975162319398711 [Eh]
	 Correlation Energy        =      -2.2608488213969959 [Eh]
	 Total Energy              =    -607.8373501687716498 [Eh]

	 ================> DF-SCS-MP2 Energies <==================
	-----------------------------------------------------------
	 SCS Same-Spin Scale       =       0.3333333333333333 [-]
	 SCS Opposite-Spin Scale   =       1.2000000000000000 [-]
	 SCS Same-Spin Energy      =      -0.1877775298190416 [Eh]
	 SCS Opposite-Spin Energy  =      -2.0370194783278452 [Eh]
	 SCS Correlation Energy    =      -2.2247970081468869 [Eh]
	 SCS Total Energy          =    -607.8012983555215669 [Eh]
	-----------------------------------------------------------

  Dipole Moment: [D]
     X:     2.6033      Y:     0.4353      Z:    -0.0624     Total:     2.6402

*** Psi4 exiting successfully. Buy a developer a beer!
