                               Psi4 1.4a3.dev225

  ==> Input File <==

--------------------------------------------------------------------------
#psi4
#
memory 32 gb

molecule  {
0 1
  F       -1.9734470     0.4735540    -0.9939180
  F       -1.9413570    -1.5269070    -0.1417860
  F       -1.9373460     0.2097040     1.1676710
  C        0.0587940    -0.2544720    -0.0183930
  C        0.7415540     0.9772520     0.0078750
  C        0.7507890    -1.4682550    -0.0178400
  C        2.1403840     0.9368280     0.0127460
  C       -1.4402130    -0.2782400     0.0012850
  C        0.0310770     2.3081630    -0.0188960
  C        2.1034017    -1.4521572    -0.0106988
  C        2.8415060    -0.2700650     0.0090350
  H        0.1981450    -2.4017980    -0.0309650
  H        2.6907970     1.8755160     0.0309210
  H       -0.3505540     2.5311140    -1.0192600
  H       -0.8159800     2.3277740     0.6689790
  H        0.7236060     3.1036700     0.2672330
  H        2.6805350    -2.4229320    -0.0122850
  H        3.9287950    -0.2645730     0.0170060
units angstrom
no_reorient  #important for SAPT in psi4, default
symmetry c1  #important for SAPT in psi4, default
}

set PROPERTIES_ORIGIN ["COM"]
properties('MP2/aug-cc-pvtz', properties = ['dipole'])
--------------------------------------------------------------------------

    Molecular point group: c1
  Charge       = 0
  Multiplicity = 1
  Basis Set: AUG-CC-PVTZ
    Blend: AUG-CC-PVTZ
  Basis Set: (AUG-CC-PVTZ AUX)
    Blend: AUG-CC-PVTZ-JKFIT

    Orbital Energies [Eh]
    ---------------------

    Doubly Occupied:

       1A    -26.335562     2A    -26.331647     3A    -26.330854
       4A    -11.508346     5A    -11.269854     6A    -11.264456
       7A    -11.256692     8A    -11.254355     9A    -11.248547
      10A    -11.247490    11A    -11.233867    12A     -1.717270
      13A     -1.626598    14A     -1.623005    15A     -1.184200
      16A     -1.072684    17A     -1.059673    18A     -0.976145
      19A     -0.935438    20A     -0.863904    21A     -0.836061
      22A     -0.811388    23A     -0.803578    24A     -0.771523
      25A     -0.704701    26A     -0.704345    27A     -0.690122
      28A     -0.666838    29A     -0.656702    30A     -0.648105
      31A     -0.643771    32A     -0.632895    33A     -0.593839
      34A     -0.584859    35A     -0.575097    36A     -0.555015
      37A     -0.512680    38A     -0.511940    39A     -0.499172
      40A     -0.360269    41A     -0.347218

  @DF-RHF Final Energy:  -605.57443893528978

   => Energetics <=

    Nuclear Repulsion Energy =            633.0395893399694387
    One-Electron Energy =               -2090.3266429356631306
    Two-Electron Energy =                 851.7126146604038013
    Total Energy =                       -605.5744389352897770
  Basis Set: (AUG-CC-PVTZ AUX)
    Blend: AUG-CC-PVTZ-RI
    Molecular point group: c1

    Geometry (in Angstrom), charge = 0, multiplicity = 1:

       Center              X                  Y                   Z               Mass
    ------------   -----------------  -----------------  -----------------  -----------------
         F           -1.877678229153     0.506377545426    -0.994603386497    18.998403162730
         F           -1.845588229153    -1.494083454574    -0.142471386497    18.998403162730
         F           -1.841577229153     0.242527545426     1.166985613503    18.998403162730
         C            0.154562770847    -0.221648454574    -0.019078386497    12.000000000000
         C            0.837322770847     1.010075545426     0.007189613503    12.000000000000
         C            0.846557770847    -1.435431454574    -0.018525386497    12.000000000000
         C            2.236152770847     0.969651545426     0.012060613503    12.000000000000
         C           -1.344444229153    -0.245416454574     0.000599613503    12.000000000000
         C            0.126845770847     2.340986545426    -0.019581386497    12.000000000000
         C            2.199170470847    -1.419333654574    -0.011384186497    12.000000000000
         C            2.937274770847    -0.237241454574     0.008349613503    12.000000000000
         H            0.293913770847    -2.368974454574    -0.031650386497     1.007825032230
         H            2.786565770847     1.908339545426     0.030235613503     1.007825032230
         H           -0.254785229153     2.563937545426    -1.019945386497     1.007825032230
         H           -0.720211229153     2.360597545426     0.668293613503     1.007825032230
         H            0.819374770847     3.136493545426     0.266547613503     1.007825032230
         H            2.776303770847    -2.390108454574    -0.012970386497     1.007825032230
         H            4.024563770847    -0.231749454574     0.016320613503     1.007825032230

  Basis Set: AUG-CC-PVTZ
    Blend: AUG-CC-PVTZ
  Basis Set: (AUG-CC-PVTZ AUX)
    Blend: AUG-CC-PVTZ-JKFIT
	 Reference Energy          =    -605.5744389352897770 [Eh]
	 Singles Energy            =      -0.0000000000000000 [Eh]
	 Same-Spin Energy          =      -0.5635265327351477 [Eh]
	 Opposite-Spin Energy      =      -1.6974011713559221 [Eh]
	 Correlation Energy        =      -2.2609277040910696 [Eh]
	 Total Energy              =    -607.8353666393808226 [Eh]

	 ================> DF-SCS-MP2 Energies <==================
	-----------------------------------------------------------
	 SCS Same-Spin Scale       =       0.3333333333333333 [-]
	 SCS Opposite-Spin Scale   =       1.2000000000000000 [-]
	 SCS Same-Spin Energy      =      -0.1878421775783826 [Eh]
	 SCS Opposite-Spin Energy  =      -2.0368814056271063 [Eh]
	 SCS Correlation Energy    =      -2.2247235832054888 [Eh]
	 SCS Total Energy          =    -607.7991625184952227 [Eh]
	-----------------------------------------------------------

  Dipole Moment: [D]
     X:     2.5943      Y:     0.4636      Z:    -0.0624     Total:     2.6361

*** Psi4 exiting successfully. Buy a developer a beer!
