                               Psi4 1.4a3.dev225

  ==> Input File <==

--------------------------------------------------------------------------
#psi4
#
memory 32 gb

molecule  {
0 1
  F       -1.9734470     0.4735540    -0.9939180
  F       -1.9413570    -1.5269070    -0.1417860
  F       -1.9373460     0.2097040     1.1676710
  C        0.0587940    -0.2544720    -0.0183930
  C        0.7415540     0.9772520     0.0078750
  C        0.8003168    -1.5551284    -0.0178004
  C        2.1403840     0.9368280     0.0127460
  C       -1.4402130    -0.2782400     0.0012850
  C        0.0310770     2.3081630    -0.0188960
  C        2.1451100    -1.4771990    -0.0107000
  C        2.8415060    -0.2700650     0.0090350
  H        0.1981450    -2.4017980    -0.0309650
  H        2.6907970     1.8755160     0.0309210
  H       -0.3505540     2.5311140    -1.0192600
  H       -0.8159800     2.3277740     0.6689790
  H        0.7236060     3.1036700     0.2672330
  H        2.6805350    -2.4229320    -0.0122850
  H        3.9287950    -0.2645730     0.0170060
units angstrom
no_reorient  #important for SAPT in psi4, default
symmetry c1  #important for SAPT in psi4, default
}

set PROPERTIES_ORIGIN ["COM"]
properties('MP2/aug-cc-pvtz', properties = ['dipole'])
--------------------------------------------------------------------------

    Molecular point group: c1
  Charge       = 0
  Multiplicity = 1
  Basis Set: AUG-CC-PVTZ
    Blend: AUG-CC-PVTZ
  Basis Set: (AUG-CC-PVTZ AUX)
    Blend: AUG-CC-PVTZ-JKFIT

    Orbital Energies [Eh]
    ---------------------

    Doubly Occupied:

       1A    -26.335346     2A    -26.330901     3A    -26.329996
       4A    -11.508043     5A    -11.271566     6A    -11.270389
       7A    -11.260614     8A    -11.258143     9A    -11.250286
      10A    -11.244956    11A    -11.234316    12A     -1.716641
      13A     -1.626168    14A     -1.622212    15A     -1.175159
      16A     -1.074943    17A     -1.052895    18A     -0.977509
      19A     -0.933434    20A     -0.865883    21A     -0.835057
      22A     -0.810620    23A     -0.804820    24A     -0.767620
      25A     -0.704421    26A     -0.703769    27A     -0.694519
      28A     -0.666831    29A     -0.656032    30A     -0.644678
      31A     -0.643095    32A     -0.638762    33A     -0.596856
      34A     -0.584436    35A     -0.576020    36A     -0.554810
      37A     -0.517479    38A     -0.506256    39A     -0.494409
      40A     -0.353795    41A     -0.349053

  @DF-RHF Final Energy:  -605.56548344858061

   => Energetics <=

    Nuclear Repulsion Energy =            630.3884539437696048
    One-Electron Energy =               -2085.0223959481581915
    Two-Electron Energy =                 849.0684585558080926
    Total Energy =                       -605.5654834485806077
  Basis Set: (AUG-CC-PVTZ AUX)
    Blend: AUG-CC-PVTZ-RI
    Molecular point group: c1

    Geometry (in Angstrom), charge = 0, multiplicity = 1:

       Center              X                  Y                   Z               Mass
    ------------   -----------------  -----------------  -----------------  -----------------
         F           -1.884518799628     0.514768564034    -0.994606265597    18.998403162730
         F           -1.852428799628    -1.485692435966    -0.142474265597    18.998403162730
         F           -1.848417799628     0.250918564034     1.166982734403    18.998403162730
         C            0.147722200372    -0.213257435966    -0.019081265597    12.000000000000
         C            0.830482200372     1.018466564034     0.007186734403    12.000000000000
         C            0.889245000372    -1.513913835966    -0.018488665597    12.000000000000
         C            2.229312200372     0.978042564034     0.012057734403    12.000000000000
         C           -1.351284799628    -0.237025435966     0.000596734403    12.000000000000
         C            0.120005200372     2.349377564034    -0.019584265597    12.000000000000
         C            2.234038200372    -1.435984435966    -0.011388265597    12.000000000000
         C            2.930434200372    -0.228850435966     0.008346734403    12.000000000000
         H            0.287073200372    -2.360583435966    -0.031653265597     1.007825032230
         H            2.779725200372     1.916730564034     0.030232734403     1.007825032230
         H           -0.261625799628     2.572328564034    -1.019948265597     1.007825032230
         H           -0.727051799628     2.368988564034     0.668290734403     1.007825032230
         H            0.812534200372     3.144884564034     0.266544734403     1.007825032230
         H            2.769463200372    -2.381717435966    -0.012973265597     1.007825032230
         H            4.017723200372    -0.223358435966     0.016317734403     1.007825032230

  Basis Set: AUG-CC-PVTZ
    Blend: AUG-CC-PVTZ
  Basis Set: (AUG-CC-PVTZ AUX)
    Blend: AUG-CC-PVTZ-JKFIT
	 Reference Energy          =    -605.5654834485806077 [Eh]
	 Singles Energy            =      -0.0000000000000000 [Eh]
	 Same-Spin Energy          =      -0.5633406807527920 [Eh]
	 Opposite-Spin Energy      =      -1.6981407445263172 [Eh]
	 Correlation Energy        =      -2.2614814252791091 [Eh]
	 Total Energy              =    -607.8269648738597652 [Eh]

	 ================> DF-SCS-MP2 Energies <==================
	-----------------------------------------------------------
	 SCS Same-Spin Scale       =       0.3333333333333333 [-]
	 SCS Opposite-Spin Scale   =       1.2000000000000000 [-]
	 SCS Same-Spin Energy      =      -0.1877802269175973 [Eh]
	 SCS Opposite-Spin Energy  =      -2.0377688934315805 [Eh]
	 SCS Correlation Energy    =      -2.2255491203491777 [Eh]
	 SCS Total Energy          =    -607.7910325689298361 [Eh]
	-----------------------------------------------------------

  Dipole Moment: [D]
     X:     2.6025      Y:     0.4608      Z:    -0.0620     Total:     2.6437

*** Psi4 exiting successfully. Buy a developer a beer!
