                               Psi4 1.4a3.dev225

  ==> Input File <==

--------------------------------------------------------------------------
#psi4
#
memory 32 gb

molecule  {
0 1
  F       -1.9734470     0.4735540    -0.9939180
  F       -1.9413570    -1.5269070    -0.1417860
  F       -1.9373460     0.2097040     1.1676710
  C        0.0587940    -0.2544720    -0.0183930
  C        0.7415540     0.9772520     0.0078750
  C        0.8498446    -1.6420019    -0.0177608
  C        2.1403840     0.9368280     0.0127460
  C       -1.4402130    -0.2782400     0.0012850
  C        0.0310770     2.3081630    -0.0188960
  C        2.1451100    -1.4771990    -0.0107000
  C        2.8415060    -0.2700650     0.0090350
  H        0.1981450    -2.4017980    -0.0309650
  H        2.6907970     1.8755160     0.0309210
  H       -0.3505540     2.5311140    -1.0192600
  H       -0.8159800     2.3277740     0.6689790
  H        0.7236060     3.1036700     0.2672330
  H        2.6805350    -2.4229320    -0.0122850
  H        3.9287950    -0.2645730     0.0170060
units angstrom
no_reorient  #important for SAPT in psi4, default
symmetry c1  #important for SAPT in psi4, default
}

set PROPERTIES_ORIGIN ["COM"]
properties('MP2/aug-cc-pvtz', properties = ['dipole'])
--------------------------------------------------------------------------

    Molecular point group: c1
  Charge       = 0
  Multiplicity = 1
  Basis Set: AUG-CC-PVTZ
    Blend: AUG-CC-PVTZ
  Basis Set: (AUG-CC-PVTZ AUX)
    Blend: AUG-CC-PVTZ-JKFIT

    Orbital Energies [Eh]
    ---------------------

    Doubly Occupied:

       1A    -26.335076     2A    -26.329883     3A    -26.328978
       4A    -11.507142     5A    -11.274157     6A    -11.271238
       7A    -11.261639     8A    -11.259313     9A    -11.252626
      10A    -11.242245    11A    -11.234410    12A     -1.715845
      13A     -1.625612    14A     -1.621215    15A     -1.171943
      16A     -1.079867    17A     -1.048862    18A     -0.981394
      19A     -0.929993    20A     -0.869309    21A     -0.834293
      22A     -0.809683    23A     -0.805592    24A     -0.763707
      25A     -0.705723    26A     -0.703048    27A     -0.699580
      28A     -0.669507    29A     -0.655236    30A     -0.649809
      31A     -0.642351    32A     -0.633975    33A     -0.600809
      34A     -0.584032    35A     -0.572556    36A     -0.554880
      37A     -0.521832    38A     -0.505405    39A     -0.474525
      40A     -0.363692    41A     -0.340356

  @DF-RHF Final Energy:  -605.53542482198907

   => Energetics <=

    Nuclear Repulsion Energy =            628.8303141118959729
    One-Electron Energy =               -2081.8688033535895556
    Two-Electron Energy =                 847.5030644197046286
    Total Energy =                       -605.5354248219890678
  Basis Set: (AUG-CC-PVTZ AUX)
    Blend: AUG-CC-PVTZ-RI
    Molecular point group: c1

    Geometry (in Angstrom), charge = 0, multiplicity = 1:

       Center              X                  Y                   Z               Mass
    ------------   -----------------  -----------------  -----------------  -----------------
         F           -1.888232224538     0.521282041695    -0.994609234670    18.998403162730
         F           -1.856142224538    -1.479178958305    -0.142477234670    18.998403162730
         F           -1.852131224538     0.257432041695     1.166979765330    18.998403162730
         C            0.144008775462    -0.206743958305    -0.019084234670    12.000000000000
         C            0.826768775462     1.024980041695     0.007183765330    12.000000000000
         C            0.935059375462    -1.594273858305    -0.018452034670    12.000000000000
         C            2.225598775462     0.984556041695     0.012054765330    12.000000000000
         C           -1.354998224538    -0.230511958305     0.000593765330    12.000000000000
         C            0.116291775462     2.355891041695    -0.019587234670    12.000000000000
         C            2.230324775462    -1.429470958305    -0.011391234670    12.000000000000
         C            2.926720775462    -0.222336958305     0.008343765330    12.000000000000
         H            0.283359775462    -2.354069958305    -0.031656234670     1.007825032230
         H            2.776011775462     1.923244041695     0.030229765330     1.007825032230
         H           -0.265339224538     2.578842041695    -1.019951234670     1.007825032230
         H           -0.730765224538     2.375502041695     0.668287765330     1.007825032230
         H            0.808820775462     3.151398041695     0.266541765330     1.007825032230
         H            2.765749775462    -2.375203958305    -0.012976234670     1.007825032230
         H            4.014009775462    -0.216844958305     0.016314765330     1.007825032230

  Basis Set: AUG-CC-PVTZ
    Blend: AUG-CC-PVTZ
  Basis Set: (AUG-CC-PVTZ AUX)
    Blend: AUG-CC-PVTZ-JKFIT
	 Reference Energy          =    -605.5354248219890678 [Eh]
	 Singles Energy            =      -0.0000000000000000 [Eh]
	 Same-Spin Energy          =      -0.5632663852524949 [Eh]
	 Opposite-Spin Energy      =      -1.6999757082729068 [Eh]
	 Correlation Energy        =      -2.2632420935254016 [Eh]
	 Total Energy              =    -607.7986669155144455 [Eh]

	 ================> DF-SCS-MP2 Energies <==================
	-----------------------------------------------------------
	 SCS Same-Spin Scale       =       0.3333333333333333 [-]
	 SCS Opposite-Spin Scale   =       1.2000000000000000 [-]
	 SCS Same-Spin Energy      =      -0.1877554617508316 [Eh]
	 SCS Opposite-Spin Energy  =      -2.0399708499274882 [Eh]
	 SCS Correlation Energy    =      -2.2277263116783197 [Eh]
	 SCS Total Energy          =    -607.7631511336674066 [Eh]
	-----------------------------------------------------------

  Dipole Moment: [D]
     X:     2.6175      Y:     0.4716      Z:    -0.0614     Total:     2.6604

*** Psi4 exiting successfully. Buy a developer a beer!
