                               Psi4 1.4a3.dev225

  ==> Input File <==

--------------------------------------------------------------------------
#psi4
#
memory 32 gb

molecule  {
0 1
  F       -1.9734470     0.4735540    -0.9939180
  F       -1.9413570    -1.5269070    -0.1417860
  F       -1.9373460     0.2097040     1.1676710
  C        0.0587940    -0.2544720    -0.0183930
  C        0.7415540     0.9772520     0.0078750
  C        0.7507890    -1.4682550    -0.0178400
  C        2.1403840     0.9368280     0.0127460
  C       -1.4402130    -0.2782400     0.0012850
  C        0.0310770     2.3081630    -0.0188960
  C        2.1451100    -1.4771990    -0.0107000
  C        2.8415060    -0.2700650     0.0090350
  H        0.1981450    -2.4017980    -0.0309650
  H        2.6907970     1.8755160     0.0309210
  H       -0.3505540     2.5311140    -1.0192600
  H       -0.8159800     2.3277740     0.6689790
  H        0.7236060     3.1036700     0.2672330
  H        2.6312680    -2.3359105    -0.0121392
  H        3.9287950    -0.2645730     0.0170060
units angstrom
no_reorient  #important for SAPT in psi4, default
symmetry c1  #important for SAPT in psi4, default
}

set PROPERTIES_ORIGIN ["COM"]
properties('MP2/aug-cc-pvtz', properties = ['dipole'])
--------------------------------------------------------------------------

    Molecular point group: c1
  Charge       = 0
  Multiplicity = 1
  Basis Set: AUG-CC-PVTZ
    Blend: AUG-CC-PVTZ
  Basis Set: (AUG-CC-PVTZ AUX)
    Blend: AUG-CC-PVTZ-JKFIT

    Orbital Energies [Eh]
    ---------------------

    Doubly Occupied:

       1A    -26.335205     2A    -26.331572     3A    -26.330733
       4A    -11.508275     5A    -11.270113     6A    -11.264236
       7A    -11.258981     8A    -11.255881     9A    -11.247669
      10A    -11.236945    11A    -11.233778    12A     -1.717083
      13A     -1.626345    14A     -1.622900    15A     -1.180558
      16A     -1.073833    17A     -1.057211    18A     -0.974010
      19A     -0.939662    20A     -0.861590    21A     -0.839025
      22A     -0.811231    23A     -0.804058    24A     -0.781117
      25A     -0.704645    26A     -0.704217    27A     -0.693075
      28A     -0.665984    29A     -0.656528    30A     -0.650603
      31A     -0.643612    32A     -0.637090    33A     -0.593835
      34A     -0.585027    35A     -0.583117    36A     -0.553577
      37A     -0.511430    38A     -0.508477    39A     -0.507571
      40A     -0.359966    41A     -0.343980

  @DF-RHF Final Energy:  -605.57167003860604

   => Energetics <=

    Nuclear Repulsion Energy =            632.6186123350095158
    One-Electron Energy =               -2089.4510796720683174
    Two-Electron Energy =                 851.2607972984528715
    Total Energy =                       -605.5716700386060438
  Basis Set: (AUG-CC-PVTZ AUX)
    Blend: AUG-CC-PVTZ-RI
    Molecular point group: c1

    Geometry (in Angstrom), charge = 0, multiplicity = 1:

       Center              X                  Y                   Z               Mass
    ------------   -----------------  -----------------  -----------------  -----------------
         F           -1.880495143412     0.507707124772    -0.994604214618    18.998403162730
         F           -1.848405143412    -1.492753875228    -0.142472214618    18.998403162730
         F           -1.844394143412     0.243857124772     1.166984785382    18.998403162730
         C            0.151745856588    -0.220318875228    -0.019079214618    12.000000000000
         C            0.834505856588     1.011405124772     0.007188785382    12.000000000000
         C            0.843740856588    -1.434101875228    -0.018526214618    12.000000000000
         C            2.233335856588     0.970981124772     0.012059785382    12.000000000000
         C           -1.347261143412    -0.244086875228     0.000598785382    12.000000000000
         C            0.124028856588     2.342316124772    -0.019582214618    12.000000000000
         C            2.238061856588    -1.443045875228    -0.011386214618    12.000000000000
         C            2.934457856588    -0.235911875228     0.008348785382    12.000000000000
         H            0.291096856588    -2.367644875228    -0.031651214618     1.007825032230
         H            2.783748856588     1.909669124772     0.030234785382     1.007825032230
         H           -0.257602143412     2.565267124772    -1.019946214618     1.007825032230
         H           -0.723028143412     2.361927124772     0.668292785382     1.007825032230
         H            0.816557856588     3.137823124772     0.266546785382     1.007825032230
         H            2.724219856588    -2.301757375228    -0.012825414618     1.007825032230
         H            4.021746856588    -0.230419875228     0.016319785382     1.007825032230

  Basis Set: AUG-CC-PVTZ
    Blend: AUG-CC-PVTZ
  Basis Set: (AUG-CC-PVTZ AUX)
    Blend: AUG-CC-PVTZ-JKFIT
	 Reference Energy          =    -605.5716700386060438 [Eh]
	 Singles Energy            =      -0.0000000000000000 [Eh]
	 Same-Spin Energy          =      -0.5632051325328640 [Eh]
	 Opposite-Spin Energy      =      -1.6968209263503220 [Eh]
	 Correlation Energy        =      -2.2600260588831862 [Eh]
	 Total Energy              =    -607.8316960974892709 [Eh]

	 ================> DF-SCS-MP2 Energies <==================
	-----------------------------------------------------------
	 SCS Same-Spin Scale       =       0.3333333333333333 [-]
	 SCS Opposite-Spin Scale   =       1.2000000000000000 [-]
	 SCS Same-Spin Energy      =      -0.1877350441776213 [Eh]
	 SCS Opposite-Spin Energy  =      -2.0361851116203864 [Eh]
	 SCS Correlation Energy    =      -2.2239201557980075 [Eh]
	 SCS Total Energy          =    -607.7955901944040988 [Eh]
	-----------------------------------------------------------

  Dipole Moment: [D]
     X:     2.6102      Y:     0.4144      Z:    -0.0628     Total:     2.6436

*** Psi4 exiting successfully. Buy a developer a beer!
