                               Psi4 1.4a3.dev225

  ==> Input File <==

--------------------------------------------------------------------------
#psi4
#
memory 32 gb

molecule  {
0 1
  F       -1.9734470     0.4735540    -0.9939180
  F       -1.9413570    -1.5269070    -0.1417860
  F       -1.9373460     0.2097040     1.1676710
  C        0.0587940    -0.2544720    -0.0183930
  C        0.7415540     0.9772520     0.0078750
  C        0.7507890    -1.4682550    -0.0178400
  C        2.1403840     0.9368280     0.0127460
  C       -1.4402130    -0.2782400     0.0012850
  C        0.0310770     2.3081630    -0.0188960
  C        2.1451100    -1.4771990    -0.0107000
  C        2.8666219    -0.3132989     0.0089021
  H        0.1981450    -2.4017980    -0.0309650
  H        2.6907970     1.8755160     0.0309210
  H       -0.3505540     2.5311140    -1.0192600
  H       -0.8159800     2.3277740     0.6689790
  H        0.7236060     3.1036700     0.2672330
  H        2.6805350    -2.4229320    -0.0122850
  H        3.9287950    -0.2645730     0.0170060
units angstrom
no_reorient  #important for SAPT in psi4, default
symmetry c1  #important for SAPT in psi4, default
}

set PROPERTIES_ORIGIN ["COM"]
properties('MP2/aug-cc-pvtz', properties = ['dipole'])
--------------------------------------------------------------------------

    Molecular point group: c1
  Charge       = 0
  Multiplicity = 1
  Basis Set: AUG-CC-PVTZ
    Blend: AUG-CC-PVTZ
  Basis Set: (AUG-CC-PVTZ AUX)
    Blend: AUG-CC-PVTZ-JKFIT

    Orbital Energies [Eh]
    ---------------------

    Doubly Occupied:

       1A    -26.335536     2A    -26.332104     3A    -26.331268
       4A    -11.508924     5A    -11.269233     6A    -11.265858
       7A    -11.260814     8A    -11.257327     9A    -11.252739
      10A    -11.246999    11A    -11.233494    12A     -1.717528
      13A     -1.626730    14A     -1.623392    15A     -1.178860
      16A     -1.073740    17A     -1.054291    18A     -0.970574
      19A     -0.938581    20A     -0.864769    21A     -0.835552
      22A     -0.811678    23A     -0.803521    24A     -0.774299
      25A     -0.704764    26A     -0.704296    27A     -0.691760
      28A     -0.665811    29A     -0.656951    30A     -0.648736
      31A     -0.644049    32A     -0.633657    33A     -0.588679
      34A     -0.584532    35A     -0.581959    36A     -0.555537
      37A     -0.514388    38A     -0.507645    39A     -0.500166
      40A     -0.358009    41A     -0.345248

  @DF-RHF Final Energy:  -605.57435490419698

   => Energetics <=

    Nuclear Repulsion Energy =            631.4881028177317148
    One-Electron Energy =               -2087.2169246938256038
    Two-Electron Energy =                 850.1544669718969089
    Total Energy =                       -605.5743549041969800
  Basis Set: (AUG-CC-PVTZ AUX)
    Blend: AUG-CC-PVTZ-RI
    Molecular point group: c1

    Geometry (in Angstrom), charge = 0, multiplicity = 1:

       Center              X                  Y                   Z               Mass
    ------------   -----------------  -----------------  -----------------  -----------------
         F           -1.882688478929     0.511496623703    -0.994593332138    18.998403162730
         F           -1.850598478929    -1.488964376297    -0.142461332138    18.998403162730
         F           -1.846587478929     0.247646623703     1.166995667862    18.998403162730
         C            0.149552521071    -0.216529376297    -0.019068332138    12.000000000000
         C            0.832312521071     1.015194623703     0.007199667862    12.000000000000
         C            0.841547521071    -1.430312376297    -0.018515332138    12.000000000000
         C            2.231142521071     0.974770623703     0.012070667862    12.000000000000
         C           -1.349454478929    -0.240297376297     0.000609667862    12.000000000000
         C            0.121835521071     2.346105623703    -0.019571332138    12.000000000000
         C            2.235868521071    -1.439256376297    -0.011375332138    12.000000000000
         C            2.957380421071    -0.275356276297     0.008226767862    12.000000000000
         H            0.288903521071    -2.363855376297    -0.031640332138     1.007825032230
         H            2.781555521071     1.913458623703     0.030245667862     1.007825032230
         H           -0.259795478929     2.569056623703    -1.019935332138     1.007825032230
         H           -0.725221478929     2.365716623703     0.668303667862     1.007825032230
         H            0.814364521071     3.141612623703     0.266557667862     1.007825032230
         H            2.771293521071    -2.384989376297    -0.012960332138     1.007825032230
         H            4.019553521071    -0.226630376297     0.016330667862     1.007825032230

  Basis Set: AUG-CC-PVTZ
    Blend: AUG-CC-PVTZ
  Basis Set: (AUG-CC-PVTZ AUX)
    Blend: AUG-CC-PVTZ-JKFIT
	 Reference Energy          =    -605.5743549041969800 [Eh]
	 Singles Energy            =      -0.0000000000000000 [Eh]
	 Same-Spin Energy          =      -0.5632352255584243 [Eh]
	 Opposite-Spin Energy      =      -1.6975982857726328 [Eh]
	 Correlation Energy        =      -2.2608335113310574 [Eh]
	 Total Energy              =    -607.8351884155280231 [Eh]

	 ================> DF-SCS-MP2 Energies <==================
	-----------------------------------------------------------
	 SCS Same-Spin Scale       =       0.3333333333333333 [-]
	 SCS Opposite-Spin Scale   =       1.2000000000000000 [-]
	 SCS Same-Spin Energy      =      -0.1877450751861414 [Eh]
	 SCS Opposite-Spin Energy  =      -2.0371179429271593 [Eh]
	 SCS Correlation Energy    =      -2.2248630181133007 [Eh]
	 SCS Total Energy          =    -607.7992179223102767 [Eh]
	-----------------------------------------------------------

  Dipole Moment: [D]
     X:     2.6045      Y:     0.4370      Z:    -0.0623     Total:     2.6417

*** Psi4 exiting successfully. Buy a developer a beer!
