                               Psi4 1.4a3.dev225

  ==> Input File <==

--------------------------------------------------------------------------
#psi4
#
memory 32 gb

molecule  {
0 1
  F       -1.9734470     0.4735540    -0.9939180
  F       -1.9413570    -1.5269070    -0.1417860
  F       -1.9373460     0.2097040     1.1676710
  C        0.0587940    -0.2544720    -0.0183930
  C        0.7415540     0.9772520     0.0078750
  C        0.7507890    -1.4682550    -0.0178400
  C        2.1403840     0.9368280     0.0127460
  C       -1.4402130    -0.2782400     0.0012850
  C        0.0310770     2.3081630    -0.0188960
  C        2.1451100    -1.4771990    -0.0107000
  C        2.8832111    -0.2951101     0.0093464
  H        0.1981450    -2.4017980    -0.0309650
  H        2.6907970     1.8755160     0.0309210
  H       -0.3505540     2.5311140    -1.0192600
  H       -0.8159800     2.3277740     0.6689790
  H        0.7236060     3.1036700     0.2672330
  H        2.6805350    -2.4229320    -0.0122850
  H        3.9287950    -0.2645730     0.0170060
units angstrom
no_reorient  #important for SAPT in psi4, default
symmetry c1  #important for SAPT in psi4, default
}

set PROPERTIES_ORIGIN ["COM"]
properties('MP2/aug-cc-pvtz', properties = ['dipole'])
--------------------------------------------------------------------------

    Molecular point group: c1
  Charge       = 0
  Multiplicity = 1
  Basis Set: AUG-CC-PVTZ
    Blend: AUG-CC-PVTZ
  Basis Set: (AUG-CC-PVTZ AUX)
    Blend: AUG-CC-PVTZ-JKFIT

    Orbital Energies [Eh]
    ---------------------

    Doubly Occupied:

       1A    -26.335628     2A    -26.332134     3A    -26.331305
       4A    -11.508965     5A    -11.269685     6A    -11.265976
       7A    -11.260378     8A    -11.258208     9A    -11.252639
      10A    -11.249765    11A    -11.233717    12A     -1.717581
      13A     -1.626797    14A     -1.623423    15A     -1.177695
      16A     -1.071192    17A     -1.054926    18A     -0.971662
      19A     -0.937511    20A     -0.864909    21A     -0.835861
      22A     -0.811720    23A     -0.803249    24A     -0.775168
      25A     -0.704793    26A     -0.704364    27A     -0.692954
      28A     -0.665365    29A     -0.656993    30A     -0.647922
      31A     -0.644087    32A     -0.634765    33A     -0.591283
      34A     -0.584415    35A     -0.580900    36A     -0.554646
      37A     -0.514340    38A     -0.506232    39A     -0.501479
      40A     -0.356912    41A     -0.344808

  @DF-RHF Final Energy:  -605.57388731116782

   => Energetics <=

    Nuclear Repulsion Energy =            631.1516318395197231
    One-Electron Energy =               -2086.5383334565599398
    Two-Electron Energy =                 849.8128143058723936
    Total Energy =                       -605.5738873111678231
  Basis Set: (AUG-CC-PVTZ AUX)
    Blend: AUG-CC-PVTZ-RI
    Molecular point group: c1

    Geometry (in Angstrom), charge = 0, multiplicity = 1:

       Center              X                  Y                   Z               Mass
    ------------   -----------------  -----------------  -----------------  -----------------
         F           -1.883932280360     0.510132889740    -0.994626644231    18.998403162730
         F           -1.851842280360    -1.490328110260    -0.142494644231    18.998403162730
         F           -1.847831280360     0.246282889740     1.166962355769    18.998403162730
         C            0.148308719640    -0.217893110260    -0.019101644231    12.000000000000
         C            0.831068719640     1.013830889740     0.007166355769    12.000000000000
         C            0.840303719640    -1.431676110260    -0.018548644231    12.000000000000
         C            2.229898719640     0.973406889740     0.012037355769    12.000000000000
         C           -1.350698280360    -0.241661110260     0.000576355769    12.000000000000
         C            0.120591719640     2.344741889740    -0.019604644231    12.000000000000
         C            2.234624719640    -1.440620110260    -0.011408644231    12.000000000000
         C            2.972725819640    -0.258531210260     0.008637755769    12.000000000000
         H            0.287659719640    -2.365219110260    -0.031673644231     1.007825032230
         H            2.780311719640     1.912094889740     0.030212355769     1.007825032230
         H           -0.261039280360     2.567692889740    -1.019968644231     1.007825032230
         H           -0.726465280360     2.364352889740     0.668270355769     1.007825032230
         H            0.813120719640     3.140248889740     0.266524355769     1.007825032230
         H            2.770049719640    -2.386353110260    -0.012993644231     1.007825032230
         H            4.018309719640    -0.227994110260     0.016297355769     1.007825032230

  Basis Set: AUG-CC-PVTZ
    Blend: AUG-CC-PVTZ
  Basis Set: (AUG-CC-PVTZ AUX)
    Blend: AUG-CC-PVTZ-JKFIT
	 Reference Energy          =    -605.5738873111678231 [Eh]
	 Singles Energy            =      -0.0000000000000000 [Eh]
	 Same-Spin Energy          =      -0.5633417082100937 [Eh]
	 Opposite-Spin Energy      =      -1.6977967246702916 [Eh]
	 Correlation Energy        =      -2.2611384328803852 [Eh]
	 Total Energy              =    -607.8350257440481528 [Eh]

	 ================> DF-SCS-MP2 Energies <==================
	-----------------------------------------------------------
	 SCS Same-Spin Scale       =       0.3333333333333333 [-]
	 SCS Opposite-Spin Scale   =       1.2000000000000000 [-]
	 SCS Same-Spin Energy      =      -0.1877805694033645 [Eh]
	 SCS Opposite-Spin Energy  =      -2.0373560696043498 [Eh]
	 SCS Correlation Energy    =      -2.2251366390077143 [Eh]
	 SCS Total Energy          =    -607.7990239501755241 [Eh]
	-----------------------------------------------------------

  Dipole Moment: [D]
     X:     2.6073      Y:     0.4371      Z:    -0.0622     Total:     2.6444

*** Psi4 exiting successfully. Buy a developer a beer!
