                               Psi4 1.4a3.dev225

  ==> Input File <==

--------------------------------------------------------------------------
#psi4
#
memory 32 gb

molecule  {
0 1
  F       -1.9734470     0.4735540    -0.9939180
  F       -1.9413570    -1.5269070    -0.1417860
  F       -1.9373460     0.2097040     1.1676710
  C        0.0587940    -0.2544720    -0.0183930
  C        0.7415540     0.9772520     0.0078750
  C        0.6517334    -1.2945081    -0.0179192
  C        2.1403840     0.9368280     0.0127460
  C       -1.4402130    -0.2782400     0.0012850
  C        0.0310770     2.3081630    -0.0188960
  C        2.1451100    -1.4771990    -0.0107000
  C        2.8415060    -0.2700650     0.0090350
  H        0.1981450    -2.4017980    -0.0309650
  H        2.6907970     1.8755160     0.0309210
  H       -0.3505540     2.5311140    -1.0192600
  H       -0.8159800     2.3277740     0.6689790
  H        0.7236060     3.1036700     0.2672330
  H        2.6805350    -2.4229320    -0.0122850
  H        3.9287950    -0.2645730     0.0170060
units angstrom
no_reorient  #important for SAPT in psi4, default
symmetry c1  #important for SAPT in psi4, default
}

set PROPERTIES_ORIGIN ["COM"]
properties('MP2/aug-cc-pvtz', properties = ['dipole'])
--------------------------------------------------------------------------

    Molecular point group: c1
  Charge       = 0
  Multiplicity = 1
  Basis Set: AUG-CC-PVTZ
    Blend: AUG-CC-PVTZ
  Basis Set: (AUG-CC-PVTZ AUX)
    Blend: AUG-CC-PVTZ-JKFIT

    Orbital Energies [Eh]
    ---------------------

    Doubly Occupied:

       1A    -26.335438     2A    -26.333779     3A    -26.333215
       4A    -11.509571     5A    -11.268586     6A    -11.257290
       7A    -11.253717     8A    -11.253167     9A    -11.245297
      10A    -11.244021    11A    -11.233275    12A     -1.718708
      13A     -1.627273    14A     -1.625123    15A     -1.202977
      16A     -1.083137    17A     -1.054270    18A     -0.970161
      19A     -0.940947    20A     -0.854303    21A     -0.844608
      22A     -0.813329    23A     -0.802518    24A     -0.782931
      25A     -0.706178    26A     -0.704326    27A     -0.685302
      28A     -0.664477    29A     -0.658366    30A     -0.657171
      31A     -0.645229    32A     -0.625575    33A     -0.593748
      34A     -0.586402    35A     -0.571569    36A     -0.552668
      37A     -0.521756    38A     -0.517447    39A     -0.471154
      40A     -0.390105    41A     -0.328896

  @DF-RHF Final Energy:  -605.51601458759637

   => Energetics <=

    Nuclear Repulsion Energy =            635.8901181769376763
    One-Electron Energy =               -2095.8762528294237200
    Two-Electron Energy =                 854.4701200648896702
    Total Energy =                       -605.5160145875963735
  Basis Set: (AUG-CC-PVTZ AUX)
    Blend: AUG-CC-PVTZ-RI
    Molecular point group: c1

    Geometry (in Angstrom), charge = 0, multiplicity = 1:

       Center              X                  Y                   Z               Mass
    ------------   -----------------  -----------------  -----------------  -----------------
         F           -1.873378524900     0.495228146048    -0.994597358380    18.998403162730
         F           -1.841288524900    -1.505232853952    -0.142465358380    18.998403162730
         F           -1.837277524900     0.231378146048     1.166991641620    18.998403162730
         C            0.158862475100    -0.232797853952    -0.019072358380    12.000000000000
         C            0.841622475100     0.998926146048     0.007195641620    12.000000000000
         C            0.751801875100    -1.272833953952    -0.018598558380    12.000000000000
         C            2.240452475100     0.958502146048     0.012066641620    12.000000000000
         C           -1.340144524900    -0.256565853952     0.000605641620    12.000000000000
         C            0.131145475100     2.329837146048    -0.019575358380    12.000000000000
         C            2.245178475100    -1.455524853952    -0.011379358380    12.000000000000
         C            2.941574475100    -0.248390853952     0.008355641620    12.000000000000
         H            0.298213475100    -2.380123853952    -0.031644358380     1.007825032230
         H            2.790865475100     1.897190146048     0.030241641620     1.007825032230
         H           -0.250485524900     2.552788146048    -1.019939358380     1.007825032230
         H           -0.715911524900     2.349448146048     0.668299641620     1.007825032230
         H            0.823674475100     3.125344146048     0.266553641620     1.007825032230
         H            2.780603475100    -2.401257853952    -0.012964358380     1.007825032230
         H            4.028863475100    -0.242898853952     0.016326641620     1.007825032230

  Basis Set: AUG-CC-PVTZ
    Blend: AUG-CC-PVTZ
  Basis Set: (AUG-CC-PVTZ AUX)
    Blend: AUG-CC-PVTZ-JKFIT
	 Reference Energy          =    -605.5160145875963735 [Eh]
	 Singles Energy            =      -0.0000000000000000 [Eh]
	 Same-Spin Energy          =      -0.5626926501544949 [Eh]
	 Opposite-Spin Energy      =      -1.6988997643773482 [Eh]
	 Correlation Energy        =      -2.2615924145318429 [Eh]
	 Total Energy              =    -607.7776070021282067 [Eh]

	 ================> DF-SCS-MP2 Energies <==================
	-----------------------------------------------------------
	 SCS Same-Spin Scale       =       0.3333333333333333 [-]
	 SCS Opposite-Spin Scale   =       1.2000000000000000 [-]
	 SCS Same-Spin Energy      =      -0.1875642167181650 [Eh]
	 SCS Opposite-Spin Energy  =      -2.0386797172528177 [Eh]
	 SCS Correlation Energy    =      -2.2262439339709825 [Eh]
	 SCS Total Energy          =    -607.7422585215673507 [Eh]
	-----------------------------------------------------------

  Dipole Moment: [D]
     X:     2.5682      Y:     0.3787      Z:    -0.0643     Total:     2.5968

*** Psi4 exiting successfully. Buy a developer a beer!
