                               Psi4 1.4a3.dev225

  ==> Input File <==

--------------------------------------------------------------------------
#psi4
#
memory 32 gb

molecule  {
0 1
  F       -1.9734470     0.4735540    -0.9939180
  F       -1.9413570    -1.5269070    -0.1417860
  F       -1.9373460     0.2097040     1.1676710
  C        0.0587940    -0.2544720    -0.0183930
  C        0.7415540     0.9772520     0.0078750
  C        0.7507890    -1.4682550    -0.0178400
  C        2.1403840     0.9368280     0.0127460
  C       -1.4402130    -0.2782400     0.0012850
  C        0.0310770     2.3081630    -0.0188960
  C        2.1451100    -1.4771990    -0.0107000
  C        2.7989524    -0.2464906     0.0086996
  H        0.1981450    -2.4017980    -0.0309650
  H        2.6907970     1.8755160     0.0309210
  H       -0.3505540     2.5311140    -1.0192600
  H       -0.8159800     2.3277740     0.6689790
  H        0.7236060     3.1036700     0.2672330
  H        2.6805350    -2.4229320    -0.0122850
  H        3.9287950    -0.2645730     0.0170060
units angstrom
no_reorient  #important for SAPT in psi4, default
symmetry c1  #important for SAPT in psi4, default
}

set PROPERTIES_ORIGIN ["COM"]
properties('MP2/aug-cc-pvtz', properties = ['dipole'])
--------------------------------------------------------------------------

    Molecular point group: c1
  Charge       = 0
  Multiplicity = 1
  Basis Set: AUG-CC-PVTZ
    Blend: AUG-CC-PVTZ
  Basis Set: (AUG-CC-PVTZ AUX)
    Blend: AUG-CC-PVTZ-JKFIT

    Orbital Energies [Eh]
    ---------------------

    Doubly Occupied:

       1A    -26.335273     2A    -26.331587     3A    -26.330725
       4A    -11.508374     5A    -11.271137     6A    -11.263722
       7A    -11.259188     8A    -11.255176     9A    -11.248182
      10A    -11.243685    11A    -11.234293    12A     -1.717124
      13A     -1.626402    14A     -1.622921    15A     -1.184037
      16A     -1.073246    17A     -1.059207    18A     -0.975909
      19A     -0.936706    20A     -0.859162    21A     -0.838511
      22A     -0.811281    23A     -0.804157    24A     -0.773588
      25A     -0.704488    26A     -0.703998    27A     -0.686246
      28A     -0.666837    29A     -0.656577    30A     -0.650423
      31A     -0.643655    32A     -0.633553    33A     -0.591153
      34A     -0.585462    35A     -0.578476    36A     -0.552805
      37A     -0.512971    38A     -0.511578    39A     -0.499868
      40A     -0.364839    41A     -0.343397

  @DF-RHF Final Energy:  -605.57483112599459

   => Energetics <=

    Nuclear Repulsion Energy =            632.9917099116835288
    One-Electron Energy =               -2090.2332432339762818
    Two-Electron Energy =                 851.6667021962981607
    Total Energy =                       -605.5748311259945922
  Basis Set: (AUG-CC-PVTZ AUX)
    Blend: AUG-CC-PVTZ-RI
    Molecular point group: c1

    Geometry (in Angstrom), charge = 0, multiplicity = 1:

       Center              X                  Y                   Z               Mass
    ------------   -----------------  -----------------  -----------------  -----------------
         F           -1.877614851453     0.506487566055    -0.994578149381    18.998403162730
         F           -1.845524851453    -1.493973433945    -0.142446149381    18.998403162730
         F           -1.841513851453     0.242637566055     1.167010850619    18.998403162730
         C            0.154626148547    -0.221538433945    -0.019053149381    12.000000000000
         C            0.837386148547     1.010185566055     0.007214850619    12.000000000000
         C            0.846621148547    -1.435321433945    -0.018500149381    12.000000000000
         C            2.236216148547     0.969761566055     0.012085850619    12.000000000000
         C           -1.344380851453    -0.245306433945     0.000624850619    12.000000000000
         C            0.126909148547     2.341096566055    -0.019556149381    12.000000000000
         C            2.240942148547    -1.444265433945    -0.011360149381    12.000000000000
         C            2.894784548547    -0.213557033945     0.008039450619    12.000000000000
         H            0.293977148547    -2.368864433945    -0.031625149381     1.007825032230
         H            2.786629148547     1.908449566055     0.030260850619     1.007825032230
         H           -0.254721851453     2.564047566055    -1.019920149381     1.007825032230
         H           -0.720147851453     2.360707566055     0.668318850619     1.007825032230
         H            0.819438148547     3.136603566055     0.266572850619     1.007825032230
         H            2.776367148547    -2.389998433945    -0.012945149381     1.007825032230
         H            4.024627148547    -0.231639433945     0.016345850619     1.007825032230

  Basis Set: AUG-CC-PVTZ
    Blend: AUG-CC-PVTZ
  Basis Set: (AUG-CC-PVTZ AUX)
    Blend: AUG-CC-PVTZ-JKFIT
	 Reference Energy          =    -605.5748311259945922 [Eh]
	 Singles Energy            =      -0.0000000000000000 [Eh]
	 Same-Spin Energy          =      -0.5633985779345352 [Eh]
	 Opposite-Spin Energy      =      -1.6971959686255493 [Eh]
	 Correlation Energy        =      -2.2605945465600845 [Eh]
	 Total Energy              =    -607.8354256725547202 [Eh]

	 ================> DF-SCS-MP2 Energies <==================
	-----------------------------------------------------------
	 SCS Same-Spin Scale       =       0.3333333333333333 [-]
	 SCS Opposite-Spin Scale   =       1.2000000000000000 [-]
	 SCS Same-Spin Energy      =      -0.1877995259781784 [Eh]
	 SCS Opposite-Spin Energy  =      -2.0366351623506591 [Eh]
	 SCS Correlation Energy    =      -2.2244346883288375 [Eh]
	 SCS Total Energy          =    -607.7992658143234621 [Eh]
	-----------------------------------------------------------

  Dipole Moment: [D]
     X:     2.5727      Y:     0.4294      Z:    -0.0631     Total:     2.6091

*** Psi4 exiting successfully. Buy a developer a beer!
