                               Psi4 1.4a3.dev225

  ==> Input File <==

--------------------------------------------------------------------------
#psi4
#
memory 32 gb

molecule  {
0 1
  F       -1.9734470     0.4735540    -0.9939180
  F       -1.9413570    -1.5269070    -0.1417860
  F       -1.9373460     0.2097040     1.1676710
  C        0.0587940    -0.2544720    -0.0183930
  C        0.7415540     0.9772520     0.0078750
  C        0.7507890    -1.4682550    -0.0178400
  C        2.1403840     0.9368280     0.0127460
  C       -1.4402130    -0.2782400     0.0012850
  C        0.0310770     2.3081630    -0.0188960
  C        2.1451100    -1.4771990    -0.0107000
  C        2.8415060    -0.2700650     0.0090350
  H        0.1981450    -2.4017980    -0.0309650
  H        2.6907970     1.8755160     0.0309210
  H       -0.3505540     2.5311140    -1.0192600
  H       -0.8159800     2.3277740     0.6689790
  H        0.7236060     3.1036700     0.2672330
  H        2.6805350    -2.4229320    -0.0122850
  H        4.1287871    -0.2635628     0.0184722
units angstrom
no_reorient  #important for SAPT in psi4, default
symmetry c1  #important for SAPT in psi4, default
}

set PROPERTIES_ORIGIN ["COM"]
properties('MP2/aug-cc-pvtz', properties = ['dipole'])
--------------------------------------------------------------------------

    Molecular point group: c1
  Charge       = 0
  Multiplicity = 1
  Basis Set: AUG-CC-PVTZ
    Blend: AUG-CC-PVTZ
  Basis Set: (AUG-CC-PVTZ AUX)
    Blend: AUG-CC-PVTZ-JKFIT

    Orbital Energies [Eh]
    ---------------------

    Doubly Occupied:

       1A    -26.336113     2A    -26.332479     3A    -26.331629
       4A    -11.509384     5A    -11.277906     6A    -11.271953
       7A    -11.265841     8A    -11.261352     9A    -11.251073
      10A    -11.250489    11A    -11.234933    12A     -1.717984
      13A     -1.627239    14A     -1.623781    15A     -1.181537
      16A     -1.070373    17A     -1.057975    18A     -0.972772
      19A     -0.937002    20A     -0.857665    21A     -0.836794
      22A     -0.812123    23A     -0.804537    24A     -0.771854
      25A     -0.705254    26A     -0.704661    27A     -0.675174
      28A     -0.666676    29A     -0.657400    30A     -0.649334
      31A     -0.644484    32A     -0.630010    33A     -0.587129
      34A     -0.585169    35A     -0.573746    36A     -0.551577
      37A     -0.510391    38A     -0.510063    39A     -0.494113
      40A     -0.361786    41A     -0.345669

  @DF-RHF Final Energy:  -605.55531172678911

   => Energetics <=

    Nuclear Repulsion Energy =            631.0958558193385670
    One-Electron Energy =               -2086.4074907155704750
    Two-Electron Energy =                 849.7563231694427941
    Total Energy =                       -605.5553117267891139
  Basis Set: (AUG-CC-PVTZ AUX)
    Blend: AUG-CC-PVTZ-RI
    Molecular point group: c1

    Geometry (in Angstrom), charge = 0, multiplicity = 1:

       Center              X                  Y                   Z               Mass
    ------------   -----------------  -----------------  -----------------  -----------------
         F           -1.882064712825     0.508248732704    -0.994612529097    18.998403162730
         F           -1.849974712825    -1.492212267296    -0.142480529097    18.998403162730
         F           -1.845963712825     0.244398732704     1.166976470903    18.998403162730
         C            0.150176287175    -0.219777267296    -0.019087529097    12.000000000000
         C            0.832936287175     1.011946732704     0.007180470903    12.000000000000
         C            0.842171287175    -1.433560267296    -0.018534529097    12.000000000000
         C            2.231766287175     0.971522732704     0.012051470903    12.000000000000
         C           -1.348830712825    -0.243545267296     0.000590470903    12.000000000000
         C            0.122459287175     2.342857732704    -0.019590529097    12.000000000000
         C            2.236492287175    -1.442504267296    -0.011394529097    12.000000000000
         C            2.932888287175    -0.235370267296     0.008340470903    12.000000000000
         H            0.289527287175    -2.367103267296    -0.031659529097     1.007825032230
         H            2.782179287175     1.910210732704     0.030226470903     1.007825032230
         H           -0.259171712825     2.565808732704    -1.019954529097     1.007825032230
         H           -0.724597712825     2.362468732704     0.668284470903     1.007825032230
         H            0.814988287175     3.138364732704     0.266538470903     1.007825032230
         H            2.771917287175    -2.388237267296    -0.012979529097     1.007825032230
         H            4.220169387175    -0.228868067296     0.017777670903     1.007825032230

  Basis Set: AUG-CC-PVTZ
    Blend: AUG-CC-PVTZ
  Basis Set: (AUG-CC-PVTZ AUX)
    Blend: AUG-CC-PVTZ-JKFIT
	 Reference Energy          =    -605.5553117267891139 [Eh]
	 Singles Energy            =      -0.0000000000000000 [Eh]
	 Same-Spin Energy          =      -0.5638232451131452 [Eh]
	 Opposite-Spin Energy      =      -1.6995452585077109 [Eh]
	 Correlation Energy        =      -2.2633685036208560 [Eh]
	 Total Energy              =    -607.8186802304099956 [Eh]

	 ================> DF-SCS-MP2 Energies <==================
	-----------------------------------------------------------
	 SCS Same-Spin Scale       =       0.3333333333333333 [-]
	 SCS Opposite-Spin Scale   =       1.2000000000000000 [-]
	 SCS Same-Spin Energy      =      -0.1879410817043817 [Eh]
	 SCS Opposite-Spin Energy  =      -2.0394543102092531 [Eh]
	 SCS Correlation Energy    =      -2.2273953919136349 [Eh]
	 SCS Total Energy          =    -607.7827071187027741 [Eh]
	-----------------------------------------------------------

  Dipole Moment: [D]
     X:     2.4904      Y:     0.4416      Z:    -0.0634     Total:     2.5300

*** Psi4 exiting successfully. Buy a developer a beer!
