                               Psi4 1.4a3.dev225

  ==> Input File <==

--------------------------------------------------------------------------
#psi4
#
memory 32 gb

molecule  {
0 1
  F       -1.9734470     0.4735540    -0.9939180
  F       -1.9413570    -1.5269070    -0.1417860
  F       -1.9373460     0.2097040     1.1676710
  C        0.0587940    -0.2544720    -0.0183930
  C        0.7415540     0.9772520     0.0078750
  C        0.7507890    -1.4682550    -0.0178400
  C        2.1403840     0.9368280     0.0127460
  C       -1.4402130    -0.2782400     0.0012850
  C        0.0310770     2.3081630    -0.0188960
  C        2.1451100    -1.4771990    -0.0107000
  C        2.8203320    -0.2580921     0.0088703
  H        0.1981450    -2.4017980    -0.0309650
  H        2.6907970     1.8755160     0.0309210
  H       -0.3505540     2.5311140    -1.0192600
  H       -0.8159800     2.3277740     0.6689790
  H        0.7236060     3.1036700     0.2672330
  H        2.6805350    -2.4229320    -0.0122850
  H        3.9287950    -0.2645730     0.0170060
units angstrom
no_reorient  #important for SAPT in psi4, default
symmetry c1  #important for SAPT in psi4, default
}

set PROPERTIES_ORIGIN ["COM"]
properties('MP2/aug-cc-pvtz', properties = ['dipole'])
--------------------------------------------------------------------------

    Molecular point group: c1
  Charge       = 0
  Multiplicity = 1
  Basis Set: AUG-CC-PVTZ
    Blend: AUG-CC-PVTZ
  Basis Set: (AUG-CC-PVTZ AUX)
    Blend: AUG-CC-PVTZ-JKFIT

    Orbital Energies [Eh]
    ---------------------

    Doubly Occupied:

       1A    -26.335337     2A    -26.331698     3A    -26.330843
       4A    -11.508489     5A    -11.270728     6A    -11.264246
       7A    -11.259434     8A    -11.255889     9A    -11.248445
      10A    -11.245977    11A    -11.234125    12A     -1.717212
      13A     -1.626476    14A     -1.623021    15A     -1.182210
      16A     -1.072521    17A     -1.058122    18A     -0.974675
      19A     -0.936941    20A     -0.860533    21A     -0.837742
      22A     -0.811365    23A     -0.803929    24A     -0.773741
      25A     -0.704535    26A     -0.704075    27A     -0.687592
      28A     -0.666319    29A     -0.656655    30A     -0.649437
      31A     -0.643737    32A     -0.634220    33A     -0.590209
      34A     -0.585148    35A     -0.579692    36A     -0.553377
      37A     -0.510744    38A     -0.510048    39A     -0.504138
      40A     -0.362572    41A     -0.343845

  @DF-RHF Final Energy:  -605.57698883164289

   => Energetics <=

    Nuclear Repulsion Energy =            632.5167745945675506
    One-Electron Energy =               -2089.2874415483984194
    Two-Electron Energy =                 851.1936781221879755
    Total Energy =                       -605.5769888316428933
  Basis Set: (AUG-CC-PVTZ AUX)
    Blend: AUG-CC-PVTZ-RI
    Molecular point group: c1

    Geometry (in Angstrom), charge = 0, multiplicity = 1:

       Center              X                  Y                   Z               Mass
    ------------   -----------------  -----------------  -----------------  -----------------
         F           -1.879217820678     0.507357406813    -0.994590947882    18.998403162730
         F           -1.847127820678    -1.493103593187    -0.142458947882    18.998403162730
         F           -1.843116820678     0.243507406813     1.166998052118    18.998403162730
         C            0.153023179322    -0.220668593187    -0.019065947882    12.000000000000
         C            0.835783179322     1.011055406813     0.007202052118    12.000000000000
         C            0.845018179322    -1.434451593187    -0.018512947882    12.000000000000
         C            2.234613179322     0.970631406813     0.012073052118    12.000000000000
         C           -1.345983820678    -0.244436593187     0.000612052118    12.000000000000
         C            0.125306179322     2.341966406813    -0.019568947882    12.000000000000
         C            2.239339179322    -1.443395593187    -0.011372947882    12.000000000000
         C            2.914561179322    -0.224288693187     0.008197352118    12.000000000000
         H            0.292374179322    -2.367994593187    -0.031637947882     1.007825032230
         H            2.785026179322     1.909319406813     0.030248052118     1.007825032230
         H           -0.256324820678     2.564917406813    -1.019932947882     1.007825032230
         H           -0.721750820678     2.361577406813     0.668306052118     1.007825032230
         H            0.817835179322     3.137473406813     0.266560052118     1.007825032230
         H            2.774764179322    -2.389128593187    -0.012957947882     1.007825032230
         H            4.023024179322    -0.230769593187     0.016333052118     1.007825032230

  Basis Set: AUG-CC-PVTZ
    Blend: AUG-CC-PVTZ
  Basis Set: (AUG-CC-PVTZ AUX)
    Blend: AUG-CC-PVTZ-JKFIT
	 Reference Energy          =    -605.5769888316428933 [Eh]
	 Singles Energy            =      -0.0000000000000000 [Eh]
	 Same-Spin Energy          =      -0.5633609596487510 [Eh]
	 Opposite-Spin Energy      =      -1.6972182101372777 [Eh]
	 Correlation Energy        =      -2.2605791697860287 [Eh]
	 Total Energy              =    -607.8375680014289628 [Eh]

	 ================> DF-SCS-MP2 Energies <==================
	-----------------------------------------------------------
	 SCS Same-Spin Scale       =       0.3333333333333333 [-]
	 SCS Opposite-Spin Scale   =       1.2000000000000000 [-]
	 SCS Same-Spin Energy      =      -0.1877869865495836 [Eh]
	 SCS Opposite-Spin Energy  =      -2.0366618521647331 [Eh]
	 SCS Correlation Energy    =      -2.2244488387143169 [Eh]
	 SCS Total Energy          =    -607.8014376703572452 [Eh]
	-----------------------------------------------------------

  Dipole Moment: [D]
     X:     2.5863      Y:     0.4312      Z:    -0.0628     Total:     2.6228

*** Psi4 exiting successfully. Buy a developer a beer!
