                               Psi4 1.4a3.dev225

  ==> Input File <==

--------------------------------------------------------------------------
#psi4
#
memory 32 gb

molecule  {
0 1
  F       -1.9734470     0.4735540    -0.9939180
  F       -1.9413570    -1.5269070    -0.1417860
  F       -1.9373460     0.2097040     1.1676710
  C        0.0587940    -0.2544720    -0.0183930
  C        0.7415540     0.9772520     0.0078750
  C        0.7507890    -1.4682550    -0.0178400
  C        2.1403840     0.9368280     0.0127460
  C       -1.4402130    -0.2782400     0.0012850
  C        0.0310770     2.3081630    -0.0188960
  C        2.1451100    -1.4771990    -0.0107000
  C        2.8415060    -0.2700650     0.0090350
  H        0.1981450    -2.4017980    -0.0309650
  H        2.6907970     1.8755160     0.0309210
  H       -0.3505540     2.5311140    -1.0192600
  H       -0.7826323     2.3865416     0.7041505
  H        0.7236060     3.1036700     0.2672330
  H        2.6805350    -2.4229320    -0.0122850
  H        3.9287950    -0.2645730     0.0170060
units angstrom
no_reorient  #important for SAPT in psi4, default
symmetry c1  #important for SAPT in psi4, default
}

set PROPERTIES_ORIGIN ["COM"]
properties('MP2/aug-cc-pvtz', properties = ['dipole'])
--------------------------------------------------------------------------

    Molecular point group: c1
  Charge       = 0
  Multiplicity = 1
  Basis Set: AUG-CC-PVTZ
    Blend: AUG-CC-PVTZ
  Basis Set: (AUG-CC-PVTZ AUX)
    Blend: AUG-CC-PVTZ-JKFIT

    Orbital Energies [Eh]
    ---------------------

    Doubly Occupied:

       1A    -26.335170     2A    -26.331411     3A    -26.330383
       4A    -11.508322     5A    -11.270670     6A    -11.264943
       7A    -11.259693     8A    -11.256681     9A    -11.249063
      10A    -11.248546    11A    -11.233840    12A     -1.716868
      13A     -1.626214    14A     -1.622557    15A     -1.180571
      16A     -1.071795    17A     -1.057014    18A     -0.973393
      19A     -0.937143    20A     -0.861649    21A     -0.837332
      22A     -0.811005    23A     -0.803337    24A     -0.774066
      25A     -0.704131    26A     -0.703829    27A     -0.689333
      28A     -0.665023    29A     -0.656327    30A     -0.648326
      31A     -0.643329    32A     -0.634726    33A     -0.590147
      34A     -0.588137    35A     -0.581515    36A     -0.548161
      37A     -0.509904    38A     -0.508598    39A     -0.506507
      40A     -0.360476    41A     -0.344848

  @DF-RHF Final Energy:  -605.57710025811389

   => Energetics <=

    Nuclear Repulsion Energy =            631.8614076535221784
    One-Electron Energy =               -2087.9870465862609308
    Two-Electron Energy =                 850.5485386746247514
    Total Energy =                       -605.5771002581138873
  Basis Set: (AUG-CC-PVTZ AUX)
    Blend: AUG-CC-PVTZ-RI
    Molecular point group: c1

    Geometry (in Angstrom), charge = 0, multiplicity = 1:

       Center              X                  Y                   Z               Mass
    ------------   -----------------  -----------------  -----------------  -----------------
         F           -1.881015363160     0.507885037864    -0.994824769324    18.998403162730
         F           -1.848925363160    -1.492575962136    -0.142692769324    18.998403162730
         F           -1.844914363160     0.244035037864     1.166764230676    18.998403162730
         C            0.151225636840    -0.220140962136    -0.019299769324    12.000000000000
         C            0.833985636840     1.011583037864     0.006968230676    12.000000000000
         C            0.843220636840    -1.433923962136    -0.018746769324    12.000000000000
         C            2.232815636840     0.971159037864     0.011839230676    12.000000000000
         C           -1.347781363160    -0.243908962136     0.000378230676    12.000000000000
         C            0.123508636840     2.342494037864    -0.019802769324    12.000000000000
         C            2.237541636840    -1.442867962136    -0.011606769324    12.000000000000
         C            2.933937636840    -0.235733962136     0.008128230676    12.000000000000
         H            0.290576636840    -2.367466962136    -0.031871769324     1.007825032230
         H            2.783228636840     1.909847037864     0.030014230676     1.007825032230
         H           -0.258122363160     2.565445037864    -1.020166769324     1.007825032230
         H           -0.690200663160     2.420872637864     0.703243730676     1.007825032230
         H            0.816037636840     3.138001037864     0.266326230676     1.007825032230
         H            2.772966636840    -2.388600962136    -0.013191769324     1.007825032230
         H            4.021226636840    -0.230241962136     0.016099230676     1.007825032230

  Basis Set: AUG-CC-PVTZ
    Blend: AUG-CC-PVTZ
  Basis Set: (AUG-CC-PVTZ AUX)
    Blend: AUG-CC-PVTZ-JKFIT
	 Reference Energy          =    -605.5771002581138873 [Eh]
	 Singles Energy            =      -0.0000000000000000 [Eh]
	 Same-Spin Energy          =      -0.5632996966813222 [Eh]
	 Opposite-Spin Energy      =      -1.6972960419340941 [Eh]
	 Correlation Energy        =      -2.2605957386154163 [Eh]
	 Total Energy              =    -607.8376959967292805 [Eh]

	 ================> DF-SCS-MP2 Energies <==================
	-----------------------------------------------------------
	 SCS Same-Spin Scale       =       0.3333333333333333 [-]
	 SCS Opposite-Spin Scale   =       1.2000000000000000 [-]
	 SCS Same-Spin Energy      =      -0.1877665655604407 [Eh]
	 SCS Opposite-Spin Energy  =      -2.0367552503209128 [Eh]
	 SCS Correlation Energy    =      -2.2245218158813533 [Eh]
	 SCS Total Energy          =    -607.8016220739951905 [Eh]
	-----------------------------------------------------------

  Dipole Moment: [D]
     X:     2.6151      Y:     0.4436      Z:    -0.0433     Total:     2.6528

*** Psi4 exiting successfully. Buy a developer a beer!
