                               Psi4 1.4a3.dev225

  ==> Input File <==

--------------------------------------------------------------------------
#psi4
#
memory 32 gb

molecule  {
0 1
  F       -1.9734470     0.4735540    -0.9939180
  F       -1.9413570    -1.5269070    -0.1417860
  F       -1.9373460     0.2097040     1.1676710
  C        0.0587940    -0.2544720    -0.0183930
  C        0.7415540     0.9772520     0.0078750
  C        0.7507890    -1.4682550    -0.0178400
  C        2.1403840     0.9368280     0.0127460
  C       -1.4402130    -0.2782400     0.0012850
  C        0.0310770     2.3081630    -0.0188960
  C        2.1451100    -1.4771990    -0.0107000
  C        2.9419698    -0.4430007     0.0085033
  H        0.1981450    -2.4017980    -0.0309650
  H        2.6907970     1.8755160     0.0309210
  H       -0.3505540     2.5311140    -1.0192600
  H       -0.8159800     2.3277740     0.6689790
  H        0.7236060     3.1036700     0.2672330
  H        2.6805350    -2.4229320    -0.0122850
  H        3.9287950    -0.2645730     0.0170060
units angstrom
no_reorient  #important for SAPT in psi4, default
symmetry c1  #important for SAPT in psi4, default
}

set PROPERTIES_ORIGIN ["COM"]
properties('MP2/aug-cc-pvtz', properties = ['dipole'])
--------------------------------------------------------------------------

    Molecular point group: c1
  Charge       = 0
  Multiplicity = 1
  Basis Set: AUG-CC-PVTZ
    Blend: AUG-CC-PVTZ
  Basis Set: (AUG-CC-PVTZ AUX)
    Blend: AUG-CC-PVTZ-JKFIT

    Orbital Energies [Eh]
    ---------------------

    Doubly Occupied:

       1A    -26.336047     2A    -26.333086     3A    -26.332294
       4A    -11.510032     5A    -11.269741     6A    -11.265817
       7A    -11.263752     8A    -11.261681     9A    -11.258774
      10A    -11.242795    11A    -11.232116    12A     -1.718311
      13A     -1.627370    14A     -1.624298    15A     -1.175971
      16A     -1.082134    17A     -1.047593    18A     -0.966212
      19A     -0.939523    20A     -0.871821    21A     -0.832832
      22A     -0.812461    23A     -0.803146    24A     -0.777184
      25A     -0.705756    26A     -0.704872    27A     -0.701224
      28A     -0.667562    29A     -0.657695    30A     -0.651938
      31A     -0.644832    32A     -0.629926    33A     -0.596043
      34A     -0.582230    35A     -0.577391    36A     -0.557025
      37A     -0.522386    38A     -0.506502    39A     -0.469471
      40A     -0.367958    41A     -0.336000

  @DF-RHF Final Energy:  -605.53573471139907

   => Energetics <=

    Nuclear Repulsion Energy =            629.9322714320686600
    One-Electron Energy =               -2084.0084088688458905
    Two-Electron Energy =                 848.5404027253780441
    Total Energy =                       -605.5357347113990727
  Basis Set: (AUG-CC-PVTZ AUX)
    Blend: AUG-CC-PVTZ-RI
    Molecular point group: c1

    Geometry (in Angstrom), charge = 0, multiplicity = 1:

       Center              X                  Y                   Z               Mass
    ------------   -----------------  -----------------  -----------------  -----------------
         F           -1.888337806553     0.521221220696    -0.994563431479    18.998403162730
         F           -1.856247806553    -1.479239779304    -0.142431431479    18.998403162730
         F           -1.852236806553     0.257371220696     1.167025568521    18.998403162730
         C            0.143903193447    -0.206804779304    -0.019038431479    12.000000000000
         C            0.826663193447     1.024919220696     0.007229568521    12.000000000000
         C            0.835898193447    -1.420587779304    -0.018485431479    12.000000000000
         C            2.225493193447     0.984495220696     0.012100568521    12.000000000000
         C           -1.355103806553    -0.230572779304     0.000639568521    12.000000000000
         C            0.116186193447     2.355830220696    -0.019541431479    12.000000000000
         C            2.230219193447    -1.429531779304    -0.011345431479    12.000000000000
         C            3.027078993447    -0.395333479304     0.007857868521    12.000000000000
         H            0.283254193447    -2.354130779304    -0.031610431479     1.007825032230
         H            2.775906193447     1.923183220696     0.030275568521     1.007825032230
         H           -0.265444806553     2.578781220696    -1.019905431479     1.007825032230
         H           -0.730870806553     2.375441220696     0.668333568521     1.007825032230
         H            0.808715193447     3.151337220696     0.266587568521     1.007825032230
         H            2.765644193447    -2.375264779304    -0.012930431479     1.007825032230
         H            4.013904193447    -0.216905779304     0.016360568521     1.007825032230

  Basis Set: AUG-CC-PVTZ
    Blend: AUG-CC-PVTZ
  Basis Set: (AUG-CC-PVTZ AUX)
    Blend: AUG-CC-PVTZ-JKFIT
	 Reference Energy          =    -605.5357347113990727 [Eh]
	 Singles Energy            =      -0.0000000000000000 [Eh]
	 Same-Spin Energy          =      -0.5628477558420406 [Eh]
	 Opposite-Spin Energy      =      -1.7000479405169429 [Eh]
	 Correlation Energy        =      -2.2628956963589832 [Eh]
	 Total Energy              =    -607.7986304077580826 [Eh]

	 ================> DF-SCS-MP2 Energies <==================
	-----------------------------------------------------------
	 SCS Same-Spin Scale       =       0.3333333333333333 [-]
	 SCS Opposite-Spin Scale   =       1.2000000000000000 [-]
	 SCS Same-Spin Energy      =      -0.1876159186140135 [Eh]
	 SCS Opposite-Spin Energy  =      -2.0400575286203315 [Eh]
	 SCS Correlation Energy    =      -2.2276734472343449 [Eh]
	 SCS Total Energy          =    -607.7634081586334105 [Eh]
	-----------------------------------------------------------

  Dipole Moment: [D]
     X:     2.6143      Y:     0.4294      Z:    -0.0617     Total:     2.6501

*** Psi4 exiting successfully. Buy a developer a beer!
