                               Psi4 1.4a3.dev225

  ==> Input File <==

--------------------------------------------------------------------------
#psi4
#
memory 32 gb

molecule  {
0 1
  F       -1.9734470     0.4735540    -0.9939180
  F       -1.9413570    -1.5269070    -0.1417860
  F       -1.9373460     0.2097040     1.1676710
  C        0.0587940    -0.2544720    -0.0183930
  C        0.7415540     0.9772520     0.0078750
  C        0.7507890    -1.4682550    -0.0178400
  C        2.1403840     0.9368280     0.0127460
  C       -1.4402130    -0.2782400     0.0012850
  C        0.0075343     2.3522646    -0.0197831
  C        2.1451100    -1.4771990    -0.0107000
  C        2.8415060    -0.2700650     0.0090350
  H        0.1981450    -2.4017980    -0.0309650
  H        2.6907970     1.8755160     0.0309210
  H       -0.3505540     2.5311140    -1.0192600
  H       -0.8159800     2.3277740     0.6689790
  H        0.7236060     3.1036700     0.2672330
  H        2.6805350    -2.4229320    -0.0122850
  H        3.9287950    -0.2645730     0.0170060
units angstrom
no_reorient  #important for SAPT in psi4, default
symmetry c1  #important for SAPT in psi4, default
}

set PROPERTIES_ORIGIN ["COM"]
properties('MP2/aug-cc-pvtz', properties = ['dipole'])
--------------------------------------------------------------------------

    Molecular point group: c1
  Charge       = 0
  Multiplicity = 1
  Basis Set: AUG-CC-PVTZ
    Blend: AUG-CC-PVTZ
  Basis Set: (AUG-CC-PVTZ AUX)
    Blend: AUG-CC-PVTZ-JKFIT

    Orbital Energies [Eh]
    ---------------------

    Doubly Occupied:

       1A    -26.335347     2A    -26.331943     3A    -26.331140
       4A    -11.508521     5A    -11.271914     6A    -11.264706
       7A    -11.259488     8A    -11.256489     9A    -11.248633
      10A    -11.248210    11A    -11.233362    12A     -1.717355
      13A     -1.626563    14A     -1.623251    15A     -1.178870
      16A     -1.070246    17A     -1.053651    18A     -0.973206
      19A     -0.938616    20A     -0.861467    21A     -0.837491
      22A     -0.811520    23A     -0.803505    24A     -0.773932
      25A     -0.704621    26A     -0.704119    27A     -0.687860
      28A     -0.665750    29A     -0.656853    30A     -0.647606
      31A     -0.643955    32A     -0.633326    33A     -0.590124
      34A     -0.588890    35A     -0.575155    36A     -0.561481
      37A     -0.511186    38A     -0.510537    39A     -0.499343
      40A     -0.360228    41A     -0.345188

  @DF-RHF Final Energy:  -605.57602428920245

   => Energetics <=

    Nuclear Repulsion Energy =            631.1361021349105158
    One-Electron Energy =               -2086.5329609143964262
    Two-Electron Energy =                 849.8208344902834597
    Total Energy =                       -605.5760242892024507
  Basis Set: (AUG-CC-PVTZ AUX)
    Blend: AUG-CC-PVTZ-RI
    Molecular point group: c1

    Geometry (in Angstrom), charge = 0, multiplicity = 1:

       Center              X                  Y                   Z               Mass
    ------------   -----------------  -----------------  -----------------  -----------------
         F           -1.879040223660     0.504948506864    -0.994536784803    18.998403162730
         F           -1.846950223660    -1.495512493136    -0.142404784803    18.998403162730
         F           -1.842939223660     0.241098506864     1.167052215197    18.998403162730
         C            0.153200776340    -0.223077493136    -0.019011784803    12.000000000000
         C            0.835960776340     1.008646506864     0.007256215197    12.000000000000
         C            0.845195776340    -1.436860493136    -0.018458784803    12.000000000000
         C            2.234790776340     0.968222506864     0.012127215197    12.000000000000
         C           -1.345806223660    -0.246845493136     0.000666215197    12.000000000000
         C            0.101941076340     2.383659106864    -0.020401884803    12.000000000000
         C            2.239516776340    -1.445804493136    -0.011318784803    12.000000000000
         C            2.935912776340    -0.238670493136     0.008416215197    12.000000000000
         H            0.292551776340    -2.370403493136    -0.031583784803     1.007825032230
         H            2.785203776340     1.906910506864     0.030302215197     1.007825032230
         H           -0.256147223660     2.562508506864    -1.019878784803     1.007825032230
         H           -0.721573223660     2.359168506864     0.668360215197     1.007825032230
         H            0.818012776340     3.135064506864     0.266614215197     1.007825032230
         H            2.774941776340    -2.391537493136    -0.012903784803     1.007825032230
         H            4.023201776340    -0.233178493136     0.016387215197     1.007825032230

  Basis Set: AUG-CC-PVTZ
    Blend: AUG-CC-PVTZ
  Basis Set: (AUG-CC-PVTZ AUX)
    Blend: AUG-CC-PVTZ-JKFIT
	 Reference Energy          =    -605.5760242892024507 [Eh]
	 Singles Energy            =      -0.0000000000000000 [Eh]
	 Same-Spin Energy          =      -0.5629606983428077 [Eh]
	 Opposite-Spin Energy      =      -1.6970501694040130 [Eh]
	 Correlation Energy        =      -2.2600108677468205 [Eh]
	 Total Energy              =    -607.8360351569492650 [Eh]

	 ================> DF-SCS-MP2 Energies <==================
	-----------------------------------------------------------
	 SCS Same-Spin Scale       =       0.3333333333333333 [-]
	 SCS Opposite-Spin Scale   =       1.2000000000000000 [-]
	 SCS Same-Spin Energy      =      -0.1876535661142692 [Eh]
	 SCS Opposite-Spin Energy  =      -2.0364602032848156 [Eh]
	 SCS Correlation Energy    =      -2.2241137693990849 [Eh]
	 SCS Total Energy          =    -607.8001380586015330 [Eh]
	-----------------------------------------------------------

  Dipole Moment: [D]
     X:     2.6053      Y:     0.4251      Z:    -0.0614     Total:     2.6405

*** Psi4 exiting successfully. Buy a developer a beer!
