                               Psi4 1.4a3.dev225

  ==> Input File <==

--------------------------------------------------------------------------
#psi4
#
memory 32 gb

molecule  {
0 1
  F       -1.9734470     0.4735540    -0.9939180
  F       -1.9413570    -1.5269070    -0.1417860
  F       -1.9373460     0.2097040     1.1676710
  C        0.0587940    -0.2544720    -0.0183930
  C        0.7415540     0.9772520     0.0078750
  C        0.7507890    -1.4682550    -0.0178400
  C        2.1403840     0.9368280     0.0127460
  C       -1.4402130    -0.2782400     0.0012850
  C        0.0310770     2.3081630    -0.0188960
  C        2.1451100    -1.4771990    -0.0107000
  C        2.8415060    -0.2700650     0.0090350
  H        0.1981450    -2.4017980    -0.0309650
  H        2.6907970     1.8755160     0.0309210
  H       -0.3505540     2.5311140    -1.0192600
  H       -0.8159800     2.3277740     0.6689790
  H        0.7552909     3.1400663     0.2803241
  H        2.6805350    -2.4229320    -0.0122850
  H        3.9287950    -0.2645730     0.0170060
units angstrom
no_reorient  #important for SAPT in psi4, default
symmetry c1  #important for SAPT in psi4, default
}

set PROPERTIES_ORIGIN ["COM"]
properties('MP2/aug-cc-pvtz', properties = ['dipole'])
--------------------------------------------------------------------------

    Molecular point group: c1
  Charge       = 0
  Multiplicity = 1
  Basis Set: AUG-CC-PVTZ
    Blend: AUG-CC-PVTZ
  Basis Set: (AUG-CC-PVTZ AUX)
    Blend: AUG-CC-PVTZ-JKFIT

    Orbital Energies [Eh]
    ---------------------

    Doubly Occupied:

       1A    -26.335654     2A    -26.332185     3A    -26.331268
       4A    -11.508923     5A    -11.270785     6A    -11.265180
       7A    -11.259907     8A    -11.256699     9A    -11.248968
      10A    -11.248307    11A    -11.239918    12A     -1.717610
      13A     -1.626840    14A     -1.623451    15A     -1.180694
      16A     -1.071948    17A     -1.056423    18A     -0.972735
      19A     -0.935381    20A     -0.862160    21A     -0.836276
      22A     -0.811755    23A     -0.803912    24A     -0.774105
      25A     -0.704901    26A     -0.704355    27A     -0.689208
      28A     -0.665471    29A     -0.657036    30A     -0.647991
      31A     -0.644114    32A     -0.634887    33A     -0.589996
      34A     -0.585220    35A     -0.580645    36A     -0.546240
      37A     -0.509107    38A     -0.508093    39A     -0.506675
      40A     -0.360620    41A     -0.344426

  @DF-RHF Final Energy:  -605.57534861395652

   => Energetics <=

    Nuclear Repulsion Energy =            631.8094813666554046
    One-Electron Energy =               -2087.8695234118363260
    Two-Electron Energy =                 850.4846934312245139
    Total Energy =                       -605.5753486139565211
  Basis Set: (AUG-CC-PVTZ AUX)
    Blend: AUG-CC-PVTZ-RI
    Molecular point group: c1

    Geometry (in Angstrom), charge = 0, multiplicity = 1:

       Center              X                  Y                   Z               Mass
    ------------   -----------------  -----------------  -----------------  -----------------
         F           -1.881004892610     0.508025908581    -0.994685730386    18.998403162730
         F           -1.848914892610    -1.492435091419    -0.142553730386    18.998403162730
         F           -1.844903892610     0.244175908581     1.166903269614    18.998403162730
         C            0.151236107390    -0.220000091419    -0.019160730386    12.000000000000
         C            0.833996107390     1.011723908581     0.007107269614    12.000000000000
         C            0.843231107390    -1.433783091419    -0.018607730386    12.000000000000
         C            2.232826107390     0.971299908581     0.011978269614    12.000000000000
         C           -1.347770892610    -0.243768091419     0.000517269614    12.000000000000
         C            0.123519107390     2.342634908581    -0.019663730386    12.000000000000
         C            2.237552107390    -1.442727091419    -0.011467730386    12.000000000000
         C            2.933948107390    -0.235593091419     0.008267269614    12.000000000000
         H            0.290587107390    -2.367326091419    -0.031732730386     1.007825032230
         H            2.783239107390     1.909987908581     0.030153269614     1.007825032230
         H           -0.258111892610     2.565585908581    -1.020027730386     1.007825032230
         H           -0.723537892610     2.362245908581     0.668211269614     1.007825032230
         H            0.847733007390     3.174538208581     0.279556369614     1.007825032230
         H            2.772977107390    -2.388460091419    -0.013052730386     1.007825032230
         H            4.021237107390    -0.230101091419     0.016238269614     1.007825032230

  Basis Set: AUG-CC-PVTZ
    Blend: AUG-CC-PVTZ
  Basis Set: (AUG-CC-PVTZ AUX)
    Blend: AUG-CC-PVTZ-JKFIT
	 Reference Energy          =    -605.5753486139565211 [Eh]
	 Singles Energy            =      -0.0000000000000000 [Eh]
	 Same-Spin Energy          =      -0.5633665260954313 [Eh]
	 Opposite-Spin Energy      =      -1.6977229302160703 [Eh]
	 Correlation Energy        =      -2.2610894563115016 [Eh]
	 Total Energy              =    -607.8364380702680592 [Eh]

	 ================> DF-SCS-MP2 Energies <==================
	-----------------------------------------------------------
	 SCS Same-Spin Scale       =       0.3333333333333333 [-]
	 SCS Opposite-Spin Scale   =       1.2000000000000000 [-]
	 SCS Same-Spin Energy      =      -0.1877888420318104 [Eh]
	 SCS Opposite-Spin Energy  =      -2.0372675162592842 [Eh]
	 SCS Correlation Energy    =      -2.2250563582910945 [Eh]
	 SCS Total Energy          =    -607.8004049722476339 [Eh]
	-----------------------------------------------------------

  Dipole Moment: [D]
     X:     2.5869      Y:     0.4044      Z:    -0.0678     Total:     2.6192

*** Psi4 exiting successfully. Buy a developer a beer!
