                               Psi4 1.4a3.dev225

  ==> Input File <==

--------------------------------------------------------------------------
#psi4
#
memory 32 gb

molecule  {
0 1
  F       -1.9734470     0.4735540    -0.9939180
  F       -1.9413570    -1.5269070    -0.1417860
  F       -1.9373460     0.2097040     1.1676710
  C        0.0587940    -0.2544720    -0.0183930
  C        0.7415540     0.9772520     0.0078750
  C        0.7507890    -1.4682550    -0.0178400
  C        2.1403840     0.9368280     0.0127460
  C       -1.4402130    -0.2782400     0.0012850
  C        0.0310770     2.3081630    -0.0188960
  C        2.1451100    -1.4771990    -0.0107000
  C        2.8415060    -0.2700650     0.0090350
  H        0.1981450    -2.4017980    -0.0309650
  H        2.6907970     1.8755160     0.0309210
  H       -0.3505540     2.5311140    -1.0192600
  H       -0.8159800     2.3277740     0.6689790
  H        0.7236060     3.1036700     0.2672330
  H        2.6805350    -2.4229320    -0.0122850
  H        3.9287950    -0.2645730     0.0170060
units angstrom
no_reorient  #important for SAPT in psi4, default
symmetry c1  #important for SAPT in psi4, default
}

set PROPERTIES_ORIGIN ["COM"]
properties('MP2/aug-cc-pvtz', properties = ['dipole'])
--------------------------------------------------------------------------

    Molecular point group: c1
  Charge       = 0
  Multiplicity = 1
  Basis Set: AUG-CC-PVTZ
    Blend: AUG-CC-PVTZ
  Basis Set: (AUG-CC-PVTZ AUX)
    Blend: AUG-CC-PVTZ-JKFIT

    Orbital Energies [Eh]
    ---------------------

    Doubly Occupied:

       1A    -26.335419     2A    -26.331827     3A    -26.330981
       4A    -11.508627     5A    -11.270351     6A    -11.264799
       7A    -11.259717     8A    -11.256635     9A    -11.248800
      10A    -11.248241    11A    -11.233974    12A     -1.717319
      13A     -1.626567    14A     -1.623139    15A     -1.180551
      16A     -1.071950    17A     -1.057035    18A     -0.973545
      19A     -0.937159    20A     -0.861948    21A     -0.837038
      22A     -0.811467    23A     -0.803700    24A     -0.774042
      25A     -0.704601    26A     -0.704164    27A     -0.689172
      28A     -0.665903    29A     -0.656752    30A     -0.648657
      31A     -0.643837    32A     -0.634677    33A     -0.589796
      34A     -0.584908    35A     -0.580618    36A     -0.553887
      37A     -0.509312    38A     -0.508793    39A     -0.506585
      40A     -0.360460    41A     -0.344265

  @DF-RHF Final Energy:  -605.57754083148791

   => Energetics <=

    Nuclear Repulsion Energy =            632.0517049554040341
    One-Electron Energy =               -2088.3560560488499505
    Two-Electron Energy =                 850.7268102619578940
    Total Energy =                       -605.5775408314879087
  Basis Set: (AUG-CC-PVTZ AUX)
    Blend: AUG-CC-PVTZ-RI
    Molecular point group: c1

    Geometry (in Angstrom), charge = 0, multiplicity = 1:

       Center              X                  Y                   Z               Mass
    ------------   -----------------  -----------------  -----------------  -----------------
         F           -1.880805374719     0.508255093872    -0.994603296525    18.998403162730
         F           -1.848715374719    -1.492205906128    -0.142471296525    18.998403162730
         F           -1.844704374719     0.244405093872     1.166985703475    18.998403162730
         C            0.151435625281    -0.219770906128    -0.019078296525    12.000000000000
         C            0.834195625281     1.011953093872     0.007189703475    12.000000000000
         C            0.843430625281    -1.433553906128    -0.018525296525    12.000000000000
         C            2.233025625281     0.971529093872     0.012060703475    12.000000000000
         C           -1.347571374719    -0.243538906128     0.000599703475    12.000000000000
         C            0.123718625281     2.342864093872    -0.019581296525    12.000000000000
         C            2.237751625281    -1.442497906128    -0.011385296525    12.000000000000
         C            2.934147625281    -0.235363906128     0.008349703475    12.000000000000
         H            0.290786625281    -2.367096906128    -0.031650296525     1.007825032230
         H            2.783438625281     1.910217093872     0.030235703475     1.007825032230
         H           -0.257912374719     2.565815093872    -1.019945296525     1.007825032230
         H           -0.723338374719     2.362475093872     0.668293703475     1.007825032230
         H            0.816247625281     3.138371093872     0.266547703475     1.007825032230
         H            2.773176625281    -2.388230906128    -0.012970296525     1.007825032230
         H            4.021436625281    -0.229871906128     0.016320703475     1.007825032230

  Basis Set: AUG-CC-PVTZ
    Blend: AUG-CC-PVTZ
  Basis Set: (AUG-CC-PVTZ AUX)
    Blend: AUG-CC-PVTZ-JKFIT
	 Reference Energy          =    -605.5775408314879087 [Eh]
	 Singles Energy            =      -0.0000000000000000 [Eh]
	 Same-Spin Energy          =      -0.5633390271178123 [Eh]
	 Opposite-Spin Energy      =      -1.6973240464714223 [Eh]
	 Correlation Energy        =      -2.2606630735892344 [Eh]
	 Total Energy              =    -607.8382039050771937 [Eh]

	 ================> DF-SCS-MP2 Energies <==================
	-----------------------------------------------------------
	 SCS Same-Spin Scale       =       0.3333333333333333 [-]
	 SCS Opposite-Spin Scale   =       1.2000000000000000 [-]
	 SCS Same-Spin Energy      =      -0.1877796757059374 [Eh]
	 SCS Opposite-Spin Energy  =      -2.0367888557657068 [Eh]
	 SCS Correlation Energy    =      -2.2245685314716441 [Eh]
	 SCS Total Energy          =    -607.8021093629595271 [Eh]
	-----------------------------------------------------------

  Dipole Moment: [D]
     X:     2.5964      Y:     0.4333      Z:    -0.0626     Total:     2.6331

*** Psi4 exiting successfully. Buy a developer a beer!
