                               Psi4 1.4a3.dev225

  ==> Input File <==

--------------------------------------------------------------------------
#psi4
#
memory 32 gb

molecule  {
0 1
  F       -1.9734470     0.4735540    -0.9939180
  F       -1.9413570    -1.5269070    -0.1417860
  F       -1.9373460     0.2097040     1.1676710
  C        0.0587940    -0.2544720    -0.0183930
  C        0.7415540     0.9772520     0.0078750
  C        0.7012612    -1.3813816    -0.0178796
  C        2.1403840     0.9368280     0.0127460
  C       -1.4402130    -0.2782400     0.0012850
  C        0.0310770     2.3081630    -0.0188960
  C        2.1451100    -1.4771990    -0.0107000
  C        2.8415060    -0.2700650     0.0090350
  H        0.1981450    -2.4017980    -0.0309650
  H        2.6907970     1.8755160     0.0309210
  H       -0.3505540     2.5311140    -1.0192600
  H       -0.8159800     2.3277740     0.6689790
  H        0.7236060     3.1036700     0.2672330
  H        2.6805350    -2.4229320    -0.0122850
  H        3.9287950    -0.2645730     0.0170060
units angstrom
no_reorient  #important for SAPT in psi4, default
symmetry c1  #important for SAPT in psi4, default
}

set PROPERTIES_ORIGIN ["COM"]
properties('MP2/aug-cc-pvtz', properties = ['dipole'])
--------------------------------------------------------------------------

    Molecular point group: c1
  Charge       = 0
  Multiplicity = 1
  Basis Set: AUG-CC-PVTZ
    Blend: AUG-CC-PVTZ
  Basis Set: (AUG-CC-PVTZ AUX)
    Blend: AUG-CC-PVTZ-JKFIT

    Orbital Energies [Eh]
    ---------------------

    Doubly Occupied:

       1A    -26.335407     2A    -26.332762     3A    -26.332031
       4A    -11.509072     5A    -11.269355     6A    -11.258105
       7A    -11.255399     8A    -11.255075     9A    -11.252858
      10A    -11.246550    11A    -11.233577    12A     -1.717980
      13A     -1.626905    14A     -1.624088    15A     -1.189350
      16A     -1.074904    17A     -1.057465    18A     -0.970612
      19A     -0.940196    20A     -0.857878    21A     -0.840291
      22A     -0.812337    23A     -0.802586    24A     -0.780219
      25A     -0.705312    26A     -0.704244    27A     -0.685742
      28A     -0.665618    29A     -0.657499    30A     -0.654312
      31A     -0.644507    32A     -0.629506    33A     -0.588427
      34A     -0.585285    35A     -0.578782    36A     -0.552964
      37A     -0.514303    38A     -0.513246    39A     -0.493652
      40A     -0.374375    41A     -0.335894

  @DF-RHF Final Energy:  -605.56452261442030

   => Energetics <=

    Nuclear Repulsion Energy =            633.8679588780712493
    One-Electron Energy =               -2091.9476178290765347
    Two-Electron Energy =                 852.5151363365849875
    Total Energy =                       -605.5645226144202979
  Basis Set: (AUG-CC-PVTZ AUX)
    Blend: AUG-CC-PVTZ-RI
    Molecular point group: c1

    Geometry (in Angstrom), charge = 0, multiplicity = 1:

       Center              X                  Y                   Z               Mass
    ------------   -----------------  -----------------  -----------------  -----------------
         F           -1.877091949809     0.501741623709    -0.994600327452    18.998403162730
         F           -1.845001949809    -1.498719376291    -0.142468327452    18.998403162730
         F           -1.840990949809     0.237891623709     1.166988672548    18.998403162730
         C            0.155149050191    -0.226284376291    -0.019075327452    12.000000000000
         C            0.837909050191     1.005439623709     0.007192672548    12.000000000000
         C            0.797616250191    -1.353193976291    -0.018561927452    12.000000000000
         C            2.236739050191     0.965015623709     0.012063672548    12.000000000000
         C           -1.343857949809    -0.250052376291     0.000602672548    12.000000000000
         C            0.127432050191     2.336350623709    -0.019578327452    12.000000000000
         C            2.241465050191    -1.449011376291    -0.011382327452    12.000000000000
         C            2.937861050191    -0.241877376291     0.008352672548    12.000000000000
         H            0.294500050191    -2.373610376291    -0.031647327452     1.007825032230
         H            2.787152050191     1.903703623709     0.030238672548     1.007825032230
         H           -0.254198949809     2.559301623709    -1.019942327452     1.007825032230
         H           -0.719624949809     2.355961623709     0.668296672548     1.007825032230
         H            0.819961050191     3.131857623709     0.266550672548     1.007825032230
         H            2.776890050191    -2.394744376291    -0.012967327452     1.007825032230
         H            4.025150050191    -0.236385376291     0.016323672548     1.007825032230

  Basis Set: AUG-CC-PVTZ
    Blend: AUG-CC-PVTZ
  Basis Set: (AUG-CC-PVTZ AUX)
    Blend: AUG-CC-PVTZ-JKFIT
	 Reference Energy          =    -605.5645226144202979 [Eh]
	 Singles Energy            =      -0.0000000000000000 [Eh]
	 Same-Spin Energy          =      -0.5630666120953072 [Eh]
	 Opposite-Spin Energy      =      -1.6975962145267462 [Eh]
	 Correlation Energy        =      -2.2606628266220534 [Eh]
	 Total Energy              =    -607.8251854410423221 [Eh]

	 ================> DF-SCS-MP2 Energies <==================
	-----------------------------------------------------------
	 SCS Same-Spin Scale       =       0.3333333333333333 [-]
	 SCS Opposite-Spin Scale   =       1.2000000000000000 [-]
	 SCS Same-Spin Energy      =      -0.1876888706984357 [Eh]
	 SCS Opposite-Spin Energy  =      -2.0371154574320953 [Eh]
	 SCS Correlation Energy    =      -2.2248043281305310 [Eh]
	 SCS Total Energy          =    -607.7893269425508151 [Eh]
	-----------------------------------------------------------

  Dipole Moment: [D]
     X:     2.5878      Y:     0.4009      Z:    -0.0633     Total:     2.6195

*** Psi4 exiting successfully. Buy a developer a beer!
