                               Psi4 1.4a3.dev225

  ==> Input File <==

--------------------------------------------------------------------------
#psi4
#
memory 32 gb

molecule  {
0 1
  F       -1.9734470     0.4735540    -0.9939180
  F       -1.9413570    -1.5269070    -0.1417860
  F       -1.9373460     0.2097040     1.1676710
  C        0.0587940    -0.2544720    -0.0183930
  C        0.7415540     0.9772520     0.0078750
  C        0.7507890    -1.4682550    -0.0178400
  C        2.1403840     0.9368280     0.0127460
  C       -1.4402130    -0.2782400     0.0012850
  C        0.0310770     2.3081630    -0.0188960
  C        2.1451100    -1.4771990    -0.0107000
  C        2.7115082    -0.2038670     0.0079583
  H        0.1981450    -2.4017980    -0.0309650
  H        2.6907970     1.8755160     0.0309210
  H       -0.3505540     2.5311140    -1.0192600
  H       -0.8159800     2.3277740     0.6689790
  H        0.7236060     3.1036700     0.2672330
  H        2.6805350    -2.4229320    -0.0122850
  H        3.9287950    -0.2645730     0.0170060
units angstrom
no_reorient  #important for SAPT in psi4, default
symmetry c1  #important for SAPT in psi4, default
}

set PROPERTIES_ORIGIN ["COM"]
properties('MP2/aug-cc-pvtz', properties = ['dipole'])
--------------------------------------------------------------------------

    Molecular point group: c1
  Charge       = 0
  Multiplicity = 1
  Basis Set: AUG-CC-PVTZ
    Blend: AUG-CC-PVTZ
  Basis Set: (AUG-CC-PVTZ AUX)
    Blend: AUG-CC-PVTZ-JKFIT

    Orbital Energies [Eh]
    ---------------------

    Doubly Occupied:

       1A    -26.335223     2A    -26.331364     3A    -26.330468
       4A    -11.508183     5A    -11.273178     6A    -11.262000
       7A    -11.258626     8A    -11.252856     9A    -11.248072
      10A    -11.235180    11A    -11.234621    12A     -1.716983
      13A     -1.626312    14A     -1.622738    15A     -1.193238
      16A     -1.077945    17A     -1.063224    18A     -0.981547
      19A     -0.935764    20A     -0.854155    21A     -0.842082
      22A     -0.811160    23A     -0.805047    24A     -0.774135
      25A     -0.704508    26A     -0.703878    27A     -0.683334
      28A     -0.670058    29A     -0.656477    30A     -0.655185
      31A     -0.643526    32A     -0.629853    33A     -0.597132
      34A     -0.587402    35A     -0.574123    36A     -0.550507
      37A     -0.520405    38A     -0.518919    39A     -0.475987
      40A     -0.374899    41A     -0.341827

  @DF-RHF Final Energy:  -605.54996687629887

   => Energetics <=

    Nuclear Repulsion Energy =            634.9855804088159630
    One-Electron Energy =               -2094.1468551612992997
    Two-Electron Energy =                 853.6113078761843553
    Total Energy =                       -605.5499668762988676
  Basis Set: (AUG-CC-PVTZ AUX)
    Blend: AUG-CC-PVTZ-RI
    Molecular point group: c1

    Geometry (in Angstrom), charge = 0, multiplicity = 1:

       Center              X                  Y                   Z               Mass
    ------------   -----------------  -----------------  -----------------  -----------------
         F           -1.871058584660     0.503291794429    -0.994522569244    18.998403162730
         F           -1.838968584660    -1.497169205571    -0.142390569244    18.998403162730
         F           -1.834957584660     0.239441794429     1.167066430756    18.998403162730
         C            0.161182415340    -0.224734205571    -0.018997569244    12.000000000000
         C            0.843942415340     1.006989794429     0.007270430756    12.000000000000
         C            0.853177415340    -1.438517205571    -0.018444569244    12.000000000000
         C            2.242772415340     0.966565794429     0.012141430756    12.000000000000
         C           -1.337824584660    -0.248502205571     0.000680430756    12.000000000000
         C            0.133465415340     2.337900794429    -0.019500569244    12.000000000000
         C            2.247498415340    -1.447461205571    -0.011304569244    12.000000000000
         C            2.813896615340    -0.174129205571     0.007353730756    12.000000000000
         H            0.300533415340    -2.372060205571    -0.031569569244     1.007825032230
         H            2.793185415340     1.905253794429     0.030316430756     1.007825032230
         H           -0.248165584660     2.560851794429    -1.019864569244     1.007825032230
         H           -0.713591584660     2.357511794429     0.668374430756     1.007825032230
         H            0.825994415340     3.133407794429     0.266628430756     1.007825032230
         H            2.782923415340    -2.393194205571    -0.012889569244     1.007825032230
         H            4.031183415340    -0.234835205571     0.016401430756     1.007825032230

  Basis Set: AUG-CC-PVTZ
    Blend: AUG-CC-PVTZ
  Basis Set: (AUG-CC-PVTZ AUX)
    Blend: AUG-CC-PVTZ-JKFIT
	 Reference Energy          =    -605.5499668762988676 [Eh]
	 Singles Energy            =      -0.0000000000000000 [Eh]
	 Same-Spin Energy          =      -0.5637174288189729 [Eh]
	 Opposite-Spin Energy      =      -1.6978782622695210 [Eh]
	 Correlation Energy        =      -2.2615956910884938 [Eh]
	 Total Energy              =    -607.8115625673873410 [Eh]

	 ================> DF-SCS-MP2 Energies <==================
	-----------------------------------------------------------
	 SCS Same-Spin Scale       =       0.3333333333333333 [-]
	 SCS Opposite-Spin Scale   =       1.2000000000000000 [-]
	 SCS Same-Spin Energy      =      -0.1879058096063243 [Eh]
	 SCS Opposite-Spin Energy  =      -2.0374539147234252 [Eh]
	 SCS Correlation Energy    =      -2.2253597243297496 [Eh]
	 SCS Total Energy          =    -607.7753266006286594 [Eh]
	-----------------------------------------------------------

  Dipole Moment: [D]
     X:     2.4772      Y:     0.4253      Z:    -0.0645     Total:     2.5142

*** Psi4 exiting successfully. Buy a developer a beer!
