                               Psi4 1.4a3.dev225

  ==> Input File <==

--------------------------------------------------------------------------
#psi4
#
memory 32 gb

molecule  {
0 1
  F       -1.9734470     0.4735540    -0.9939180
  F       -1.9413570    -1.5269070    -0.1417860
  F       -1.9373460     0.2097040     1.1676710
  C        0.0587940    -0.2544720    -0.0183930
  C        0.7415540     0.9772520     0.0078750
  C        0.7507890    -1.4682550    -0.0178400
  C        2.1403840     0.9368280     0.0127460
  C       -1.4402130    -0.2782400     0.0012850
  C        0.0310770     2.3081630    -0.0188960
  C        2.1451100    -1.4771990    -0.0107000
  C        2.8415060    -0.2700650     0.0090350
  H        0.1981450    -2.4017980    -0.0309650
  H        2.6907970     1.8755160     0.0309210
  H       -0.3505540     2.5311140    -1.0192600
  H       -0.8159800     2.3277740     0.6689790
  H        0.7236060     3.1036700     0.2672330
  H        2.6805350    -2.4229320    -0.0122850
  H        4.0287910    -0.2640679     0.0177391
units angstrom
no_reorient  #important for SAPT in psi4, default
symmetry c1  #important for SAPT in psi4, default
}

set PROPERTIES_ORIGIN ["COM"]
properties('MP2/aug-cc-pvtz', properties = ['dipole'])
--------------------------------------------------------------------------

    Molecular point group: c1
  Charge       = 0
  Multiplicity = 1
  Basis Set: AUG-CC-PVTZ
    Blend: AUG-CC-PVTZ
  Basis Set: (AUG-CC-PVTZ AUX)
    Blend: AUG-CC-PVTZ-JKFIT

    Orbital Energies [Eh]
    ---------------------

    Doubly Occupied:

       1A    -26.335713     2A    -26.332099     3A    -26.331251
       4A    -11.508943     5A    -11.271069     6A    -11.267726
       7A    -11.265224     8A    -11.260450     9A    -11.249813
      10A    -11.249246    11A    -11.234400    12A     -1.717599
      13A     -1.626851    14A     -1.623408    15A     -1.180893
      16A     -1.070761    17A     -1.057411    18A     -0.972901
      19A     -0.936911    20A     -0.859185    21A     -0.836800
      22A     -0.811743    23A     -0.804057    24A     -0.772546
      25A     -0.704874    26A     -0.704317    27A     -0.680778
      28A     -0.666241    29A     -0.657024    30A     -0.648866
      31A     -0.644109    32A     -0.632122    33A     -0.587410
      34A     -0.584992    35A     -0.578009    36A     -0.552971
      37A     -0.509514    38A     -0.509276    39A     -0.501816
      40A     -0.361005    41A     -0.344889

  @DF-RHF Final Energy:  -605.57015002389016

   => Energetics <=

    Nuclear Repulsion Energy =            631.5487879871340056
    One-Electron Energy =               -2087.3474472906436858
    Two-Electron Energy =                 850.2285092796196295
    Total Energy =                       -605.5701500238901644
  Basis Set: (AUG-CC-PVTZ AUX)
    Blend: AUG-CC-PVTZ-RI
    Molecular point group: c1

    Geometry (in Angstrom), charge = 0, multiplicity = 1:

       Center              X                  Y                   Z               Mass
    ------------   -----------------  -----------------  -----------------  -----------------
         F           -1.881435043457     0.508251913288    -0.994607912811    18.998403162730
         F           -1.849345043457    -1.492209086712    -0.142475912811    18.998403162730
         F           -1.845334043457     0.244401913288     1.166981087189    18.998403162730
         C            0.150805956543    -0.219774086712    -0.019082912811    12.000000000000
         C            0.833565956543     1.011949913288     0.007185087189    12.000000000000
         C            0.842800956543    -1.433557086712    -0.018529912811    12.000000000000
         C            2.232395956543     0.971525913288     0.012056087189    12.000000000000
         C           -1.348201043457    -0.243542086712     0.000595087189    12.000000000000
         C            0.123088956543     2.342860913288    -0.019585912811    12.000000000000
         C            2.237121956543    -1.442501086712    -0.011389912811    12.000000000000
         C            2.933517956543    -0.235367086712     0.008345087189    12.000000000000
         H            0.290156956543    -2.367100086712    -0.031654912811     1.007825032230
         H            2.782808956543     1.910213913288     0.030231087189     1.007825032230
         H           -0.258542043457     2.565811913288    -1.019949912811     1.007825032230
         H           -0.723968043457     2.362471913288     0.668289087189     1.007825032230
         H            0.815617956543     3.138367913288     0.266543087189     1.007825032230
         H            2.772546956543    -2.388234086712    -0.012974912811     1.007825032230
         H            4.120802956543    -0.229369986712     0.017049187189     1.007825032230

  Basis Set: AUG-CC-PVTZ
    Blend: AUG-CC-PVTZ
  Basis Set: (AUG-CC-PVTZ AUX)
    Blend: AUG-CC-PVTZ-JKFIT
	 Reference Energy          =    -605.5701500238901644 [Eh]
	 Singles Energy            =      -0.0000000000000000 [Eh]
	 Same-Spin Energy          =      -0.5635552161123563 [Eh]
	 Opposite-Spin Energy      =      -1.6982749583370200 [Eh]
	 Correlation Energy        =      -2.2618301744493765 [Eh]
	 Total Energy              =    -607.8319801983395791 [Eh]

	 ================> DF-SCS-MP2 Energies <==================
	-----------------------------------------------------------
	 SCS Same-Spin Scale       =       0.3333333333333333 [-]
	 SCS Opposite-Spin Scale   =       1.2000000000000000 [-]
	 SCS Same-Spin Energy      =      -0.1878517387041188 [Eh]
	 SCS Opposite-Spin Energy  =      -2.0379299500044241 [Eh]
	 SCS Correlation Energy    =      -2.2257816887085426 [Eh]
	 SCS Total Energy          =    -607.7959317125987582 [Eh]
	-----------------------------------------------------------

  Dipole Moment: [D]
     X:     2.5520      Y:     0.4370      Z:    -0.0629     Total:     2.5899

*** Psi4 exiting successfully. Buy a developer a beer!
