                               Psi4 1.4a3.dev225

  ==> Input File <==

--------------------------------------------------------------------------
#psi4
#
memory 32 gb

molecule  {
0 1
  F       -1.9734470     0.4735540    -0.9939180
  F       -1.9413570    -1.5269070    -0.1417860
  F       -1.9373460     0.2097040     1.1676710
  C        0.0587940    -0.2544720    -0.0183930
  C        0.7636527     0.9894602     0.0153682
  C        0.7507890    -1.4682550    -0.0178400
  C        2.1403840     0.9368280     0.0127460
  C       -1.4402130    -0.2782400     0.0012850
  C        0.0310770     2.3081630    -0.0188960
  C        2.1451100    -1.4771990    -0.0107000
  C        2.8415060    -0.2700650     0.0090350
  H        0.1981450    -2.4017980    -0.0309650
  H        2.6907970     1.8755160     0.0309210
  H       -0.3505540     2.5311140    -1.0192600
  H       -0.8159800     2.3277740     0.6689790
  H        0.7236060     3.1036700     0.2672330
  H        2.6805350    -2.4229320    -0.0122850
  H        3.9287950    -0.2645730     0.0170060
units angstrom
no_reorient  #important for SAPT in psi4, default
symmetry c1  #important for SAPT in psi4, default
}

set PROPERTIES_ORIGIN ["COM"]
properties('MP2/aug-cc-pvtz', properties = ['dipole'])
--------------------------------------------------------------------------

    Molecular point group: c1
  Charge       = 0
  Multiplicity = 1
  Basis Set: AUG-CC-PVTZ
    Blend: AUG-CC-PVTZ
  Basis Set: (AUG-CC-PVTZ AUX)
    Blend: AUG-CC-PVTZ-JKFIT

    Orbital Energies [Eh]
    ---------------------

    Doubly Occupied:

       1A    -26.335493     2A    -26.331698     3A    -26.330888
       4A    -11.508929     5A    -11.269975     6A    -11.266381
       7A    -11.260069     8A    -11.257103     9A    -11.248873
      10A    -11.245871    11A    -11.233705    12A     -1.717252
      13A     -1.626534    14A     -1.623032    15A     -1.180061
      16A     -1.070300    17A     -1.059541    18A     -0.973850
      19A     -0.937168    20A     -0.862912    21A     -0.834662
      22A     -0.811398    23A     -0.803095    24A     -0.775361
      25A     -0.704522    26A     -0.704122    27A     -0.689313
      28A     -0.665698    29A     -0.656651    30A     -0.648615
      31A     -0.643764    32A     -0.634398    33A     -0.591482
      34A     -0.584748    35A     -0.579713    36A     -0.553140
      37A     -0.511205    38A     -0.508560    39A     -0.504530
      40A     -0.360257    41A     -0.345110

  @DF-RHF Final Energy:  -605.57675510449974

   => Energetics <=

    Nuclear Repulsion Energy =            631.8103472080697429
    One-Electron Energy =               -2087.8742411783227908
    Two-Electron Energy =                 850.4871388657533089
    Total Energy =                       -605.5767551044997390
  Basis Set: (AUG-CC-PVTZ AUX)
    Blend: AUG-CC-PVTZ-RI
    Molecular point group: c1

    Geometry (in Angstrom), charge = 0, multiplicity = 1:

       Center              X                  Y                   Z               Mass
    ------------   -----------------  -----------------  -----------------  -----------------
         F           -1.882462259601     0.507339764825    -0.995165111011    18.998403162730
         F           -1.850372259601    -1.493121235175    -0.143033111011    18.998403162730
         F           -1.846361259601     0.243489764825     1.166423888989    18.998403162730
         C            0.149778740399    -0.220686235175    -0.019640111011    12.000000000000
         C            0.854637440399     1.023245964825     0.014121088989    12.000000000000
         C            0.841773740399    -1.434469235175    -0.019087111011    12.000000000000
         C            2.231368740399     0.970613764825     0.011498888989    12.000000000000
         C           -1.349228259601    -0.244454235175     0.000037888989    12.000000000000
         C            0.122061740399     2.341948764825    -0.020143111011    12.000000000000
         C            2.236094740399    -1.443413235175    -0.011947111011    12.000000000000
         C            2.932490740399    -0.236279235175     0.007787888989    12.000000000000
         H            0.289129740399    -2.368012235175    -0.032212111011     1.007825032230
         H            2.781781740399     1.909301764825     0.029673888989     1.007825032230
         H           -0.259569259601     2.564899764825    -1.020507111011     1.007825032230
         H           -0.724995259601     2.361559764825     0.667731888989     1.007825032230
         H            0.814590740399     3.137455764825     0.265985888989     1.007825032230
         H            2.771519740399    -2.389146235175    -0.013532111011     1.007825032230
         H            4.019779740399    -0.230787235175     0.015758888989     1.007825032230

  Basis Set: AUG-CC-PVTZ
    Blend: AUG-CC-PVTZ
  Basis Set: (AUG-CC-PVTZ AUX)
    Blend: AUG-CC-PVTZ-JKFIT
	 Reference Energy          =    -605.5767551044997390 [Eh]
	 Singles Energy            =      -0.0000000000000000 [Eh]
	 Same-Spin Energy          =      -0.5632699631824761 [Eh]
	 Opposite-Spin Energy      =      -1.6973370378955417 [Eh]
	 Correlation Energy        =      -2.2606070010780179 [Eh]
	 Total Energy              =    -607.8373621055777676 [Eh]

	 ================> DF-SCS-MP2 Energies <==================
	-----------------------------------------------------------
	 SCS Same-Spin Scale       =       0.3333333333333333 [-]
	 SCS Opposite-Spin Scale   =       1.2000000000000000 [-]
	 SCS Same-Spin Energy      =      -0.1877566543941587 [Eh]
	 SCS Opposite-Spin Energy  =      -2.0368044454746501 [Eh]
	 SCS Correlation Energy    =      -2.2245610998688088 [Eh]
	 SCS Total Energy          =    -607.8013162043685043 [Eh]
	-----------------------------------------------------------

  Dipole Moment: [D]
     X:     2.5944      Y:     0.4192      Z:    -0.0645     Total:     2.6289

*** Psi4 exiting successfully. Buy a developer a beer!
