                               Psi4 1.4a3.dev225

  ==> Input File <==

--------------------------------------------------------------------------
#psi4
#
memory 32 gb

molecule  {
0 1
  F       -1.9734470     0.4735540    -0.9939180
  F       -1.9413570    -1.5269070    -0.1417860
  F       -1.9373460     0.2097040     1.1676710
  C        0.0587940    -0.2544720    -0.0183930
  C        0.7415540     0.9772520     0.0078750
  C        0.7507890    -1.4682550    -0.0178400
  C        2.1403840     0.9368280     0.0127460
  C       -1.4323508    -0.2893247     0.0159586
  C        0.0310770     2.3081630    -0.0188960
  C        2.1451100    -1.4771990    -0.0107000
  C        2.8415060    -0.2700650     0.0090350
  H        0.1981450    -2.4017980    -0.0309650
  H        2.6907970     1.8755160     0.0309210
  H       -0.3505540     2.5311140    -1.0192600
  H       -0.8159800     2.3277740     0.6689790
  H        0.7236060     3.1036700     0.2672330
  H        2.6805350    -2.4229320    -0.0122850
  H        3.9287950    -0.2645730     0.0170060
units angstrom
no_reorient  #important for SAPT in psi4, default
symmetry c1  #important for SAPT in psi4, default
}

set PROPERTIES_ORIGIN ["COM"]
properties('MP2/aug-cc-pvtz', properties = ['dipole'])
--------------------------------------------------------------------------

    Molecular point group: c1
  Charge       = 0
  Multiplicity = 1
  Basis Set: AUG-CC-PVTZ
    Blend: AUG-CC-PVTZ
  Basis Set: (AUG-CC-PVTZ AUX)
    Blend: AUG-CC-PVTZ-JKFIT

    Orbital Energies [Eh]
    ---------------------

    Doubly Occupied:

       1A    -26.337988     2A    -26.333417     3A    -26.323960
       4A    -11.508662     5A    -11.271131     6A    -11.264954
       7A    -11.260426     8A    -11.257317     9A    -11.249236
      10A    -11.248698    11A    -11.233748    12A     -1.716224
      13A     -1.629353    14A     -1.615915    15A     -1.181477
      16A     -1.072956    17A     -1.058059    18A     -0.973664
      19A     -0.936893    20A     -0.862256    21A     -0.837611
      22A     -0.809829    23A     -0.802186    24A     -0.773826
      25A     -0.705173    26A     -0.701495    27A     -0.689260
      28A     -0.666081    29A     -0.654600    30A     -0.649286
      31A     -0.641748    32A     -0.634548    33A     -0.590759
      34A     -0.584911    35A     -0.581127    36A     -0.553834
      37A     -0.510453    38A     -0.509274    39A     -0.506868
      40A     -0.361245    41A     -0.344691

  @DF-RHF Final Energy:  -605.57671010404613

   => Energetics <=

    Nuclear Repulsion Energy =            632.0419507421117942
    One-Electron Energy =               -2088.3470402750949688
    Two-Electron Energy =                 850.7283794289370462
    Total Energy =                       -605.5767101040461284
  Basis Set: (AUG-CC-PVTZ AUX)
    Blend: AUG-CC-PVTZ-RI
    Molecular point group: c1

    Geometry (in Angstrom), charge = 0, multiplicity = 1:

       Center              X                  Y                   Z               Mass
    ------------   -----------------  -----------------  -----------------  -----------------
         F           -1.881394855562     0.509086186735    -0.995703472825    18.998403162730
         F           -1.849304855562    -1.491374813265    -0.143571472825    18.998403162730
         F           -1.845293855562     0.245236186735     1.165885527175    18.998403162730
         C            0.150846144438    -0.218939813265    -0.020178472825    12.000000000000
         C            0.833606144438     1.012784186735     0.006089527175    12.000000000000
         C            0.842841144438    -1.432722813265    -0.019625472825    12.000000000000
         C            2.232436144438     0.972360186735     0.010960527175    12.000000000000
         C           -1.340298655562    -0.253792513265     0.014173127175    12.000000000000
         C            0.123129144438     2.343695186735    -0.020681472825    12.000000000000
         C            2.237162144438    -1.441666813265    -0.012485472825    12.000000000000
         C            2.933558144438    -0.234532813265     0.007249527175    12.000000000000
         H            0.290197144438    -2.366265813265    -0.032750472825     1.007825032230
         H            2.782849144438     1.911048186735     0.029135527175     1.007825032230
         H           -0.258501855562     2.566646186735    -1.021045472825     1.007825032230
         H           -0.723927855562     2.363306186735     0.667193527175     1.007825032230
         H            0.815658144438     3.139202186735     0.265447527175     1.007825032230
         H            2.772587144438    -2.387399813265    -0.014070472825     1.007825032230
         H            4.020847144438    -0.229040813265     0.015220527175     1.007825032230

  Basis Set: AUG-CC-PVTZ
    Blend: AUG-CC-PVTZ
  Basis Set: (AUG-CC-PVTZ AUX)
    Blend: AUG-CC-PVTZ-JKFIT
	 Reference Energy          =    -605.5767101040461284 [Eh]
	 Singles Energy            =      -0.0000000000000000 [Eh]
	 Same-Spin Energy          =      -0.5634549652367871 [Eh]
	 Opposite-Spin Energy      =      -1.6976177124154928 [Eh]
	 Correlation Energy        =      -2.2610726776522796 [Eh]
	 Total Energy              =    -607.8377827816983654 [Eh]

	 ================> DF-SCS-MP2 Energies <==================
	-----------------------------------------------------------
	 SCS Same-Spin Scale       =       0.3333333333333333 [-]
	 SCS Opposite-Spin Scale   =       1.2000000000000000 [-]
	 SCS Same-Spin Energy      =      -0.1878183217455957 [Eh]
	 SCS Opposite-Spin Energy  =      -2.0371412548985912 [Eh]
	 SCS Correlation Energy    =      -2.2249595766441868 [Eh]
	 SCS Total Energy          =    -607.8016696806903383 [Eh]
	-----------------------------------------------------------

  Dipole Moment: [D]
     X:     2.6707      Y:     0.3587      Z:     0.0441     Total:     2.6950

*** Psi4 exiting successfully. Buy a developer a beer!
