                               Psi4 1.4a3.dev225

  ==> Input File <==

--------------------------------------------------------------------------
#psi4
#
memory 32 gb

molecule  {
0 1
  F       -1.9734470     0.4735540    -0.9939180
  F       -1.9413570    -1.5269070    -0.1417860
  F       -1.9373460     0.2097040     1.1676710
  C        0.0587940    -0.2544720    -0.0183930
  C        0.6510633     0.9325087    -0.0221565
  C        0.7507890    -1.4682550    -0.0178400
  C        2.1403840     0.9368280     0.0127460
  C       -1.4402130    -0.2782400     0.0012850
  C        0.0310770     2.3081630    -0.0188960
  C        2.1451100    -1.4771990    -0.0107000
  C        2.8415060    -0.2700650     0.0090350
  H        0.1981450    -2.4017980    -0.0309650
  H        2.6907970     1.8755160     0.0309210
  H       -0.3505540     2.5311140    -1.0192600
  H       -0.8159800     2.3277740     0.6689790
  H        0.7236060     3.1036700     0.2672330
  H        2.6805350    -2.4229320    -0.0122850
  H        3.9287950    -0.2645730     0.0170060
units angstrom
no_reorient  #important for SAPT in psi4, default
symmetry c1  #important for SAPT in psi4, default
}

set PROPERTIES_ORIGIN ["COM"]
properties('MP2/aug-cc-pvtz', properties = ['dipole'])
--------------------------------------------------------------------------

    Molecular point group: c1
  Charge       = 0
  Multiplicity = 1
  Basis Set: AUG-CC-PVTZ
    Blend: AUG-CC-PVTZ
  Basis Set: (AUG-CC-PVTZ AUX)
    Blend: AUG-CC-PVTZ-JKFIT

    Orbital Energies [Eh]
    ---------------------

    Doubly Occupied:

       1A    -26.334764     2A    -26.332289     3A    -26.331260
       4A    -11.507023     5A    -11.270496     6A    -11.258476
       7A    -11.257011     8A    -11.256894     9A    -11.254320
      10A    -11.249001    11A    -11.235739    12A     -1.717438
      13A     -1.626492    14A     -1.623493    15A     -1.184300
      16A     -1.078762    17A     -1.047776    18A     -0.972420
      19A     -0.938429    20A     -0.860319    21A     -0.844286
      22A     -0.811618    23A     -0.805179    24A     -0.768055
      25A     -0.705124    26A     -0.703918    27A     -0.688665
      28A     -0.665932    29A     -0.657062    30A     -0.648482
      31A     -0.644005    32A     -0.635727    33A     -0.588982
      34A     -0.586057    35A     -0.580667    36A     -0.557000
      37A     -0.522296    38A     -0.509150    39A     -0.487420
      40A     -0.368794    41A     -0.336401

  @DF-RHF Final Energy:  -605.56515866942050

   => Energetics <=

    Nuclear Repulsion Energy =            633.0681690312813998
    One-Electron Energy =               -2090.3636078562144576
    Two-Electron Energy =                 851.7302801555126734
    Total Energy =                       -605.5651586694204980
  Basis Set: (AUG-CC-PVTZ AUX)
    Blend: AUG-CC-PVTZ-RI
    Molecular point group: c1

    Geometry (in Angstrom), charge = 0, multiplicity = 1:

       Center              X                  Y                   Z               Mass
    ------------   -----------------  -----------------  -----------------  -----------------
         F           -1.874020691784     0.511609793349    -0.992351637453    18.998403162730
         F           -1.841930691784    -1.488851206651    -0.140219637453    18.998403162730
         F           -1.837919691784     0.247759793349     1.169237362547    18.998403162730
         C            0.158220308216    -0.216416206651    -0.016826637453    12.000000000000
         C            0.750489608216     0.970564493349    -0.020590137453    12.000000000000
         C            0.850215308216    -1.430199206651    -0.016273637453    12.000000000000
         C            2.239810308216     0.974883793349     0.014312362547    12.000000000000
         C           -1.340786691784    -0.240184206651     0.002851362547    12.000000000000
         C            0.130503308216     2.346218793349    -0.017329637453    12.000000000000
         C            2.244536308216    -1.439143206651    -0.009133637453    12.000000000000
         C            2.940932308216    -0.232009206651     0.010601362547    12.000000000000
         H            0.297571308216    -2.363742206651    -0.029398637453     1.007825032230
         H            2.790223308216     1.913571793349     0.032487362547     1.007825032230
         H           -0.251127691784     2.569169793349    -1.017693637453     1.007825032230
         H           -0.716553691784     2.365829793349     0.670545362547     1.007825032230
         H            0.823032308216     3.141725793349     0.268799362547     1.007825032230
         H            2.779961308216    -2.384876206651    -0.010718637453     1.007825032230
         H            4.028221308216    -0.226517206651     0.018572362547     1.007825032230

  Basis Set: AUG-CC-PVTZ
    Blend: AUG-CC-PVTZ
  Basis Set: (AUG-CC-PVTZ AUX)
    Blend: AUG-CC-PVTZ-JKFIT
	 Reference Energy          =    -605.5651586694204980 [Eh]
	 Singles Energy            =      -0.0000000000000000 [Eh]
	 Same-Spin Energy          =      -0.5632480516204144 [Eh]
	 Opposite-Spin Energy      =      -1.6979190930992898 [Eh]
	 Correlation Energy        =      -2.2611671447197041 [Eh]
	 Total Energy              =    -607.8263258141402048 [Eh]

	 ================> DF-SCS-MP2 Energies <==================
	-----------------------------------------------------------
	 SCS Same-Spin Scale       =       0.3333333333333333 [-]
	 SCS Opposite-Spin Scale   =       1.2000000000000000 [-]
	 SCS Same-Spin Energy      =      -0.1877493505401381 [Eh]
	 SCS Opposite-Spin Energy  =      -2.0375029117191477 [Eh]
	 SCS Correlation Energy    =      -2.2252522622592856 [Eh]
	 SCS Total Energy          =    -607.7904109316797303 [Eh]
	-----------------------------------------------------------

  Dipole Moment: [D]
     X:     2.5971      Y:     0.4972      Z:    -0.0557     Total:     2.6449

*** Psi4 exiting successfully. Buy a developer a beer!
