                               Psi4 1.3.2 release

  ==> Input File <==

--------------------------------------------------------------------------
#psi4
#
memory 32 gb

molecule  {
0 1
 Cl       -1.9796632    -0.4451219    -0.0260064
  O        2.6551490    -0.4511250    -0.1848070
  C        0.5405760     0.7662660    -0.3133580
  C        1.3415020    -0.3416140     0.3595680
  C       -0.8647240     0.9315120     0.2382250
  H        0.5053200     0.5766010    -1.3901780
  H        1.0611350     1.7234130    -0.1680230
  H        1.3720670    -0.1781130     1.4478320
  H        0.8719920    -1.3105050     0.1837500
  H       -0.8516100     1.0739190     1.3211680
  H       -1.3679740     1.7845180    -0.2190030
  H        3.1302690     0.3666280     0.0389720
units angstrom
no_reorient  #important for SAPT in psi4, default
symmetry c1  #important for SAPT in psi4, default
}

set PROPERTIES_ORIGIN ["COM"]
properties('MP2/aug-cc-pvtz', properties = ['dipole'])
--------------------------------------------------------------------------

    Molecular point group: c1
  Charge       = 0
  Multiplicity = 1
  Basis Set: AUG-CC-PVTZ
    Blend: AUG-CC-PVTZ
  Basis Set: (AUG-CC-PVTZ AUX)
    Blend: AUG-CC-PVTZ-JKFIT

    Orbital Energies [Eh]
    ---------------------

    Doubly Occupied:

       1A   -104.826191     2A    -20.566099     3A    -11.300097
       4A    -11.283654     5A    -11.245245     6A    -10.550617
       7A     -8.017451     8A     -8.015679     9A     -8.015643
      10A     -1.363220    11A     -1.144415    12A     -1.038249
      13A     -0.912463    14A     -0.820824    15A     -0.704303
      16A     -0.646177    17A     -0.633185    18A     -0.610857
      19A     -0.567750    20A     -0.541845    21A     -0.520990
      22A     -0.489360    23A     -0.456868    24A     -0.435685
      25A     -0.430456

  @DF-RHF Final Energy:  -652.12898943180346

   => Energetics <=

    Nuclear Repulsion Energy =            223.6149035528930540
    One-Electron Energy =               -1341.2131403383989436
    Two-Electron Energy =                 465.4692473537023716
    Total Energy =                       -652.1289894318034612
  Basis Set: (AUG-CC-PVTZ AUX)
    Blend: AUG-CC-PVTZ-RI
    Molecular point group: c1

    Geometry (in Angstrom), charge = 0, multiplicity = 1:

       Center              X                  Y                   Z               Mass
    ------------   -----------------  -----------------  -----------------  -----------------
         CL          -1.875521203687    -0.419179213574    -0.034216009139    34.968852682000
         O            2.759290996313    -0.425182313574    -0.193016609139    15.994914619570
         C            0.644717996313     0.792208686426    -0.321567609139    12.000000000000
         C            1.445643996313    -0.315671313574     0.351358390861    12.000000000000
         C           -0.760582003687     0.957454686426     0.230015390861    12.000000000000
         H            0.609461996313     0.602543686426    -1.398387609139     1.007825032230
         H            1.165276996313     1.749355686426    -0.176232609139     1.007825032230
         H            1.476208996313    -0.152170313574     1.439622390861     1.007825032230
         H            0.976133996313    -1.284562313574     0.175540390861     1.007825032230
         H           -0.747468003687     1.099861686426     1.312958390861     1.007825032230
         H           -1.263832003687     1.810460686426    -0.227212609139     1.007825032230
         H            3.234410996313     0.392570686426     0.030762390861     1.007825032230

  Basis Set: AUG-CC-PVTZ
    Blend: AUG-CC-PVTZ
  Basis Set: (AUG-CC-PVTZ AUX)
    Blend: AUG-CC-PVTZ-JKFIT
	 Reference Energy          =    -652.1289894318034612 [Eh]
	 Singles Energy            =      -0.0000000000000000 [Eh]
	 Same-Spin Energy          =      -0.2529365100855510 [Eh]
	 Opposite-Spin Energy      =      -0.8300984034264176 [Eh]
	 Correlation Energy        =      -1.0830349135119686 [Eh]
	 Total Energy              =    -653.2120243453153989 [Eh]

	 ================> DF-SCS-MP2 Energies <==================
	-----------------------------------------------------------
	 SCS Same-Spin Scale       =       0.3333333333333333 [-]
	 SCS Opposite-Spin Scale   =       1.2000000000000000 [-]
	 SCS Same-Spin Energy      =      -0.0843121700285170 [Eh]
	 SCS Opposite-Spin Energy  =      -0.9961180841117011 [Eh]
	 SCS Correlation Energy    =      -1.0804302541402180 [Eh]
	 SCS Total Energy          =    -653.2094196859436579 [Eh]
	-----------------------------------------------------------

  Dipole Moment: [D]
     X:     0.6388      Y:     2.7347      Z:     1.0098     Total:     2.9843

*** Psi4 exiting successfully. Buy a developer a beer!
