                               Psi4 1.3.2 release

  ==> Input File <==

--------------------------------------------------------------------------
#psi4
#
memory 32 gb

molecule  {
0 1
 Cl       -1.8862660    -0.5037910    -0.0848630
  O        2.6598690    -0.4698357    -0.1690841
  C        0.5405760     0.7662660    -0.3133580
  C        1.3415020    -0.3416140     0.3595680
  C       -0.8647240     0.9315120     0.2382250
  H        0.5053200     0.5766010    -1.3901780
  H        1.0611350     1.7234130    -0.1680230
  H        1.3720670    -0.1781130     1.4478320
  H        0.8719920    -1.3105050     0.1837500
  H       -0.8516100     1.0739190     1.3211680
  H       -1.3679740     1.7845180    -0.2190030
  H        3.1302690     0.3666280     0.0389720
units angstrom
no_reorient  #important for SAPT in psi4, default
symmetry c1  #important for SAPT in psi4, default
}

set PROPERTIES_ORIGIN ["COM"]
properties('MP2/aug-cc-pvtz', properties = ['dipole'])
--------------------------------------------------------------------------

    Molecular point group: c1
  Charge       = 0
  Multiplicity = 1
  Basis Set: AUG-CC-PVTZ
    Blend: AUG-CC-PVTZ
  Basis Set: (AUG-CC-PVTZ AUX)
    Blend: AUG-CC-PVTZ-JKFIT

    Orbital Energies [Eh]
    ---------------------

    Doubly Occupied:

       1A   -104.826362     2A    -20.566563     3A    -11.301051
       4A    -11.282199     5A    -11.244214     6A    -10.550841
       7A     -8.017670     8A     -8.015901     9A     -8.015873
      10A     -1.360481    11A     -1.145935    12A     -1.035761
      13A     -0.912247    14A     -0.820587    15A     -0.701902
      16A     -0.646447    17A     -0.631940    18A     -0.610000
      19A     -0.568688    20A     -0.540142    21A     -0.521044
      22A     -0.488472    23A     -0.454781    24A     -0.436579
      25A     -0.431850

  @DF-RHF Final Energy:  -652.12863080495538

   => Energetics <=

    Nuclear Repulsion Energy =            224.8186840178077546
    One-Electron Energy =               -1343.6395693870374544
    Two-Electron Energy =                 466.6922545642743785
    Total Energy =                       -652.1286308049552645
  Basis Set: (AUG-CC-PVTZ AUX)
    Blend: AUG-CC-PVTZ-RI
    Molecular point group: c1

    Geometry (in Angstrom), charge = 0, multiplicity = 1:

       Center              X                  Y                   Z               Mass
    ------------   -----------------  -----------------  -----------------  -----------------
         CL          -1.817664747405    -0.452844020797    -0.073856598307    34.968852682000
         O            2.728470252595    -0.418888720797    -0.158077698307    15.994914619570
         C            0.609177252595     0.817212979203    -0.302351598307    12.000000000000
         C            1.410103252595    -0.290667020797     0.370574401693    12.000000000000
         C           -0.796122747405     0.982458979203     0.249231401693    12.000000000000
         H            0.573921252595     0.627547979203    -1.379171598307     1.007825032230
         H            1.129736252595     1.774359979203    -0.157016598307     1.007825032230
         H            1.440668252595    -0.127166020797     1.458838401693     1.007825032230
         H            0.940593252595    -1.259558020797     0.194756401693     1.007825032230
         H           -0.783008747405     1.124865979203     1.332174401693     1.007825032230
         H           -1.299372747405     1.835464979203    -0.207996598307     1.007825032230
         H            3.198870252595     0.417574979203     0.049978401693     1.007825032230

  Basis Set: AUG-CC-PVTZ
    Blend: AUG-CC-PVTZ
  Basis Set: (AUG-CC-PVTZ AUX)
    Blend: AUG-CC-PVTZ-JKFIT
	 Reference Energy          =    -652.1286308049553782 [Eh]
	 Singles Energy            =      -0.0000000000000000 [Eh]
	 Same-Spin Energy          =      -0.2532874886728717 [Eh]
	 Opposite-Spin Energy      =      -0.8307299534631020 [Eh]
	 Correlation Energy        =      -1.0840174421359736 [Eh]
	 Total Energy              =    -653.2126482470913515 [Eh]

	 ================> DF-SCS-MP2 Energies <==================
	-----------------------------------------------------------
	 SCS Same-Spin Scale       =       0.3333333333333333 [-]
	 SCS Opposite-Spin Scale   =       1.2000000000000000 [-]
	 SCS Same-Spin Energy      =      -0.0844291628909572 [Eh]
	 SCS Opposite-Spin Energy  =      -0.9968759441557223 [Eh]
	 SCS Correlation Energy    =      -1.0813051070466795 [Eh]
	 SCS Total Energy          =    -653.2099359120020381 [Eh]
	-----------------------------------------------------------

  Dipole Moment: [D]
     X:     0.5096      Y:     2.8095      Z:     1.0165     Total:     3.0309

*** Psi4 exiting successfully. Buy a developer a beer!
