                               Psi4 1.3.2 release

  ==> Input File <==

--------------------------------------------------------------------------
#psi4
#
memory 32 gb

molecule  {
0 1
 Cl       -1.8862660    -0.5037910    -0.0848630
  O        2.6551490    -0.4511250    -0.1848070
  C        0.5405760     0.7662660    -0.3133580
  C        1.3822064    -0.2072450     0.4102939
  C       -0.8647240     0.9315120     0.2382250
  H        0.5053200     0.5766010    -1.3901780
  H        1.0611350     1.7234130    -0.1680230
  H        1.3720670    -0.1781130     1.4478320
  H        0.8719920    -1.3105050     0.1837500
  H       -0.8516100     1.0739190     1.3211680
  H       -1.3679740     1.7845180    -0.2190030
  H        3.1302690     0.3666280     0.0389720
units angstrom
no_reorient  #important for SAPT in psi4, default
symmetry c1  #important for SAPT in psi4, default
}

set PROPERTIES_ORIGIN ["COM"]
properties('MP2/aug-cc-pvtz', properties = ['dipole'])
--------------------------------------------------------------------------

    Molecular point group: c1
  Charge       = 0
  Multiplicity = 1
  Basis Set: AUG-CC-PVTZ
    Blend: AUG-CC-PVTZ
  Basis Set: (AUG-CC-PVTZ AUX)
    Blend: AUG-CC-PVTZ-JKFIT

    Orbital Energies [Eh]
    ---------------------

    Doubly Occupied:

       1A   -104.825454     2A    -20.571714     3A    -11.302297
       4A    -11.286051     5A    -11.244324     6A    -10.549906
       7A     -8.016737     8A     -8.014958     9A     -8.014926
      10A     -1.369287    11A     -1.146900    12A     -1.044167
      13A     -0.910713    14A     -0.820598    15A     -0.709001
      16A     -0.646599    17A     -0.640537    18A     -0.613466
      19A     -0.563086    20A     -0.543910    21A     -0.524153
      22A     -0.472056    23A     -0.456190    24A     -0.435967
      25A     -0.426790

  @DF-RHF Final Energy:  -652.10404357511550

   => Energetics <=

    Nuclear Repulsion Energy =            225.1616888730377184
    One-Electron Energy =               -1344.2318943517263961
    Two-Electron Energy =                 466.9661619035732087
    Total Energy =                       -652.1040435751153836
  Basis Set: (AUG-CC-PVTZ AUX)
    Blend: AUG-CC-PVTZ-RI
    Molecular point group: c1

    Geometry (in Angstrom), charge = 0, multiplicity = 1:

       Center              X                  Y                   Z               Mass
    ------------   -----------------  -----------------  -----------------  -----------------
         CL          -1.822057038457    -0.473177286955    -0.077656107928    34.968852682000
         O            2.719357961543    -0.420511286955    -0.177600107928    15.994914619570
         C            0.604784961543     0.796879713045    -0.306151107928    12.000000000000
         C            1.446415361543    -0.176631286955     0.417500792072    12.000000000000
         C           -0.800515038457     0.962125713045     0.245431892072    12.000000000000
         H            0.569528961543     0.607214713045    -1.382971107928     1.007825032230
         H            1.125343961543     1.754026713045    -0.160816107928     1.007825032230
         H            1.436275961543    -0.147499286955     1.455038892072     1.007825032230
         H            0.936200961543    -1.279891286955     0.190956892072     1.007825032230
         H           -0.787401038457     1.104532713045     1.328374892072     1.007825032230
         H           -1.303765038457     1.815131713045    -0.211796107928     1.007825032230
         H            3.194477961543     0.397241713045     0.046178892072     1.007825032230

  Basis Set: AUG-CC-PVTZ
    Blend: AUG-CC-PVTZ
  Basis Set: (AUG-CC-PVTZ AUX)
    Blend: AUG-CC-PVTZ-JKFIT
	 Reference Energy          =    -652.1040435751154973 [Eh]
	 Singles Energy            =      -0.0000000000000000 [Eh]
	 Same-Spin Energy          =      -0.2544677219990777 [Eh]
	 Opposite-Spin Energy      =      -0.8329914068449402 [Eh]
	 Correlation Energy        =      -1.0874591288440181 [Eh]
	 Total Energy              =    -653.1915027039594861 [Eh]

	 ================> DF-SCS-MP2 Energies <==================
	-----------------------------------------------------------
	 SCS Same-Spin Scale       =       0.3333333333333333 [-]
	 SCS Opposite-Spin Scale   =       1.2000000000000000 [-]
	 SCS Same-Spin Energy      =      -0.0848225739996926 [Eh]
	 SCS Opposite-Spin Energy  =      -0.9995896882139282 [Eh]
	 SCS Correlation Energy    =      -1.0844122622136207 [Eh]
	 SCS Total Energy          =    -653.1884558373291156 [Eh]
	-----------------------------------------------------------

  Dipole Moment: [D]
     X:     0.6043      Y:     2.9166      Z:     1.1036     Total:     3.1764

*** Psi4 exiting successfully. Buy a developer a beer!
