                               Psi4 1.4a3.dev225

  ==> Input File <==

--------------------------------------------------------------------------
#psi4
#
memory 32 gb

molecule  {
0 1
 Cl       -1.8863280    -0.5037310    -0.0848350
  O        2.6552870    -0.4508740    -0.1847800
  C        0.5406420     0.7662540    -0.3132380
  C        1.3413940    -0.3419500     0.3592880
  C       -0.8761269     0.9154665     0.2345918
  H        0.5055580     0.5770700    -1.3901400
  H        1.0611570     1.7233420    -0.1673410
  H        1.3716790    -0.1791760     1.4476590
  H        0.8721100    -1.3108220     0.1827430
  H       -0.8516430     1.0741000     1.3211200
  H       -1.3678240     1.7844860    -0.2192100
  H        3.1303420     0.3666260     0.0401010
units angstrom
no_reorient  #important for SAPT in psi4, default
symmetry c1  #important for SAPT in psi4, default
}

set PROPERTIES_ORIGIN ["COM"]
properties('MP2/aug-cc-pvtz', properties = ['dipole'])
--------------------------------------------------------------------------

    Molecular point group: c1
  Charge       = 0
  Multiplicity = 1
  Basis Set: AUG-CC-PVTZ
    Blend: AUG-CC-PVTZ
  Basis Set: (AUG-CC-PVTZ AUX)
    Blend: AUG-CC-PVTZ-JKFIT

    Orbital Energies [Eh]
    ---------------------

    Doubly Occupied:

       1A   -104.828037     2A    -20.564846     3A    -11.299837
       4A    -11.281991     5A    -11.243170     6A    -10.552734
       7A     -8.019607     8A     -8.017783     9A     -8.017755
      10A     -1.361916    11A     -1.149334    12A     -1.035311
      13A     -0.910917    14A     -0.819253    15A     -0.702775
      16A     -0.646461    17A     -0.630766    18A     -0.607999
      19A     -0.569591    20A     -0.539019    21A     -0.523759
      22A     -0.489217    23A     -0.455463    24A     -0.436275
      25A     -0.430672

  @DF-RHF Final Energy:  -652.12880788826578

   => Energetics <=

    Nuclear Repulsion Energy =            225.1845144033491977
    One-Electron Energy =               -1344.3576734469313578
    Two-Electron Energy =                 467.0443511553165195
    Total Energy =                       -652.1288078882657828
  Basis Set: (AUG-CC-PVTZ AUX)
    Blend: AUG-CC-PVTZ-RI
    Molecular point group: c1

    Geometry (in Angstrom), charge = 0, multiplicity = 1:

       Center              X                  Y                   Z               Mass
    ------------   -----------------  -----------------  -----------------  -----------------
         CL          -1.815465340736    -0.453930872970    -0.070689040885    34.968852682000
         O            2.726149659264    -0.401073872970    -0.170634040885    15.994914619570
         C            0.611504659264     0.816054127030    -0.299092040885    12.000000000000
         C            1.412256659264    -0.292149872970     0.373433959115    12.000000000000
         C           -0.805264240736     0.965266627030     0.248737759115    12.000000000000
         H            0.576420659264     0.626870127030    -1.375994040885     1.007825032230
         H            1.132019659264     1.773142127030    -0.153195040885     1.007825032230
         H            1.442541659264    -0.129375872970     1.461804959115     1.007825032230
         H            0.942972659264    -1.261021872970     0.196888959115     1.007825032230
         H           -0.780780340736     1.123900127030     1.335265959115     1.007825032230
         H           -1.296961340736     1.834286127030    -0.205064040885     1.007825032230
         H            3.201204659264     0.416426127030     0.054246959115     1.007825032230

  Basis Set: AUG-CC-PVTZ
    Blend: AUG-CC-PVTZ
  Basis Set: (AUG-CC-PVTZ AUX)
    Blend: AUG-CC-PVTZ-JKFIT
	 Reference Energy          =    -652.1288078882657828 [Eh]
	 Singles Energy            =      -0.0000000000000000 [Eh]
	 Same-Spin Energy          =      -0.2532902254071469 [Eh]
	 Opposite-Spin Energy      =      -0.8305295844125380 [Eh]
	 Correlation Energy        =      -1.0838198098196847 [Eh]
	 Total Energy              =    -653.2126276980854982 [Eh]

	 ================> DF-SCS-MP2 Energies <==================
	-----------------------------------------------------------
	 SCS Same-Spin Scale       =       0.3333333333333333 [-]
	 SCS Opposite-Spin Scale   =       1.2000000000000000 [-]
	 SCS Same-Spin Energy      =      -0.0844300751357156 [Eh]
	 SCS Opposite-Spin Energy  =      -0.9966355012950455 [Eh]
	 SCS Correlation Energy    =      -1.0810655764307611 [Eh]
	 SCS Total Energy          =    -653.2098734646965568 [Eh]
	-----------------------------------------------------------

  Dipole Moment: [D]
     X:     0.4782      Y:     2.7233      Z:     1.0514     Total:     2.9581

*** Psi4 exiting successfully. Buy a developer a beer!
