                               Psi4 1.4a3.dev225

  ==> Input File <==

--------------------------------------------------------------------------
#psi4
#
memory 32 gb

molecule  {
0 1
 Cl       -1.8863280    -0.5037310    -0.0848350
  O        2.6552870    -0.4508740    -0.1847800
  C        0.5406420     0.7662540    -0.3132380
  C        1.3874551    -0.3457685     0.3402146
  C       -0.8647190     0.9314930     0.2381990
  H        0.5055580     0.5770700    -1.3901400
  H        1.0611570     1.7233420    -0.1673410
  H        1.3716790    -0.1791760     1.4476590
  H        0.8721100    -1.3108220     0.1827430
  H       -0.8516430     1.0741000     1.3211200
  H       -1.3678240     1.7844860    -0.2192100
  H        3.1303420     0.3666260     0.0401010
units angstrom
no_reorient  #important for SAPT in psi4, default
symmetry c1  #important for SAPT in psi4, default
}

set PROPERTIES_ORIGIN ["COM"]
properties('MP2/aug-cc-pvtz', properties = ['dipole'])
--------------------------------------------------------------------------

    Molecular point group: c1
  Charge       = 0
  Multiplicity = 1
  Basis Set: AUG-CC-PVTZ
    Blend: AUG-CC-PVTZ
  Basis Set: (AUG-CC-PVTZ AUX)
    Blend: AUG-CC-PVTZ-JKFIT

    Orbital Energies [Eh]
    ---------------------

    Doubly Occupied:

       1A   -104.825115     2A    -20.570820     3A    -11.299949
       4A    -11.283818     5A    -11.242124     6A    -10.549596
       7A     -8.016425     8A     -8.014659     9A     -8.014631
      10A     -1.383912    11A     -1.143684    12A     -1.030872
      13A     -0.910902    14A     -0.820163    15A     -0.710678
      16A     -0.649922    17A     -0.633216    18A     -0.613841
      19A     -0.577508    20A     -0.539906    21A     -0.521056
      22A     -0.481221    23A     -0.449058    24A     -0.435307
      25A     -0.428971

  @DF-RHF Final Energy:  -652.12781625469108

   => Energetics <=

    Nuclear Repulsion Energy =            225.0399077230711669
    One-Electron Energy =               -1344.0407343794636290
    Two-Electron Energy =                 466.8730104017014355
    Total Energy =                       -652.1278162546910835
  Basis Set: (AUG-CC-PVTZ AUX)
    Blend: AUG-CC-PVTZ-RI
    Molecular point group: c1

    Geometry (in Angstrom), charge = 0, multiplicity = 1:

       Center              X                  Y                   Z               Mass
    ------------   -----------------  -----------------  -----------------  -----------------
         CL          -1.822800361908    -0.455489033691    -0.068715021771    34.968852682000
         O            2.718814638092    -0.402632033691    -0.168660021771    15.994914619570
         C            0.604169638092     0.814495966309    -0.297118021771    12.000000000000
         C            1.450982738092    -0.297526533691     0.356334578229    12.000000000000
         C           -0.801191361908     0.979734966309     0.254318978229    12.000000000000
         H            0.569085638092     0.625311966309    -1.374020021771     1.007825032230
         H            1.124684638092     1.771583966309    -0.151221021771     1.007825032230
         H            1.435206638092    -0.130934033691     1.463778978229     1.007825032230
         H            0.935637638092    -1.262580033691     0.198862978229     1.007825032230
         H           -0.788115361908     1.122341966309     1.337239978229     1.007825032230
         H           -1.304296361908     1.832727966309    -0.203090021771     1.007825032230
         H            3.193869638092     0.414867966309     0.056220978229     1.007825032230

  Basis Set: AUG-CC-PVTZ
    Blend: AUG-CC-PVTZ
  Basis Set: (AUG-CC-PVTZ AUX)
    Blend: AUG-CC-PVTZ-JKFIT
	 Reference Energy          =    -652.1278162546910835 [Eh]
	 Singles Energy            =      -0.0000000000000000 [Eh]
	 Same-Spin Energy          =      -0.2530938919533111 [Eh]
	 Opposite-Spin Energy      =      -0.8296786878434719 [Eh]
	 Correlation Energy        =      -1.0827725797967829 [Eh]
	 Total Energy              =    -653.2105888344879077 [Eh]

	 ================> DF-SCS-MP2 Energies <==================
	-----------------------------------------------------------
	 SCS Same-Spin Scale       =       0.3333333333333333 [-]
	 SCS Opposite-Spin Scale   =       1.2000000000000000 [-]
	 SCS Same-Spin Energy      =      -0.0843646306511037 [Eh]
	 SCS Opposite-Spin Energy  =      -0.9956144254121662 [Eh]
	 SCS Correlation Energy    =      -1.0799790560632698 [Eh]
	 SCS Total Energy          =    -653.2077953107543635 [Eh]
	-----------------------------------------------------------

  Dipole Moment: [D]
     X:     0.7308      Y:     2.7458      Z:     0.9993     Total:     3.0120

*** Psi4 exiting successfully. Buy a developer a beer!
