                               Psi4 1.3.2 release

  ==> Input File <==

--------------------------------------------------------------------------
#psi4
#
memory 32 gb

molecule  {
0 1
 Cl       -1.8862660    -0.5037910    -0.0848630
  O        2.6501784    -0.4745743    -0.1915154
  C        0.5405760     0.7662660    -0.3133580
  C        1.3415020    -0.3416140     0.3595680
  C       -0.8647240     0.9315120     0.2382250
  H        0.5053200     0.5766010    -1.3901780
  H        1.0611350     1.7234130    -0.1680230
  H        1.3720670    -0.1781130     1.4478320
  H        0.8719920    -1.3105050     0.1837500
  H       -0.8516100     1.0739190     1.3211680
  H       -1.3679740     1.7845180    -0.2190030
  H        3.1302690     0.3666280     0.0389720
units angstrom
no_reorient  #important for SAPT in psi4, default
symmetry c1  #important for SAPT in psi4, default
}

set PROPERTIES_ORIGIN ["COM"]
properties('MP2/aug-cc-pvtz', properties = ['dipole'])
--------------------------------------------------------------------------

    Molecular point group: c1
  Charge       = 0
  Multiplicity = 1
  Basis Set: AUG-CC-PVTZ
    Blend: AUG-CC-PVTZ
  Basis Set: (AUG-CC-PVTZ AUX)
    Blend: AUG-CC-PVTZ-JKFIT

    Orbital Energies [Eh]
    ---------------------

    Doubly Occupied:

       1A   -104.826148     2A    -20.568343     3A    -11.300755
       4A    -11.282047     5A    -11.243781     6A    -10.550628
       7A     -8.017456     8A     -8.015688     9A     -8.015660
      10A     -1.358397    11A     -1.145656    12A     -1.035218
      13A     -0.911320    14A     -0.819796    15A     -0.701127
      16A     -0.645209    17A     -0.631892    18A     -0.609336
      19A     -0.567303    20A     -0.539848    21A     -0.521286
      22A     -0.488110    23A     -0.455388    24A     -0.436354
      25A     -0.431421

  @DF-RHF Final Energy:  -652.12715503543211

   => Energetics <=

    Nuclear Repulsion Energy =            224.8367967657842996
    One-Electron Energy =               -1343.6915716804269323
    Two-Electron Energy =                 466.7276198792104651
    Total Energy =                       -652.1271550354321107
  Basis Set: (AUG-CC-PVTZ AUX)
    Blend: AUG-CC-PVTZ-RI
    Molecular point group: c1

    Geometry (in Angstrom), charge = 0, multiplicity = 1:

       Center              X                  Y                   Z               Mass
    ------------   -----------------  -----------------  -----------------  -----------------
         CL          -1.816016133042    -0.452037865964    -0.070040470991    34.968852682000
         O            2.720428266958    -0.422821165964    -0.176692870991    15.994914619570
         C            0.610825866958     0.818019134036    -0.298535470991    12.000000000000
         C            1.411751866958    -0.289860865964     0.374390529009    12.000000000000
         C           -0.794474133042     0.983265134036     0.253047529009    12.000000000000
         H            0.575569866958     0.628354134036    -1.375355470991     1.007825032230
         H            1.131384866958     1.775166134036    -0.153200470991     1.007825032230
         H            1.442316866958    -0.126359865964     1.462654529009     1.007825032230
         H            0.942241866958    -1.258751865964     0.198572529009     1.007825032230
         H           -0.781360133042     1.125672134036     1.335990529009     1.007825032230
         H           -1.297724133042     1.836271134036    -0.204180470991     1.007825032230
         H            3.200518866958     0.418381134036     0.053794529009     1.007825032230

  Basis Set: AUG-CC-PVTZ
    Blend: AUG-CC-PVTZ
  Basis Set: (AUG-CC-PVTZ AUX)
    Blend: AUG-CC-PVTZ-JKFIT
	 Reference Energy          =    -652.1271550354321107 [Eh]
	 Singles Energy            =      -0.0000000000000000 [Eh]
	 Same-Spin Energy          =      -0.2534908437163070 [Eh]
	 Opposite-Spin Energy      =      -0.8312570486832889 [Eh]
	 Correlation Energy        =      -1.0847478923995959 [Eh]
	 Total Energy              =    -653.2119029278317157 [Eh]

	 ================> DF-SCS-MP2 Energies <==================
	-----------------------------------------------------------
	 SCS Same-Spin Scale       =       0.3333333333333333 [-]
	 SCS Opposite-Spin Scale   =       1.2000000000000000 [-]
	 SCS Same-Spin Energy      =      -0.0844969479054357 [Eh]
	 SCS Opposite-Spin Energy  =      -0.9975084584199466 [Eh]
	 SCS Correlation Energy    =      -1.0820054063253823 [Eh]
	 SCS Total Energy          =    -653.2091604417574899 [Eh]
	-----------------------------------------------------------

  Dipole Moment: [D]
     X:     0.5412      Y:     2.8032      Z:     1.0622     Total:     3.0462

*** Psi4 exiting successfully. Buy a developer a beer!
