                               Psi4 1.3.2 release

  ==> Input File <==

--------------------------------------------------------------------------
#psi4
#
memory 32 gb

molecule  {
0 1
 Cl       -1.8862660    -0.5037910    -0.0848630
  O        2.6193803    -0.5910706    -0.2225005
  C        0.5405760     0.7662660    -0.3133580
  C        1.3415020    -0.3416140     0.3595680
  C       -0.8647240     0.9315120     0.2382250
  H        0.5053200     0.5766010    -1.3901780
  H        1.0611350     1.7234130    -0.1680230
  H        1.3720670    -0.1781130     1.4478320
  H        0.8719920    -1.3105050     0.1837500
  H       -0.8516100     1.0739190     1.3211680
  H       -1.3679740     1.7845180    -0.2190030
  H        3.1302690     0.3666280     0.0389720
units angstrom
no_reorient  #important for SAPT in psi4, default
symmetry c1  #important for SAPT in psi4, default
}

set PROPERTIES_ORIGIN ["COM"]
properties('MP2/aug-cc-pvtz', properties = ['dipole'])
--------------------------------------------------------------------------

    Molecular point group: c1
  Charge       = 0
  Multiplicity = 1
  Basis Set: AUG-CC-PVTZ
    Blend: AUG-CC-PVTZ
  Basis Set: (AUG-CC-PVTZ AUX)
    Blend: AUG-CC-PVTZ-JKFIT

    Orbital Energies [Eh]
    ---------------------

    Doubly Occupied:

       1A   -104.826068     2A    -20.582328     3A    -11.301757
       4A    -11.280765     5A    -11.245158     6A    -10.550534
       7A     -8.017363     8A     -8.015589     9A     -8.015561
      10A     -1.343099    11A     -1.145692    12A     -1.033981
      13A     -0.905929    14A     -0.816865    15A     -0.691670
      16A     -0.642121    17A     -0.625031    18A     -0.608794
      19A     -0.560346    20A     -0.539198    21A     -0.522126
      22A     -0.483186    23A     -0.455776    24A     -0.436445
      25A     -0.431568

  @DF-RHF Final Energy:  -652.10176549548714

   => Energetics <=

    Nuclear Repulsion Energy =            224.2890742587108264
    One-Electron Energy =               -1342.6277790244123480
    Two-Electron Energy =                 466.2369392702144069
    Total Energy =                       -652.1017654954871432
  Basis Set: (AUG-CC-PVTZ AUX)
    Blend: AUG-CC-PVTZ-RI
    Molecular point group: c1

    Geometry (in Angstrom), charge = 0, multiplicity = 1:

       Center              X                  Y                   Z               Mass
    ------------   -----------------  -----------------  -----------------  -----------------
         CL          -1.810776602980    -0.432218920447    -0.064769127534    34.968852682000
         O            2.694869697020    -0.519498520447    -0.202406627534    15.994914619570
         C            0.616065397020     0.837838079553    -0.293264127534    12.000000000000
         C            1.416991397020    -0.270041920447     0.379661872466    12.000000000000
         C           -0.789234602980     1.003084079553     0.258318872466    12.000000000000
         H            0.580809397020     0.648173079553    -1.370084127534     1.007825032230
         H            1.136624397020     1.794985079553    -0.147929127534     1.007825032230
         H            1.447556397020    -0.106540920447     1.467925872466     1.007825032230
         H            0.947481397020    -1.238932920447     0.203843872466     1.007825032230
         H           -0.776120602980     1.145491079553     1.341261872466     1.007825032230
         H           -1.292484602980     1.856090079553    -0.198909127534     1.007825032230
         H            3.205758397020     0.438200079553     0.059065872466     1.007825032230

  Basis Set: AUG-CC-PVTZ
    Blend: AUG-CC-PVTZ
  Basis Set: (AUG-CC-PVTZ AUX)
    Blend: AUG-CC-PVTZ-JKFIT
	 Reference Energy          =    -652.1017654954871432 [Eh]
	 Singles Energy            =      -0.0000000000000000 [Eh]
	 Same-Spin Energy          =      -0.2552738063281380 [Eh]
	 Opposite-Spin Energy      =      -0.8363659200699629 [Eh]
	 Correlation Energy        =      -1.0916397263981008 [Eh]
	 Total Energy              =    -653.1934052218852003 [Eh]

	 ================> DF-SCS-MP2 Energies <==================
	-----------------------------------------------------------
	 SCS Same-Spin Scale       =       0.3333333333333333 [-]
	 SCS Opposite-Spin Scale   =       1.2000000000000000 [-]
	 SCS Same-Spin Energy      =      -0.0850912687760460 [Eh]
	 SCS Opposite-Spin Energy  =      -1.0036391040839554 [Eh]
	 SCS Correlation Energy    =      -1.0887303728600013 [Eh]
	 SCS Total Energy          =    -653.1904958683471705 [Eh]
	-----------------------------------------------------------

  Dipole Moment: [D]
     X:     0.5759      Y:     2.9268      Z:     1.0756     Total:     3.1709

*** Psi4 exiting successfully. Buy a developer a beer!
