                               Psi4 1.3.2 release

  ==> Input File <==

--------------------------------------------------------------------------
#psi4
#
memory 32 gb

molecule  {
0 1
 Cl       -1.8862660    -0.5037910    -0.0848630
  O        2.6551490    -0.4511250    -0.1848070
  C        0.5405760     0.7662660    -0.3133580
  C        1.3415020    -0.3416140     0.3595680
  C       -0.8647240     0.9315120     0.2382250
  H        0.5053200     0.5766010    -1.3901780
  H        1.0611350     1.7234130    -0.1680230
  H        1.3720670    -0.1781130     1.4478320
  H        0.8719920    -1.3105050     0.1837500
  H       -0.8516100     1.0739190     1.3211680
  H       -1.3679740     1.7845180    -0.2190030
  H        3.1302690     0.3666280     0.0389720
units angstrom
no_reorient  #important for SAPT in psi4, default
symmetry c1  #important for SAPT in psi4, default
}

set PROPERTIES_ORIGIN ["COM"]
properties('MP2/aug-cc-pvtz', properties = ['dipole'])
--------------------------------------------------------------------------

    Molecular point group: c1
  Charge       = 0
  Multiplicity = 1
  Basis Set: AUG-CC-PVTZ
    Blend: AUG-CC-PVTZ
  Basis Set: (AUG-CC-PVTZ AUX)
    Blend: AUG-CC-PVTZ-JKFIT

    Orbital Energies [Eh]
    ---------------------

    Doubly Occupied:

       1A   -104.826179     2A    -20.565275     3A    -11.300565
       4A    -11.282515     5A    -11.243542     6A    -10.550662
       7A     -8.017490     8A     -8.015723     9A     -8.015695
      10A     -1.362352    11A     -1.145681    12A     -1.035657
      13A     -0.912830    14A     -0.820534    15A     -0.703564
      16A     -0.646724    17A     -0.632831    18A     -0.609183
      19A     -0.568983    20A     -0.539932    21A     -0.520644
      22A     -0.488518    23A     -0.455423    24A     -0.436354
      25A     -0.431363

  @DF-RHF Final Energy:  -652.12949178067197

   => Energetics <=

    Nuclear Repulsion Energy =            224.9668728773818032
    One-Electron Energy =               -1343.9362952319006581
    Two-Electron Energy =                 466.8399305738469138
    Total Energy =                       -652.1294917806719695
  Basis Set: (AUG-CC-PVTZ AUX)
    Blend: AUG-CC-PVTZ-RI
    Molecular point group: c1

    Geometry (in Angstrom), charge = 0, multiplicity = 1:

       Center              X                  Y                   Z               Mass
    ------------   -----------------  -----------------  -----------------  -----------------
         CL          -1.816861756900    -0.456027180639    -0.071181738260    34.968852682000
         O            2.724553243100    -0.403361180639    -0.171125738260    15.994914619570
         C            0.609980243100     0.814029819361    -0.299676738260    12.000000000000
         C            1.410906243100    -0.293850180639     0.373249261740    12.000000000000
         C           -0.795319756900     0.979275819361     0.251906261740    12.000000000000
         H            0.574724243100     0.624364819361    -1.376496738260     1.007825032230
         H            1.130539243100     1.771176819361    -0.154341738260     1.007825032230
         H            1.441471243100    -0.130349180639     1.461513261740     1.007825032230
         H            0.941396243100    -1.262741180639     0.197431261740     1.007825032230
         H           -0.782205756900     1.121682819361     1.334849261740     1.007825032230
         H           -1.298569756900     1.832281819361    -0.205321738260     1.007825032230
         H            3.199673243100     0.414391819361     0.052653261740     1.007825032230

  Basis Set: AUG-CC-PVTZ
    Blend: AUG-CC-PVTZ
  Basis Set: (AUG-CC-PVTZ AUX)
    Blend: AUG-CC-PVTZ-JKFIT
	 Reference Energy          =    -652.1294917806719695 [Eh]
	 Singles Energy            =      -0.0000000000000000 [Eh]
	 Same-Spin Energy          =      -0.2531543804618381 [Eh]
	 Opposite-Spin Energy      =      -0.8303559172040968 [Eh]
	 Correlation Energy        =      -1.0835102976659350 [Eh]
	 Total Energy              =    -653.2130020783379223 [Eh]

	 ================> DF-SCS-MP2 Energies <==================
	-----------------------------------------------------------
	 SCS Same-Spin Scale       =       0.3333333333333333 [-]
	 SCS Opposite-Spin Scale   =       1.2000000000000000 [-]
	 SCS Same-Spin Energy      =      -0.0843847934872794 [Eh]
	 SCS Opposite-Spin Energy  =      -0.9964271006449161 [Eh]
	 SCS Correlation Energy    =      -1.0808118941321956 [Eh]
	 SCS Total Energy          =    -653.2103036748042086 [Eh]
	-----------------------------------------------------------

  Dipole Moment: [D]
     X:     0.5315      Y:     2.7747      Z:     1.0592     Total:     3.0172

*** Psi4 exiting successfully. Buy a developer a beer!
