                               Psi4 1.4a3.dev225

  ==> Input File <==

--------------------------------------------------------------------------
#psi4
#
memory 32 gb

molecule  {
0 1
 Cl       -1.8863280    -0.5037310    -0.0848350
  O        2.6552870    -0.4508740    -0.1847800
  C        0.5406420     0.7662540    -0.3132380
  C        1.3413940    -0.3419500     0.3592880
  C       -0.8647190     0.9314930     0.2381990
  H        0.5055580     0.5770700    -1.3901400
  H        1.0611570     1.7233420    -0.1673410
  H        1.3716790    -0.1791760     1.4476590
  H        0.8721100    -1.3108220     0.1827430
  H       -0.8516430     1.0741000     1.3211200
  H       -1.3678240     1.7844860    -0.2192100
  H        3.1059021     0.3245684     0.0285316
units angstrom
no_reorient  #important for SAPT in psi4, default
symmetry c1  #important for SAPT in psi4, default
}

set PROPERTIES_ORIGIN ["COM"]
properties('MP2/aug-cc-pvtz', properties = ['dipole'])
--------------------------------------------------------------------------

    Molecular point group: c1
  Charge       = 0
  Multiplicity = 1
  Basis Set: AUG-CC-PVTZ
    Blend: AUG-CC-PVTZ
  Basis Set: (AUG-CC-PVTZ AUX)
    Blend: AUG-CC-PVTZ-JKFIT

    Orbital Energies [Eh]
    ---------------------

    Doubly Occupied:

       1A   -104.826362     2A    -20.560334     3A    -11.300797
       4A    -11.282981     5A    -11.243868     6A    -10.550843
       7A     -8.017672     8A     -8.015905     9A     -8.015877
      10A     -1.374239    11A     -1.146032    12A     -1.037055
      13A     -0.915831    14A     -0.822331    15A     -0.710542
      16A     -0.648308    17A     -0.634250    18A     -0.610964
      19A     -0.570022    20A     -0.540566    21A     -0.522224
      22A     -0.489568    23A     -0.456558    24A     -0.436546
      25A     -0.431793

  @DF-RHF Final Energy:  -652.13006938840863

   => Energetics <=

    Nuclear Repulsion Energy =            225.2620574902541080
    One-Electron Energy =               -1344.4613177118790190
    Two-Electron Energy =                 467.0691908332161688
    Total Energy =                       -652.1300693884086286
  Basis Set: (AUG-CC-PVTZ AUX)
    Blend: AUG-CC-PVTZ-RI
    Molecular point group: c1

    Geometry (in Angstrom), charge = 0, multiplicity = 1:

       Center              X                  Y                   Z               Mass
    ------------   -----------------  -----------------  -----------------  -----------------
         CL          -1.816659399418    -0.455525572206    -0.071025426328    34.968852682000
         O            2.724955600582    -0.402668572206    -0.170970426328    15.994914619570
         C            0.610310600582     0.814459427794    -0.299428426328    12.000000000000
         C            1.411062600582    -0.293744572206     0.373097573672    12.000000000000
         C           -0.795050399418     0.979698427794     0.252008573672    12.000000000000
         H            0.575226600582     0.625275427794    -1.376330426328     1.007825032230
         H            1.130825600582     1.771547427794    -0.153531426328     1.007825032230
         H            1.441347600582    -0.130970572206     1.461468573672     1.007825032230
         H            0.941778600582    -1.262616572206     0.196552573672     1.007825032230
         H           -0.781974399418     1.122305427794     1.334929573672     1.007825032230
         H           -1.298155399418     1.832691427794    -0.205400426328     1.007825032230
         H            3.175570700582     0.372773827794     0.042341173672     1.007825032230

  Basis Set: AUG-CC-PVTZ
    Blend: AUG-CC-PVTZ
  Basis Set: (AUG-CC-PVTZ AUX)
    Blend: AUG-CC-PVTZ-JKFIT
	 Reference Energy          =    -652.1300693884086286 [Eh]
	 Singles Energy            =      -0.0000000000000000 [Eh]
	 Same-Spin Energy          =      -0.2525990574175682 [Eh]
	 Opposite-Spin Energy      =      -0.8288770842677943 [Eh]
	 Correlation Energy        =      -1.0814761416853624 [Eh]
	 Total Energy              =    -653.2115455300939857 [Eh]

	 ================> DF-SCS-MP2 Energies <==================
	-----------------------------------------------------------
	 SCS Same-Spin Scale       =       0.3333333333333333 [-]
	 SCS Opposite-Spin Scale   =       1.2000000000000000 [-]
	 SCS Same-Spin Energy      =      -0.0841996858058560 [Eh]
	 SCS Opposite-Spin Energy  =      -0.9946525011213531 [Eh]
	 SCS Correlation Energy    =      -1.0788521869272092 [Eh]
	 SCS Total Energy          =    -653.2089215753358076 [Eh]
	-----------------------------------------------------------

  Dipole Moment: [D]
     X:     0.4992      Y:     2.7499      Z:     1.0559     Total:     2.9876

*** Psi4 exiting successfully. Buy a developer a beer!
