                               Psi4 1.3.2 release

  ==> Input File <==

--------------------------------------------------------------------------
#psi4
#
memory 32 gb

molecule  {
0 1
 Cl       -1.8862660    -0.5037910    -0.0848630
  O        2.6184850    -0.3383605    -0.2754982
  C        0.5405760     0.7662660    -0.3133580
  C        1.3415020    -0.3416140     0.3595680
  C       -0.8647240     0.9315120     0.2382250
  H        0.5053200     0.5766010    -1.3901780
  H        1.0611350     1.7234130    -0.1680230
  H        1.3720670    -0.1781130     1.4478320
  H        0.8719920    -1.3105050     0.1837500
  H       -0.8516100     1.0739190     1.3211680
  H       -1.3679740     1.7845180    -0.2190030
  H        3.1302690     0.3666280     0.0389720
units angstrom
no_reorient  #important for SAPT in psi4, default
symmetry c1  #important for SAPT in psi4, default
}

set PROPERTIES_ORIGIN ["COM"]
properties('MP2/aug-cc-pvtz', properties = ['dipole'])
--------------------------------------------------------------------------

    Molecular point group: c1
  Charge       = 0
  Multiplicity = 1
  Basis Set: AUG-CC-PVTZ
    Blend: AUG-CC-PVTZ
  Basis Set: (AUG-CC-PVTZ AUX)
    Blend: AUG-CC-PVTZ-JKFIT

    Orbital Energies [Eh]
    ---------------------

    Doubly Occupied:

       1A   -104.824864     2A    -20.559049     3A    -11.297307
       4A    -11.284158     5A    -11.239536     6A    -10.549366
       7A     -8.016193     8A     -8.014436     9A     -8.014411
      10A     -1.372188    11A     -1.143914    12A     -1.034886
      13A     -0.915594    14A     -0.819110    15A     -0.713148
      16A     -0.649839    17A     -0.635331    18A     -0.603253
      19A     -0.569696    20A     -0.538306    21A     -0.518393
      22A     -0.489104    23A     -0.458039    24A     -0.434869
      25A     -0.427613

  @DF-RHF Final Energy:  -652.12817519030455

   => Energetics <=

    Nuclear Repulsion Energy =            225.8867615912658380
    One-Electron Energy =               -1345.7846710657572658
    Two-Electron Energy =                 467.7697342841868249
    Total Energy =                       -652.1281751903045460
  Basis Set: (AUG-CC-PVTZ AUX)
    Blend: AUG-CC-PVTZ-RI
    Molecular point group: c1

    Geometry (in Angstrom), charge = 0, multiplicity = 1:

       Center              X                  Y                   Z               Mass
    ------------   -----------------  -----------------  -----------------  -----------------
         CL          -1.810624289972    -0.475211253282    -0.055752888144    34.968852682000
         O            2.694126710028    -0.309780753282    -0.246388088144    15.994914619570
         C            0.616217710028     0.794845746718    -0.284247888144    12.000000000000
         C            1.417143710028    -0.313034253282     0.388678111856    12.000000000000
         C           -0.789082289972     0.960091746718     0.267335111856    12.000000000000
         H            0.580961710028     0.605180746718    -1.361067888144     1.007825032230
         H            1.136776710028     1.751992746718    -0.138912888144     1.007825032230
         H            1.447708710028    -0.149533253282     1.476942111856     1.007825032230
         H            0.947633710028    -1.281925253282     0.212860111856     1.007825032230
         H           -0.775968289972     1.102498746718     1.350278111856     1.007825032230
         H           -1.292332289972     1.813097746718    -0.189892888144     1.007825032230
         H            3.205910710028     0.395207746718     0.068082111856     1.007825032230

  Basis Set: AUG-CC-PVTZ
    Blend: AUG-CC-PVTZ
  Basis Set: (AUG-CC-PVTZ AUX)
    Blend: AUG-CC-PVTZ-JKFIT
	 Reference Energy          =    -652.1281751903045460 [Eh]
	 Singles Energy            =      -0.0000000000000000 [Eh]
	 Same-Spin Energy          =      -0.2526691594794301 [Eh]
	 Opposite-Spin Energy      =      -0.8289021595120925 [Eh]
	 Correlation Energy        =      -1.0815713189915226 [Eh]
	 Total Energy              =    -653.2097465092961102 [Eh]

	 ================> DF-SCS-MP2 Energies <==================
	-----------------------------------------------------------
	 SCS Same-Spin Scale       =       0.3333333333333333 [-]
	 SCS Opposite-Spin Scale   =       1.2000000000000000 [-]
	 SCS Same-Spin Energy      =      -0.0842230531598100 [Eh]
	 SCS Opposite-Spin Energy  =      -0.9946825914145109 [Eh]
	 SCS Correlation Energy    =      -1.0789056445743208 [Eh]
	 SCS Total Energy          =    -653.2070808348788660 [Eh]
	-----------------------------------------------------------

  Dipole Moment: [D]
     X:     0.6956      Y:     2.5442      Z:     1.3082     Total:     2.9441

*** Psi4 exiting successfully. Buy a developer a beer!
