                               Psi4 1.3.2 release

  ==> Input File <==

--------------------------------------------------------------------------
#psi4
#
memory 32 gb

molecule  {
0 1
 Cl       -1.8862660    -0.5037910    -0.0848630
  O        2.6551490    -0.4511250    -0.1848070
  C        0.5405760     0.7662660    -0.3133580
  C        1.3415020    -0.3416140     0.3595680
  C       -0.8647240     0.9315120     0.2382250
  H        0.5053200     0.5766010    -1.3901780
  H        1.0611350     1.7234130    -0.1680230
  H        1.3720670    -0.1781130     1.4478320
  H        0.8719920    -1.3105050     0.1837500
  H       -0.8516100     1.0739190     1.3211680
  H       -1.3679740     1.7845180    -0.2190030
  H        3.0813819     0.2824860     0.0159464
units angstrom
no_reorient  #important for SAPT in psi4, default
symmetry c1  #important for SAPT in psi4, default
}

set PROPERTIES_ORIGIN ["COM"]
properties('MP2/aug-cc-pvtz', properties = ['dipole'])
--------------------------------------------------------------------------

    Molecular point group: c1
  Charge       = 0
  Multiplicity = 1
  Basis Set: AUG-CC-PVTZ
    Blend: AUG-CC-PVTZ
  Basis Set: (AUG-CC-PVTZ AUX)
    Blend: AUG-CC-PVTZ-JKFIT

    Orbital Energies [Eh]
    ---------------------

    Doubly Occupied:

       1A   -104.826553     2A    -20.554962     3A    -11.301059
       4A    -11.283506     5A    -11.244219     6A    -10.551033
       7A     -8.017861     8A     -8.016094     9A     -8.016066
      10A     -1.388325    11A     -1.146408    12A     -1.038645
      13A     -0.919259    14A     -0.824352    15A     -0.717795
      16A     -0.649954    17A     -0.635417    18A     -0.612627
      19A     -0.571120    20A     -0.541251    21A     -0.523779
      22A     -0.490508    23A     -0.457814    24A     -0.436753
      25A     -0.432252

  @DF-RHF Final Energy:  -652.12430935357236

   => Energetics <=

    Nuclear Repulsion Energy =            225.5866055303243911
    One-Electron Energy =               -1345.0266053546745297
    Two-Electron Energy =                 467.3156904707778949
    Total Energy =                       -652.1243093535723574
  Basis Set: (AUG-CC-PVTZ AUX)
    Blend: AUG-CC-PVTZ-RI
    Molecular point group: c1

    Geometry (in Angstrom), charge = 0, multiplicity = 1:

       Center              X                  Y                   Z               Mass
    ------------   -----------------  -----------------  -----------------  -----------------
         CL          -1.816337715133    -0.455125226497    -0.070934916990    34.968852682000
         O            2.725077284867    -0.402459226497    -0.170878916990    15.994914619570
         C            0.610504284867     0.814931773503    -0.299429916990    12.000000000000
         C            1.411430284867    -0.292948226497     0.373496083010    12.000000000000
         C           -0.794795715133     0.980177773503     0.252153083010    12.000000000000
         H            0.575248284867     0.625266773503    -1.376249916990     1.007825032230
         H            1.131063284867     1.772078773503    -0.154094916990     1.007825032230
         H            1.441995284867    -0.129447226497     1.461760083010     1.007825032230
         H            0.941920284867    -1.261839226497     0.197678083010     1.007825032230
         H           -0.781681715133     1.122584773503     1.335096083010     1.007825032230
         H           -1.298045715133     1.833183773503    -0.205074916990     1.007825032230
         H            3.151310184867     0.331151773503     0.029874483010     1.007825032230

  Basis Set: AUG-CC-PVTZ
    Blend: AUG-CC-PVTZ
  Basis Set: (AUG-CC-PVTZ AUX)
    Blend: AUG-CC-PVTZ-JKFIT
	 Reference Energy          =    -652.1243093535723574 [Eh]
	 Singles Energy            =      -0.0000000000000000 [Eh]
	 Same-Spin Energy          =      -0.2520399131334353 [Eh]
	 Opposite-Spin Energy      =      -0.8274731616030602 [Eh]
	 Correlation Energy        =      -1.0795130747364956 [Eh]
	 Total Energy              =    -653.2038224283088539 [Eh]

	 ================> DF-SCS-MP2 Energies <==================
	-----------------------------------------------------------
	 SCS Same-Spin Scale       =       0.3333333333333333 [-]
	 SCS Opposite-Spin Scale   =       1.2000000000000000 [-]
	 SCS Same-Spin Energy      =      -0.0840133043778118 [Eh]
	 SCS Opposite-Spin Energy  =      -0.9929677939236722 [Eh]
	 SCS Correlation Energy    =      -1.0769810983014840 [Eh]
	 SCS Total Energy          =    -653.2012904518738878 [Eh]
	-----------------------------------------------------------

  Dipole Moment: [D]
     X:     0.4645      Y:     2.7259      Z:     1.0504     Total:     2.9580

*** Psi4 exiting successfully. Buy a developer a beer!
