                               Psi4 1.3.2 release

  ==> Input File <==

--------------------------------------------------------------------------
#psi4
#
memory 32 gb

molecule  {
0 1
 Cl       -1.8862660    -0.5037910    -0.0848630
  O        2.6322839    -0.3760058    -0.2459933
  C        0.5405760     0.7662660    -0.3133580
  C        1.3415020    -0.3416140     0.3595680
  C       -0.8647240     0.9315120     0.2382250
  H        0.5053200     0.5766010    -1.3901780
  H        1.0611350     1.7234130    -0.1680230
  H        1.3720670    -0.1781130     1.4478320
  H        0.8719920    -1.3105050     0.1837500
  H       -0.8516100     1.0739190     1.3211680
  H       -1.3679740     1.7845180    -0.2190030
  H        3.1302690     0.3666280     0.0389720
units angstrom
no_reorient  #important for SAPT in psi4, default
symmetry c1  #important for SAPT in psi4, default
}

set PROPERTIES_ORIGIN ["COM"]
properties('MP2/aug-cc-pvtz', properties = ['dipole'])
--------------------------------------------------------------------------

    Molecular point group: c1
  Charge       = 0
  Multiplicity = 1
  Basis Set: AUG-CC-PVTZ
    Blend: AUG-CC-PVTZ
  Basis Set: (AUG-CC-PVTZ AUX)
    Blend: AUG-CC-PVTZ-JKFIT

    Orbital Energies [Eh]
    ---------------------

    Doubly Occupied:

       1A   -104.825348     2A    -20.560789     3A    -11.298462
       4A    -11.283682     5A    -11.240861     6A    -10.549843
       7A     -8.016670     8A     -8.014910     9A     -8.014884
      10A     -1.369262    11A     -1.144552    12A     -1.035189
      13A     -0.914861    14A     -0.819791    15A     -0.710116
      16A     -0.648568    17A     -0.635015    18A     -0.605416
      19A     -0.569671    20A     -0.538912    21A     -0.519079
      22A     -0.488815    23A     -0.457427    24A     -0.435395
      25A     -0.429019

  @DF-RHF Final Energy:  -652.12965454661457

   => Energetics <=

    Nuclear Repulsion Energy =            225.5755509312679692
    One-Electron Energy =               -1345.1573358809573620
    Two-Electron Energy =                 467.4521304030748183
    Total Energy =                       -652.1296545466145744
  Basis Set: (AUG-CC-PVTZ AUX)
    Blend: AUG-CC-PVTZ-RI
    Molecular point group: c1

    Geometry (in Angstrom), charge = 0, multiplicity = 1:

       Center              X                  Y                   Z               Mass
    ------------   -----------------  -----------------  -----------------  -----------------
         CL          -1.812971829313    -0.468806842586    -0.060772412417    34.968852682000
         O            2.705578070687    -0.341021642586    -0.221902712417    15.994914619570
         C            0.613870170687     0.801250157414    -0.289267412417    12.000000000000
         C            1.414796170687    -0.306629842586     0.383658587583    12.000000000000
         C           -0.791429829313     0.966496157414     0.262315587583    12.000000000000
         H            0.578614170687     0.611585157414    -1.366087412417     1.007825032230
         H            1.134429170687     1.758397157414    -0.143932412417     1.007825032230
         H            1.445361170687    -0.143128842586     1.471922587583     1.007825032230
         H            0.945286170687    -1.275520842586     0.207840587583     1.007825032230
         H           -0.778315829313     1.108903157414     1.345258587583     1.007825032230
         H           -1.294679829313     1.819502157414    -0.194912412417     1.007825032230
         H            3.203563170687     0.401612157414     0.063062587583     1.007825032230

  Basis Set: AUG-CC-PVTZ
    Blend: AUG-CC-PVTZ
  Basis Set: (AUG-CC-PVTZ AUX)
    Blend: AUG-CC-PVTZ-JKFIT
	 Reference Energy          =    -652.1296545466145744 [Eh]
	 Singles Energy            =      -0.0000000000000000 [Eh]
	 Same-Spin Energy          =      -0.2527690720567634 [Eh]
	 Opposite-Spin Energy      =      -0.8292360353145096 [Eh]
	 Correlation Energy        =      -1.0820051073712731 [Eh]
	 Total Energy              =    -653.2116596539858620 [Eh]

	 ================> DF-SCS-MP2 Energies <==================
	-----------------------------------------------------------
	 SCS Same-Spin Scale       =       0.3333333333333333 [-]
	 SCS Opposite-Spin Scale   =       1.2000000000000000 [-]
	 SCS Same-Spin Energy      =      -0.0842563573522545 [Eh]
	 SCS Opposite-Spin Energy  =      -0.9950832423774115 [Eh]
	 SCS Correlation Energy    =      -1.0793395997296660 [Eh]
	 SCS Total Energy          =    -653.2089941463442528 [Eh]
	-----------------------------------------------------------

  Dipole Moment: [D]
     X:     0.6341      Y:     2.6249      Z:     1.2274     Total:     2.9663

*** Psi4 exiting successfully. Buy a developer a beer!
