                               Psi4 1.3.2 release

  ==> Input File <==

--------------------------------------------------------------------------
#psi4
#
memory 32 gb

molecule  {
0 1
 Cl       -1.7369875    -0.5786033    -0.1701090
  O        2.6551490    -0.4511250    -0.1848070
  C        0.5405760     0.7662660    -0.3133580
  C        1.3415020    -0.3416140     0.3595680
  C       -0.8647240     0.9315120     0.2382250
  H        0.5053200     0.5766010    -1.3901780
  H        1.0611350     1.7234130    -0.1680230
  H        1.3720670    -0.1781130     1.4478320
  H        0.8719920    -1.3105050     0.1837500
  H       -0.8516100     1.0739190     1.3211680
  H       -1.3679740     1.7845180    -0.2190030
  H        3.1302690     0.3666280     0.0389720
units angstrom
no_reorient  #important for SAPT in psi4, default
symmetry c1  #important for SAPT in psi4, default
}

set PROPERTIES_ORIGIN ["COM"]
properties('MP2/aug-cc-pvtz', properties = ['dipole'])
--------------------------------------------------------------------------

    Molecular point group: c1
  Charge       = 0
  Multiplicity = 1
  Basis Set: AUG-CC-PVTZ
    Blend: AUG-CC-PVTZ
  Basis Set: (AUG-CC-PVTZ AUX)
    Blend: AUG-CC-PVTZ-JKFIT

    Orbital Energies [Eh]
    ---------------------

    Doubly Occupied:

       1A   -104.825917     2A    -20.563937     3A    -11.301181
       4A    -11.280594     5A    -11.241070     6A    -10.550565
       7A     -8.017376     8A     -8.015610     9A     -8.015589
      10A     -1.360951    11A     -1.148522    12A     -1.031143
      13A     -0.913592    14A     -0.820072    15A     -0.702451
      16A     -0.647970    17A     -0.632439    18A     -0.606540
      19A     -0.571219    20A     -0.537077    21A     -0.519804
      22A     -0.487217    23A     -0.452888    24A     -0.436909
      25A     -0.431393

  @DF-RHF Final Energy:  -652.12654902496263

   => Energetics <=

    Nuclear Repulsion Energy =            227.2649120961301605
    One-Electron Energy =               -1348.5588701974145351
    Two-Electron Energy =                 469.1674090763216327
    Total Energy =                       -652.1265490249626282
  Basis Set: (AUG-CC-PVTZ AUX)
    Blend: AUG-CC-PVTZ-RI
    Molecular point group: c1

    Geometry (in Angstrom), charge = 0, multiplicity = 1:

       Center              X                  Y                   Z               Mass
    ------------   -----------------  -----------------  -----------------  -----------------
         CL          -1.723105260696    -0.503014115268    -0.124721707347    34.968852682000
         O            2.669031239304    -0.375535815268    -0.139419707347    15.994914619570
         C            0.554458239304     0.841855184732    -0.267970707347    12.000000000000
         C            1.355384239304    -0.266024815268     0.404955292653    12.000000000000
         C           -0.850841760696     1.007101184732     0.283612292653    12.000000000000
         H            0.519202239304     0.652190184732    -1.344790707347     1.007825032230
         H            1.075017239304     1.799002184732    -0.122635707347     1.007825032230
         H            1.385949239304    -0.102523815268     1.493219292653     1.007825032230
         H            0.885874239304    -1.234915815268     0.229137292653     1.007825032230
         H           -0.837727760696     1.149508184732     1.366555292653     1.007825032230
         H           -1.354091760696     1.860107184732    -0.173615707347     1.007825032230
         H            3.144151239304     0.442217184732     0.084359292653     1.007825032230

  Basis Set: AUG-CC-PVTZ
    Blend: AUG-CC-PVTZ
  Basis Set: (AUG-CC-PVTZ AUX)
    Blend: AUG-CC-PVTZ-JKFIT
	 Reference Energy          =    -652.1265490249626282 [Eh]
	 Singles Energy            =      -0.0000000000000000 [Eh]
	 Same-Spin Energy          =      -0.2537026018854035 [Eh]
	 Opposite-Spin Energy      =      -0.8311053077784509 [Eh]
	 Correlation Energy        =      -1.0848079096638545 [Eh]
	 Total Energy              =    -653.2113569346264512 [Eh]

	 ================> DF-SCS-MP2 Energies <==================
	-----------------------------------------------------------
	 SCS Same-Spin Scale       =       0.3333333333333333 [-]
	 SCS Opposite-Spin Scale   =       1.2000000000000000 [-]
	 SCS Same-Spin Energy      =      -0.0845675339618012 [Eh]
	 SCS Opposite-Spin Energy  =      -0.9973263693341411 [Eh]
	 SCS Correlation Energy    =      -1.0818939032959423 [Eh]
	 SCS Total Energy          =    -653.2084429282585916 [Eh]
	-----------------------------------------------------------

  Dipole Moment: [D]
     X:     0.3665      Y:     2.8205      Z:     1.1270     Total:     3.0594

*** Psi4 exiting successfully. Buy a developer a beer!
