                               Psi4 1.3.2 release

  ==> Input File <==

--------------------------------------------------------------------------
#psi4
#
memory 32 gb

molecule  {
0 1
 Cl       -1.8862660    -0.5037910    -0.0848630
  O        2.6551490    -0.4511250    -0.1848070
  C        0.5405760     0.7662660    -0.3133580
  C        1.3415020    -0.3416140     0.3595680
  C       -0.8076896     1.0116474     0.2562636
  H        0.5053200     0.5766010    -1.3901780
  H        1.0611350     1.7234130    -0.1680230
  H        1.3720670    -0.1781130     1.4478320
  H        0.8719920    -1.3105050     0.1837500
  H       -0.8516100     1.0739190     1.3211680
  H       -1.3679740     1.7845180    -0.2190030
  H        3.1302690     0.3666280     0.0389720
units angstrom
no_reorient  #important for SAPT in psi4, default
symmetry c1  #important for SAPT in psi4, default
}

set PROPERTIES_ORIGIN ["COM"]
properties('MP2/aug-cc-pvtz', properties = ['dipole'])
--------------------------------------------------------------------------

    Molecular point group: c1
  Charge       = 0
  Multiplicity = 1
  Basis Set: AUG-CC-PVTZ
    Blend: AUG-CC-PVTZ
  Basis Set: (AUG-CC-PVTZ AUX)
    Blend: AUG-CC-PVTZ-JKFIT

    Orbital Energies [Eh]
    ---------------------

    Doubly Occupied:

       1A   -104.815312     2A    -20.567626     3A    -11.306362
       4A    -11.285481     5A    -11.246379     6A    -10.539115
       7A     -8.005763     8A     -8.004223     9A     -8.004196
      10A     -1.364655    11A     -1.132867    12A     -1.035189
      13A     -0.921937    14A     -0.827295    15A     -0.708187
      16A     -0.650150    17A     -0.642234    18A     -0.618616
      19A     -0.567385    20A     -0.546485    21A     -0.509369
      22A     -0.478023    23A     -0.456170    24A     -0.433152
      25A     -0.430873

  @DF-RHF Final Energy:  -652.12535735400172

   => Energetics <=

    Nuclear Repulsion Energy =            223.9265539085606349
    One-Electron Energy =               -1341.9097339429347358
    Two-Electron Energy =                 465.8578226803722941
    Total Energy =                       -652.1253573540018351
  Basis Set: (AUG-CC-PVTZ AUX)
    Blend: AUG-CC-PVTZ-RI
    Molecular point group: c1

    Geometry (in Angstrom), charge = 0, multiplicity = 1:

       Center              X                  Y                   Z               Mass
    ------------   -----------------  -----------------  -----------------  -----------------
         CL          -1.824141308163    -0.466255214111    -0.073484084097    34.968852682000
         O            2.717273691837    -0.413589214111    -0.173428084097    15.994914619570
         C            0.602700691837     0.803801785889    -0.301979084097    12.000000000000
         C            1.403626691837    -0.304078214111     0.370946915903    12.000000000000
         C           -0.745564908163     1.049183185889     0.267642515903    12.000000000000
         H            0.567444691837     0.614136785889    -1.378799084097     1.007825032230
         H            1.123259691837     1.760948785889    -0.156644084097     1.007825032230
         H            1.434191691837    -0.140577214111     1.459210915903     1.007825032230
         H            0.934116691837    -1.272969214111     0.195128915903     1.007825032230
         H           -0.789485308163     1.111454785889     1.332546915903     1.007825032230
         H           -1.305849308163     1.822053785889    -0.207624084097     1.007825032230
         H            3.192393691837     0.404163785889     0.050350915903     1.007825032230

  Basis Set: AUG-CC-PVTZ
    Blend: AUG-CC-PVTZ
  Basis Set: (AUG-CC-PVTZ AUX)
    Blend: AUG-CC-PVTZ-JKFIT
	 Reference Energy          =    -652.1253573540017214 [Eh]
	 Singles Energy            =      -0.0000000000000000 [Eh]
	 Same-Spin Energy          =      -0.2527592655971785 [Eh]
	 Opposite-Spin Energy      =      -0.8298720508958304 [Eh]
	 Correlation Energy        =      -1.0826313164930088 [Eh]
	 Total Energy              =    -653.2079886704947285 [Eh]

	 ================> DF-SCS-MP2 Energies <==================
	-----------------------------------------------------------
	 SCS Same-Spin Scale       =       0.3333333333333333 [-]
	 SCS Opposite-Spin Scale   =       1.2000000000000000 [-]
	 SCS Same-Spin Energy      =      -0.0842530885323928 [Eh]
	 SCS Opposite-Spin Energy  =      -0.9958464610749964 [Eh]
	 SCS Correlation Energy    =      -1.0800995496073893 [Eh]
	 SCS Total Energy          =    -653.2054569036091607 [Eh]
	-----------------------------------------------------------

  Dipole Moment: [D]
     X:     0.8193      Y:     3.0354      Z:     1.1020     Total:     3.3315

*** Psi4 exiting successfully. Buy a developer a beer!
