                               Psi4 1.4a3.dev225

  ==> Input File <==

--------------------------------------------------------------------------
#psi4
#
memory 32 gb

molecule  {
0 1
 Cl       -1.8863280    -0.5037310    -0.0848350
  O        2.6552870    -0.4508740    -0.1847800
  C        0.5406420     0.7662540    -0.3132380
  C        1.3413940    -0.3419500     0.3592880
  C       -0.8647190     0.9314930     0.2381990
  H        0.5055580     0.5770700    -1.3901400
  H        1.0611570     1.7233420    -0.1673410
  H        1.3716790    -0.1791760     1.4476590
  H        0.8721100    -1.3108220     0.1827430
  H       -0.8516430     1.0741000     1.3211200
  H       -1.3678240     1.7844860    -0.2192100
  H        3.1401180     0.3834490     0.0447287
units angstrom
no_reorient  #important for SAPT in psi4, default
symmetry c1  #important for SAPT in psi4, default
}

set PROPERTIES_ORIGIN ["COM"]
properties('MP2/aug-cc-pvtz', properties = ['dipole'])
--------------------------------------------------------------------------

    Molecular point group: c1
  Charge       = 0
  Multiplicity = 1
  Basis Set: AUG-CC-PVTZ
    Blend: AUG-CC-PVTZ
  Basis Set: (AUG-CC-PVTZ AUX)
    Blend: AUG-CC-PVTZ-JKFIT

    Orbital Energies [Eh]
    ---------------------

    Doubly Occupied:

       1A   -104.826118     2A    -20.567122     3A    -11.300469
       4A    -11.282351     5A    -11.243413     6A    -10.550601
       7A     -8.017429     8A     -8.015662     9A     -8.015635
      10A     -1.358099    11A     -1.145557    12A     -1.035160
      13A     -0.911760    14A     -0.819846    15A     -0.700894
      16A     -0.646088    17A     -0.632223    18A     -0.608400
      19A     -0.568555    20A     -0.539699    21A     -0.520000
      22A     -0.488069    23A     -0.455029    24A     -0.436286
      25A     -0.431193

  @DF-RHF Final Energy:  -652.12791526664182

   => Energetics <=

    Nuclear Repulsion Energy =            224.8540336008620102
    One-Electron Energy =               -1343.7325857075582007
    Two-Electron Energy =                 466.7506368400543693
    Total Energy =                       -652.1279152666418213
  Basis Set: (AUG-CC-PVTZ AUX)
    Blend: AUG-CC-PVTZ-RI
    Molecular point group: c1

    Geometry (in Angstrom), charge = 0, multiplicity = 1:

       Center              X                  Y                   Z               Mass
    ------------   -----------------  -----------------  -----------------  -----------------
         CL          -1.817026174307    -0.456156738580    -0.071199049981    34.968852682000
         O            2.724588825693    -0.403299738580    -0.171144049981    15.994914619570
         C            0.609943825693     0.813828261420    -0.299602049981    12.000000000000
         C            1.410695825693    -0.294375738580     0.372923950019    12.000000000000
         C           -0.795417174307     0.979067261420     0.251834950019    12.000000000000
         H            0.574859825693     0.624644261420    -1.376504049981     1.007825032230
         H            1.130458825693     1.770916261420    -0.153705049981     1.007825032230
         H            1.440980825693    -0.131601738580     1.461294950019     1.007825032230
         H            0.941411825693    -1.263247738580     0.196378950019     1.007825032230
         H           -0.782341174307     1.121674261420     1.334755950019     1.007825032230
         H           -1.298522174307     1.832060261420    -0.205574049981     1.007825032230
         H            3.209419825693     0.431023261420     0.058364650019     1.007825032230

  Basis Set: AUG-CC-PVTZ
    Blend: AUG-CC-PVTZ
  Basis Set: (AUG-CC-PVTZ AUX)
    Blend: AUG-CC-PVTZ-JKFIT
	 Reference Energy          =    -652.1279152666418213 [Eh]
	 Singles Energy            =      -0.0000000000000000 [Eh]
	 Same-Spin Energy          =      -0.2533724830180171 [Eh]
	 Opposite-Spin Energy      =      -0.8309683054872981 [Eh]
	 Correlation Energy        =      -1.0843407885053151 [Eh]
	 Total Energy              =    -653.2122560551471224 [Eh]

	 ================> DF-SCS-MP2 Energies <==================
	-----------------------------------------------------------
	 SCS Same-Spin Scale       =       0.3333333333333333 [-]
	 SCS Opposite-Spin Scale   =       1.2000000000000000 [-]
	 SCS Same-Spin Energy      =      -0.0844574943393390 [Eh]
	 SCS Opposite-Spin Energy  =      -0.9971619665847576 [Eh]
	 SCS Correlation Energy    =      -1.0816194609240966 [Eh]
	 SCS Total Energy          =    -653.2095347275659378 [Eh]
	-----------------------------------------------------------

  Dipole Moment: [D]
     X:     0.5429      Y:     2.7830      Z:     1.0624     Total:     3.0280

*** Psi4 exiting successfully. Buy a developer a beer!
