                               Psi4 1.3.2 release

  ==> Input File <==

--------------------------------------------------------------------------
#psi4
#
memory 32 gb

molecule  {
0 1
 Cl       -2.0243523    -0.4132532     0.0039228
  O        2.6551490    -0.4511250    -0.1848070
  C        0.5405760     0.7662660    -0.3133580
  C        1.3415020    -0.3416140     0.3595680
  C       -0.8647240     0.9315120     0.2382250
  H        0.5053200     0.5766010    -1.3901780
  H        1.0611350     1.7234130    -0.1680230
  H        1.3720670    -0.1781130     1.4478320
  H        0.8719920    -1.3105050     0.1837500
  H       -0.8516100     1.0739190     1.3211680
  H       -1.3679740     1.7845180    -0.2190030
  H        3.1302690     0.3666280     0.0389720
units angstrom
no_reorient  #important for SAPT in psi4, default
symmetry c1  #important for SAPT in psi4, default
}

set PROPERTIES_ORIGIN ["COM"]
properties('MP2/aug-cc-pvtz', properties = ['dipole'])
--------------------------------------------------------------------------

    Molecular point group: c1
  Charge       = 0
  Multiplicity = 1
  Basis Set: AUG-CC-PVTZ
    Blend: AUG-CC-PVTZ
  Basis Set: (AUG-CC-PVTZ AUX)
    Blend: AUG-CC-PVTZ-JKFIT

    Orbital Energies [Eh]
    ---------------------

    Doubly Occupied:

       1A   -104.826163     2A    -20.566491     3A    -11.299848
       4A    -11.284184     5A    -11.246103     6A    -10.550573
       7A     -8.017407     8A     -8.015631     9A     -8.015591
      10A     -1.363634    11A     -1.143945    12A     -1.039438
      13A     -0.912307    14A     -0.820957    15A     -0.704668
      16A     -0.645983    17A     -0.633392    18A     -0.611665
      19A     -0.567199    20A     -0.542791    21A     -0.521083
      22A     -0.489749    23A     -0.457520    24A     -0.435210
      25A     -0.429857

  @DF-RHF Final Energy:  -652.12807583830158

   => Energetics <=

    Nuclear Repulsion Energy =            222.9890524704376844
    One-Electron Energy =               -1339.9514826248810095
    Two-Electron Energy =                 464.8343543161418552
    Total Energy =                       -652.1280758383015836
  Basis Set: (AUG-CC-PVTZ AUX)
    Blend: AUG-CC-PVTZ-RI
    Molecular point group: c1

    Geometry (in Angstrom), charge = 0, multiplicity = 1:

       Center              X                  Y                   Z               Mass
    ------------   -----------------  -----------------  -----------------  -----------------
         CL          -1.903588831876    -0.399163620903    -0.015418547173    34.968852682000
         O            2.775912468124    -0.437035420903    -0.204148347173    15.994914619570
         C            0.661339468124     0.780355579097    -0.332699347173    12.000000000000
         C            1.462265468124    -0.327524420903     0.340226652827    12.000000000000
         C           -0.743960531876     0.945601579097     0.218883652827    12.000000000000
         H            0.626083468124     0.590690579097    -1.409519347173     1.007825032230
         H            1.181898468124     1.737502579097    -0.187364347173     1.007825032230
         H            1.492830468124    -0.164023420903     1.428490652827     1.007825032230
         H            0.992755468124    -1.296415420903     0.164408652827     1.007825032230
         H           -0.730846531876     1.088008579097     1.301826652827     1.007825032230
         H           -1.247210531876     1.798607579097    -0.238344347173     1.007825032230
         H            3.251032468124     0.380717579097     0.019630652827     1.007825032230

  Basis Set: AUG-CC-PVTZ
    Blend: AUG-CC-PVTZ
  Basis Set: (AUG-CC-PVTZ AUX)
    Blend: AUG-CC-PVTZ-JKFIT
	 Reference Energy          =    -652.1280758383015836 [Eh]
	 Singles Energy            =      -0.0000000000000000 [Eh]
	 Same-Spin Energy          =      -0.2528661966523781 [Eh]
	 Opposite-Spin Energy      =      -0.8300342438689041 [Eh]
	 Correlation Energy        =      -1.0829004405212821 [Eh]
	 Total Energy              =    -653.2109762788228409 [Eh]

	 ================> DF-SCS-MP2 Energies <==================
	-----------------------------------------------------------
	 SCS Same-Spin Scale       =       0.3333333333333333 [-]
	 SCS Opposite-Spin Scale   =       1.2000000000000000 [-]
	 SCS Same-Spin Energy      =      -0.0842887322174594 [Eh]
	 SCS Opposite-Spin Energy  =      -0.9960410926426849 [Eh]
	 SCS Correlation Energy    =      -1.0803298248601443 [Eh]
	 SCS Total Energy          =    -653.2084056631617841 [Eh]
	-----------------------------------------------------------

  Dipole Moment: [D]
     X:     0.6912      Y:     2.7119      Z:     0.9841     Total:     2.9665

*** Psi4 exiting successfully. Buy a developer a beer!
