                               Psi4 1.3.2 release

  ==> Input File <==

--------------------------------------------------------------------------
#psi4
#
memory 32 gb

molecule  {
0 1
 Cl       -1.8862660    -0.5037910    -0.0848630
  O        2.6551490    -0.4511250    -0.1848070
  C        0.5405760     0.7662660    -0.3133580
  C        1.3415020    -0.3416140     0.3595680
  C       -0.9217584     0.8513766     0.2201864
  H        0.5053200     0.5766010    -1.3901780
  H        1.0611350     1.7234130    -0.1680230
  H        1.3720670    -0.1781130     1.4478320
  H        0.8719920    -1.3105050     0.1837500
  H       -0.8516100     1.0739190     1.3211680
  H       -1.3679740     1.7845180    -0.2190030
  H        3.1302690     0.3666280     0.0389720
units angstrom
no_reorient  #important for SAPT in psi4, default
symmetry c1  #important for SAPT in psi4, default
}

set PROPERTIES_ORIGIN ["COM"]
properties('MP2/aug-cc-pvtz', properties = ['dipole'])
--------------------------------------------------------------------------

    Molecular point group: c1
  Charge       = 0
  Multiplicity = 1
  Basis Set: AUG-CC-PVTZ
    Blend: AUG-CC-PVTZ
  Basis Set: (AUG-CC-PVTZ AUX)
    Blend: AUG-CC-PVTZ-JKFIT

    Orbital Energies [Eh]
    ---------------------

    Doubly Occupied:

       1A   -104.834399     2A    -20.563321     3A    -11.298368
       4A    -11.280107     5A    -11.242288     6A    -10.560277
       7A     -8.027362     8A     -8.025253     9A     -8.025222
      10A     -1.360475    11A     -1.167509    12A     -1.032890
      13A     -0.902928    14A     -0.814527    15A     -0.700086
      16A     -0.646265    17A     -0.623225    18A     -0.606839
      19A     -0.573158    20A     -0.539888    21A     -0.532129
      22A     -0.490398    23A     -0.455619    24A     -0.433065
      25A     -0.425426

  @DF-RHF Final Energy:  -652.11974970229744

   => Energetics <=

    Nuclear Repulsion Energy =            226.1097865322791449
    One-Electron Energy =               -1346.1370298428223578
    Two-Electron Energy =                 467.9074936082458294
    Total Energy =                       -652.1197497022974403
  Basis Set: (AUG-CC-PVTZ AUX)
    Blend: AUG-CC-PVTZ-RI
    Molecular point group: c1

    Geometry (in Angstrom), charge = 0, multiplicity = 1:

       Center              X                  Y                   Z               Mass
    ------------   -----------------  -----------------  -----------------  -----------------
         CL          -1.809582205637    -0.445799147167    -0.068879392423    34.968852682000
         O            2.731832794363    -0.393133147167    -0.168823392423    15.994914619570
         C            0.617259794363     0.824257852833    -0.297374392423    12.000000000000
         C            1.418185794363    -0.283622147167     0.375551607577    12.000000000000
         C           -0.845074605637     0.909368452833     0.236170007577    12.000000000000
         H            0.582003794363     0.634592852833    -1.374194392423     1.007825032230
         H            1.137818794363     1.781404852833    -0.152039392423     1.007825032230
         H            1.448750794363    -0.120121147167     1.463815607577     1.007825032230
         H            0.948675794363    -1.252513147167     0.199733607577     1.007825032230
         H           -0.774926205637     1.131910852833     1.337151607577     1.007825032230
         H           -1.291290205637     1.842509852833    -0.203019392423     1.007825032230
         H            3.206952794363     0.424619852833     0.054955607577     1.007825032230

  Basis Set: AUG-CC-PVTZ
    Blend: AUG-CC-PVTZ
  Basis Set: (AUG-CC-PVTZ AUX)
    Blend: AUG-CC-PVTZ-JKFIT
	 Reference Energy          =    -652.1197497022974403 [Eh]
	 Singles Energy            =      -0.0000000000000000 [Eh]
	 Same-Spin Energy          =      -0.2540671183935507 [Eh]
	 Opposite-Spin Energy      =      -0.8315404840506406 [Eh]
	 Correlation Energy        =      -1.0856076024441914 [Eh]
	 Total Energy              =    -653.2053573047415966 [Eh]

	 ================> DF-SCS-MP2 Energies <==================
	-----------------------------------------------------------
	 SCS Same-Spin Scale       =       0.3333333333333333 [-]
	 SCS Opposite-Spin Scale   =       1.2000000000000000 [-]
	 SCS Same-Spin Energy      =      -0.0846890394645169 [Eh]
	 SCS Opposite-Spin Energy  =      -0.9978485808607687 [Eh]
	 SCS Correlation Energy    =      -1.0825376203252857 [Eh]
	 SCS Total Energy          =    -653.2022873226227375 [Eh]
	-----------------------------------------------------------

  Dipole Moment: [D]
     X:     0.2813      Y:     2.5263      Z:     1.0117     Total:     2.7359

*** Psi4 exiting successfully. Buy a developer a beer!
