                               Psi4 1.4a3.dev225

  ==> Input File <==

--------------------------------------------------------------------------
#psi4
#
memory 32 gb

molecule  {
0 1
 Cl       -1.8863280    -0.5037310    -0.0848350
  O        2.6552870    -0.4508740    -0.1847800
  C        0.5406420     0.7662540    -0.3132380
  C        1.3229696    -0.3404226     0.3669173
  C       -0.8647190     0.9314930     0.2381990
  H        0.5055580     0.5770700    -1.3901400
  H        1.0611570     1.7233420    -0.1673410
  H        1.3716790    -0.1791760     1.4476590
  H        0.8721100    -1.3108220     0.1827430
  H       -0.8516430     1.0741000     1.3211200
  H       -1.3678240     1.7844860    -0.2192100
  H        3.1303420     0.3666260     0.0401010
units angstrom
no_reorient  #important for SAPT in psi4, default
symmetry c1  #important for SAPT in psi4, default
}

set PROPERTIES_ORIGIN ["COM"]
properties('MP2/aug-cc-pvtz', properties = ['dipole'])
--------------------------------------------------------------------------

    Molecular point group: c1
  Charge       = 0
  Multiplicity = 1
  Basis Set: AUG-CC-PVTZ
    Blend: AUG-CC-PVTZ
  Basis Set: (AUG-CC-PVTZ AUX)
    Blend: AUG-CC-PVTZ-JKFIT

    Orbital Energies [Eh]
    ---------------------

    Doubly Occupied:

       1A   -104.826616     2A    -20.563053     3A    -11.300812
       4A    -11.282284     5A    -11.244107     6A    -10.551100
       7A     -8.017928     8A     -8.016161     9A     -8.016133
      10A     -1.354419    11A     -1.146528    12A     -1.037575
      13A     -0.913638    14A     -0.820914    15A     -0.701232
      16A     -0.646026    17A     -0.632629    18A     -0.607461
      19A     -0.565946    20A     -0.540319    21A     -0.519689
      22A     -0.491051    23A     -0.457449    24A     -0.436782
      25A     -0.432050

  @DF-RHF Final Energy:  -652.12881394142380

   => Energetics <=

    Nuclear Repulsion Energy =            224.9465038690163112
    One-Electron Energy =               -1343.9068287482482447
    Two-Electron Energy =                 466.8315109378079910
    Total Energy =                       -652.1288139414239140
  Basis Set: (AUG-CC-PVTZ AUX)
    Blend: AUG-CC-PVTZ-RI
    Molecular point group: c1

    Geometry (in Angstrom), charge = 0, multiplicity = 1:

       Center              X                  Y                   Z               Mass
    ------------   -----------------  -----------------  -----------------  -----------------
         CL          -1.814569793988    -0.456171354415    -0.072123204789    34.968852682000
         O            2.727045206012    -0.403314354415    -0.172068204789    15.994914619570
         C            0.612400206012     0.813813645585    -0.300526204789    12.000000000000
         C            1.394727806012    -0.292862954415     0.379629095211    12.000000000000
         C           -0.792960793988     0.979052645585     0.250910795211    12.000000000000
         H            0.577316206012     0.624629645585    -1.377428204789     1.007825032230
         H            1.132915206012     1.770901645585    -0.154629204789     1.007825032230
         H            1.443437206012    -0.131616354415     1.460370795211     1.007825032230
         H            0.943868206012    -1.263262354415     0.195454795211     1.007825032230
         H           -0.779884793988     1.121659645585     1.333831795211     1.007825032230
         H           -1.296065793988     1.832045645585    -0.206498204789     1.007825032230
         H            3.202100206012     0.414185645585     0.052812795211     1.007825032230

  Basis Set: AUG-CC-PVTZ
    Blend: AUG-CC-PVTZ
  Basis Set: (AUG-CC-PVTZ AUX)
    Blend: AUG-CC-PVTZ-JKFIT
	 Reference Energy          =    -652.1288139414238003 [Eh]
	 Singles Energy            =      -0.0000000000000000 [Eh]
	 Same-Spin Energy          =      -0.2532246090480180 [Eh]
	 Opposite-Spin Energy      =      -0.8307067952684080 [Eh]
	 Correlation Energy        =      -1.0839314043164259 [Eh]
	 Total Energy              =    -653.2127453457402453 [Eh]

	 ================> DF-SCS-MP2 Energies <==================
	-----------------------------------------------------------
	 SCS Same-Spin Scale       =       0.3333333333333333 [-]
	 SCS Opposite-Spin Scale   =       1.2000000000000000 [-]
	 SCS Same-Spin Energy      =      -0.0844082030160060 [Eh]
	 SCS Opposite-Spin Energy  =      -0.9968481543220895 [Eh]
	 SCS Correlation Energy    =      -1.0812563573380956 [Eh]
	 SCS Total Energy          =    -653.2100702987619343 [Eh]
	-----------------------------------------------------------

  Dipole Moment: [D]
     X:     0.4552      Y:     2.7845      Z:     1.0822     Total:     3.0219

*** Psi4 exiting successfully. Buy a developer a beer!
