                               Psi4 1.3.2 release

  ==> Input File <==

--------------------------------------------------------------------------
#psi4
#
memory 32 gb

molecule  {
0 1
 Cl       -1.8862660    -0.5037910    -0.0848630
  O        2.6551490    -0.4511250    -0.1848070
  C        0.5405760     0.7662660    -0.3133580
  C        1.2493929    -0.3339354     0.3977380
  C       -0.8647240     0.9315120     0.2382250
  H        0.5053200     0.5766010    -1.3901780
  H        1.0611350     1.7234130    -0.1680230
  H        1.3720670    -0.1781130     1.4478320
  H        0.8719920    -1.3105050     0.1837500
  H       -0.8516100     1.0739190     1.3211680
  H       -1.3679740     1.7845180    -0.2190030
  H        3.1302690     0.3666280     0.0389720
units angstrom
no_reorient  #important for SAPT in psi4, default
symmetry c1  #important for SAPT in psi4, default
}

set PROPERTIES_ORIGIN ["COM"]
properties('MP2/aug-cc-pvtz', properties = ['dipole'])
--------------------------------------------------------------------------

    Molecular point group: c1
  Charge       = 0
  Multiplicity = 1
  Basis Set: AUG-CC-PVTZ
    Blend: AUG-CC-PVTZ
  Basis Set: (AUG-CC-PVTZ AUX)
    Blend: AUG-CC-PVTZ-JKFIT

    Orbital Energies [Eh]
    ---------------------

    Doubly Occupied:

       1A   -104.828431     2A    -20.553956     3A    -11.301962
       4A    -11.282974     5A    -11.246494     6A    -10.552922
       7A     -8.019748     8A     -8.017979     9A     -8.017951
      10A     -1.326304    11A     -1.150206    12A     -1.045153
      13A     -0.916842    14A     -0.823467    15A     -0.695378
      16A     -0.646738    17A     -0.630065    18A     -0.601505
      19A     -0.558867    20A     -0.543875    21A     -0.510189
      22A     -0.498486    23A     -0.461713    24A     -0.438589
      25A     -0.433893

  @DF-RHF Final Energy:  -652.11977727428837

   => Energetics <=

    Nuclear Repulsion Energy =            224.9185090164465919
    One-Electron Energy =               -1343.8691998511280872
    Two-Electron Energy =                 466.8309135603932418
    Total Energy =                       -652.1197772742883672
  Basis Set: (AUG-CC-PVTZ AUX)
    Blend: AUG-CC-PVTZ-RI
    Molecular point group: c1

    Geometry (in Angstrom), charge = 0, multiplicity = 1:

       Center              X                  Y                   Z               Mass
    ------------   -----------------  -----------------  -----------------  -----------------
         CL          -1.805105467446    -0.457007234121    -0.076053543200    34.968852682000
         O            2.736309532554    -0.404341234121    -0.175997543200    15.994914619570
         C            0.621736532554     0.813049765879    -0.304548543200    12.000000000000
         C            1.330553432554    -0.287151634121     0.406547456800    12.000000000000
         C           -0.783563467446     0.978295765879     0.247034456800    12.000000000000
         H            0.586480532554     0.623384765879    -1.381368543200     1.007825032230
         H            1.142295532554     1.770196765879    -0.159213543200     1.007825032230
         H            1.453227532554    -0.131329234121     1.456641456800     1.007825032230
         H            0.953152532554    -1.263721234121     0.192559456800     1.007825032230
         H           -0.770449467446     1.120702765879     1.329977456800     1.007825032230
         H           -1.286813467446     1.831301765879    -0.210193543200     1.007825032230
         H            3.211429532554     0.413411765879     0.047781456800     1.007825032230

  Basis Set: AUG-CC-PVTZ
    Blend: AUG-CC-PVTZ
  Basis Set: (AUG-CC-PVTZ AUX)
    Blend: AUG-CC-PVTZ-JKFIT
	 Reference Energy          =    -652.1197772742883672 [Eh]
	 Singles Energy            =      -0.0000000000000000 [Eh]
	 Same-Spin Energy          =      -0.2537515400555297 [Eh]
	 Opposite-Spin Energy      =      -0.8325268141391686 [Eh]
	 Correlation Energy        =      -1.0862783541946983 [Eh]
	 Total Energy              =    -653.2060556284831137 [Eh]

	 ================> DF-SCS-MP2 Energies <==================
	-----------------------------------------------------------
	 SCS Same-Spin Scale       =       0.3333333333333333 [-]
	 SCS Opposite-Spin Scale   =       1.2000000000000000 [-]
	 SCS Same-Spin Energy      =      -0.0845838466851766 [Eh]
	 SCS Opposite-Spin Energy  =      -0.9990321769670023 [Eh]
	 SCS Correlation Energy    =      -1.0836160236521788 [Eh]
	 SCS Total Energy          =    -653.2033932979405790 [Eh]
	-----------------------------------------------------------

  Dipole Moment: [D]
     X:     0.1691      Y:     2.8264      Z:     1.1544     Total:     3.0577

*** Psi4 exiting successfully. Buy a developer a beer!
