                               Psi4 1.3.2 release

  ==> Input File <==

--------------------------------------------------------------------------
#psi4
#
memory 32 gb

molecule  {
0 1
 Cl       -1.8637396    -0.4869588    -0.2066761
  O        2.6551490    -0.4511250    -0.1848070
  C        0.5405760     0.7662660    -0.3133580
  C        1.3415020    -0.3416140     0.3595680
  C       -0.8647240     0.9315120     0.2382250
  H        0.5053200     0.5766010    -1.3901780
  H        1.0611350     1.7234130    -0.1680230
  H        1.3720670    -0.1781130     1.4478320
  H        0.8719920    -1.3105050     0.1837500
  H       -0.8516100     1.0739190     1.3211680
  H       -1.3679740     1.7845180    -0.2190030
  H        3.1302690     0.3666280     0.0389720
units angstrom
no_reorient  #important for SAPT in psi4, default
symmetry c1  #important for SAPT in psi4, default
}

set PROPERTIES_ORIGIN ["COM"]
properties('MP2/aug-cc-pvtz', properties = ['dipole'])
--------------------------------------------------------------------------

    Molecular point group: c1
  Charge       = 0
  Multiplicity = 1
  Basis Set: AUG-CC-PVTZ
    Blend: AUG-CC-PVTZ
  Basis Set: (AUG-CC-PVTZ AUX)
    Blend: AUG-CC-PVTZ-JKFIT

    Orbital Energies [Eh]
    ---------------------

    Doubly Occupied:

       1A   -104.826135     2A    -20.565085     3A    -11.300720
       4A    -11.282351     5A    -11.242571     6A    -10.550647
       7A     -8.017471     8A     -8.015702     9A     -8.015675
      10A     -1.362142    11A     -1.146441    12A     -1.034476
      13A     -0.912784    14A     -0.820716    15A     -0.703426
      16A     -0.646911    17A     -0.633129    18A     -0.608651
      19A     -0.569579    20A     -0.538219    21A     -0.520765
      22A     -0.488431    23A     -0.455039    24A     -0.436820
      25A     -0.430869

  @DF-RHF Final Energy:  -652.12859089150345

   => Energetics <=

    Nuclear Repulsion Energy =            225.3714253202371651
    One-Electron Energy =               -1344.7505228558254657
    Two-Electron Energy =                 467.2505066440847941
    Total Energy =                       -652.1285908915034497
  Basis Set: (AUG-CC-PVTZ AUX)
    Blend: AUG-CC-PVTZ-RI
    Molecular point group: c1

    Geometry (in Angstrom), charge = 0, multiplicity = 1:

       Center              X                  Y                   Z               Mass
    ------------   -----------------  -----------------  -----------------  -----------------
         CL          -1.802713729313    -0.445455476774    -0.147688197313    34.968852682000
         O            2.716174870687    -0.409621676774    -0.125819097313    15.994914619570
         C            0.601601870687     0.807769323226    -0.254370097313    12.000000000000
         C            1.402527870687    -0.300110676774     0.418555902687    12.000000000000
         C           -0.803698129313     0.973015323226     0.297212902687    12.000000000000
         H            0.566345870687     0.618104323226    -1.331190097313     1.007825032230
         H            1.122160870687     1.764916323226    -0.109035097313     1.007825032230
         H            1.433092870687    -0.136609676774     1.506819902687     1.007825032230
         H            0.933017870687    -1.269001676774     0.242737902687     1.007825032230
         H           -0.790584129313     1.115422323226     1.380155902687     1.007825032230
         H           -1.306948129313     1.826021323226    -0.160015097313     1.007825032230
         H            3.191294870687     0.408131323226     0.097959902687     1.007825032230

  Basis Set: AUG-CC-PVTZ
    Blend: AUG-CC-PVTZ
  Basis Set: (AUG-CC-PVTZ AUX)
    Blend: AUG-CC-PVTZ-JKFIT
	 Reference Energy          =    -652.1285908915034497 [Eh]
	 Singles Energy            =      -0.0000000000000000 [Eh]
	 Same-Spin Energy          =      -0.2532585449015474 [Eh]
	 Opposite-Spin Energy      =      -0.8305205016587256 [Eh]
	 Correlation Energy        =      -1.0837790465602730 [Eh]
	 Total Energy              =    -653.2123699380637163 [Eh]

	 ================> DF-SCS-MP2 Energies <==================
	-----------------------------------------------------------
	 SCS Same-Spin Scale       =       0.3333333333333333 [-]
	 SCS Opposite-Spin Scale   =       1.2000000000000000 [-]
	 SCS Same-Spin Energy      =      -0.0844195149671825 [Eh]
	 SCS Opposite-Spin Energy  =      -0.9966246019904706 [Eh]
	 SCS Correlation Energy    =      -1.0810441169576532 [Eh]
	 SCS Total Energy          =    -653.2096350084610776 [Eh]
	-----------------------------------------------------------

  Dipole Moment: [D]
     X:     0.5010      Y:     2.7596      Z:     1.1567     Total:     3.0339

*** Psi4 exiting successfully. Buy a developer a beer!
