                               Psi4 1.4a3.dev225

  ==> Input File <==

--------------------------------------------------------------------------
#psi4
#
memory 32 gb

molecule  {
0 1
 Cl       -1.8863280    -0.5037310    -0.0848350
  O        2.6552870    -0.4508740    -0.1847800
  C        0.5406420     0.7662540    -0.3132380
  C        1.3413940    -0.3419500     0.3592880
  C       -0.8647190     0.9314930     0.2381990
  H        0.5055580     0.5770700    -1.3901400
  H        1.0611570     1.7233420    -0.1673410
  H        1.3716790    -0.1791760     1.4476590
  H        0.8721100    -1.3108220     0.1827430
  H       -0.8516430     1.0741000     1.3211200
  H       -1.3678240     1.7844860    -0.2192100
  H        3.1205660     0.3498030     0.0354733
units angstrom
no_reorient  #important for SAPT in psi4, default
symmetry c1  #important for SAPT in psi4, default
}

set PROPERTIES_ORIGIN ["COM"]
properties('MP2/aug-cc-pvtz', properties = ['dipole'])
--------------------------------------------------------------------------

    Molecular point group: c1
  Charge       = 0
  Multiplicity = 1
  Basis Set: AUG-CC-PVTZ
    Blend: AUG-CC-PVTZ
  Basis Set: (AUG-CC-PVTZ AUX)
    Blend: AUG-CC-PVTZ-JKFIT

    Orbital Energies [Eh]
    ---------------------

    Doubly Occupied:

       1A   -104.826253     2A    -20.563347     3A    -11.300652
       4A    -11.282695     5A    -11.243668     6A    -10.550735
       7A     -8.017563     8A     -8.015796     9A     -8.015768
      10A     -1.366850    11A     -1.145820    12A     -1.036196
      13A     -0.913983    14A     -0.821218    15A     -0.706303
      16A     -0.647337    17A     -0.633438    18A     -0.609910
      19A     -0.569386    20A     -0.540180    21A     -0.521279
      22A     -0.488955    23A     -0.455867    24A     -0.436429
      25A     -0.431530

  @DF-RHF Final Energy:  -652.13035134992572

   => Energetics <=

    Nuclear Repulsion Energy =            225.0813110603891971
    One-Electron Energy =               -1344.1410061222370587
    Two-Electron Energy =                 466.9293437119221153
    Total Energy =                       -652.1303513499257178
  Basis Set: (AUG-CC-PVTZ AUX)
    Blend: AUG-CC-PVTZ-RI
    Molecular point group: c1

    Geometry (in Angstrom), charge = 0, multiplicity = 1:

       Center              X                  Y                   Z               Mass
    ------------   -----------------  -----------------  -----------------  -----------------
         CL          -1.816816588044    -0.455796072693    -0.071099837384    34.968852682000
         O            2.724798411956    -0.402939072693    -0.171044837384    15.994914619570
         C            0.610153411956     0.814188927307    -0.299502837384    12.000000000000
         C            1.410905411956    -0.294015072693     0.373023162616    12.000000000000
         C           -0.795207588044     0.979427927307     0.251934162616    12.000000000000
         H            0.575069411956     0.625004927307    -1.376404837384     1.007825032230
         H            1.130668411956     1.771276927307    -0.153605837384     1.007825032230
         H            1.441190411956    -0.131241072693     1.461394162616     1.007825032230
         H            0.941621411956    -1.262887072693     0.196478162616     1.007825032230
         H           -0.782131588044     1.122034927307     1.334855162616     1.007825032230
         H           -1.298312588044     1.832420927307    -0.205474837384     1.007825032230
         H            3.190077411956     0.397737927307     0.049208462616     1.007825032230

  Basis Set: AUG-CC-PVTZ
    Blend: AUG-CC-PVTZ
  Basis Set: (AUG-CC-PVTZ AUX)
    Blend: AUG-CC-PVTZ-JKFIT
	 Reference Energy          =    -652.1303513499257178 [Eh]
	 Singles Energy            =      -0.0000000000000000 [Eh]
	 Same-Spin Energy          =      -0.2529335398780989 [Eh]
	 Opposite-Spin Energy      =      -0.8297562733704016 [Eh]
	 Correlation Energy        =      -1.0826898132485003 [Eh]
	 Total Energy              =    -653.2130411631742390 [Eh]

	 ================> DF-SCS-MP2 Energies <==================
	-----------------------------------------------------------
	 SCS Same-Spin Scale       =       0.3333333333333333 [-]
	 SCS Opposite-Spin Scale   =       1.2000000000000000 [-]
	 SCS Same-Spin Energy      =      -0.0843111799593663 [Eh]
	 SCS Opposite-Spin Energy  =      -0.9957075280444818 [Eh]
	 SCS Correlation Energy    =      -1.0800187080038481 [Eh]
	 SCS Total Energy          =    -653.2103700579295946 [Eh]
	-----------------------------------------------------------

  Dipole Moment: [D]
     X:     0.5187      Y:     2.7644      Z:     1.0586     Total:     3.0052

*** Psi4 exiting successfully. Buy a developer a beer!
