                               Psi4 1.3.2 release

  ==> Input File <==

--------------------------------------------------------------------------
#psi4
#
memory 32 gb

molecule  {
0 1
 Cl       -1.8862660    -0.5037910    -0.0848630
  O        2.6551490    -0.4511250    -0.1848070
  C        0.5405760     0.7662660    -0.3133580
  C        1.3415020    -0.3416140     0.3595680
  C       -0.8647240     0.9315120     0.2382250
  H        0.5053200     0.5766010    -1.3901780
  H        1.0611350     1.7234130    -0.1680230
  H        1.3720670    -0.1781130     1.4478320
  H        0.8719920    -1.3105050     0.1837500
  H       -0.8516100     1.0739190     1.3211680
  H       -1.3679740     1.7845180    -0.2190030
  H        3.1791561     0.4507700     0.0619976
units angstrom
no_reorient  #important for SAPT in psi4, default
symmetry c1  #important for SAPT in psi4, default
}

set PROPERTIES_ORIGIN ["COM"]
properties('MP2/aug-cc-pvtz', properties = ['dipole'])
--------------------------------------------------------------------------

    Molecular point group: c1
  Charge       = 0
  Multiplicity = 1
  Basis Set: AUG-CC-PVTZ
    Blend: AUG-CC-PVTZ
  Basis Set: (AUG-CC-PVTZ AUX)
    Blend: AUG-CC-PVTZ-JKFIT

    Orbital Energies [Eh]
    ---------------------

    Doubly Occupied:

       1A   -104.825882     2A    -20.573916     3A    -11.300150
       4A    -11.281799     5A    -11.242956     6A    -10.550367
       7A     -8.017195     8A     -8.015429     9A     -8.015402
      10A     -1.343911    11A     -1.145098    12A     -1.033423
      13A     -0.908080    14A     -0.817502    15A     -0.691316
      16A     -0.643924    17A     -0.629360    18A     -0.604904
      19A     -0.566973    20A     -0.538852    21A     -0.517376
      22A     -0.485985    23A     -0.453627    24A     -0.436039
      25A     -0.430578

  @DF-RHF Final Energy:  -652.11620517015751

   => Energetics <=

    Nuclear Repulsion Energy =            224.4411422328395247
    One-Electron Energy =               -1342.9746050856263082
    Two-Electron Energy =                 466.4172576826291561
    Total Energy =                       -652.1162051701575137
  Basis Set: (AUG-CC-PVTZ AUX)
    Blend: AUG-CC-PVTZ-RI
    Molecular point group: c1

    Geometry (in Angstrom), charge = 0, multiplicity = 1:

       Center              X                  Y                   Z               Mass
    ------------   -----------------  -----------------  -----------------  -----------------
         CL          -1.817385798666    -0.456929134781    -0.071428559530    34.968852682000
         O            2.724029201334    -0.404263134781    -0.171372559530    15.994914619570
         C            0.609456201334     0.813127865219    -0.299923559530    12.000000000000
         C            1.410382201334    -0.294752134781     0.373002440470    12.000000000000
         C           -0.795843798666     0.978373865219     0.251659440470    12.000000000000
         H            0.574200201334     0.623462865219    -1.376743559530     1.007825032230
         H            1.130015201334     1.770274865219    -0.154588559530     1.007825032230
         H            1.440947201334    -0.131251134781     1.461266440470     1.007825032230
         H            0.940872201334    -1.263643134781     0.197184440470     1.007825032230
         H           -0.782729798666     1.120780865219     1.334602440470     1.007825032230
         H           -1.299093798666     1.831379865219    -0.205568559530     1.007825032230
         H            3.248036301334     0.497631865219     0.075432040470     1.007825032230

  Basis Set: AUG-CC-PVTZ
    Blend: AUG-CC-PVTZ
  Basis Set: (AUG-CC-PVTZ AUX)
    Blend: AUG-CC-PVTZ-JKFIT
	 Reference Energy          =    -652.1162051701575137 [Eh]
	 Singles Energy            =      -0.0000000000000000 [Eh]
	 Same-Spin Energy          =      -0.2542104631957728 [Eh]
	 Opposite-Spin Energy      =      -0.8335182766475366 [Eh]
	 Correlation Energy        =      -1.0877287398433095 [Eh]
	 Total Energy              =    -653.2039339100008419 [Eh]

	 ================> DF-SCS-MP2 Energies <==================
	-----------------------------------------------------------
	 SCS Same-Spin Scale       =       0.3333333333333333 [-]
	 SCS Opposite-Spin Scale   =       1.2000000000000000 [-]
	 SCS Same-Spin Energy      =      -0.0847368210652576 [Eh]
	 SCS Opposite-Spin Energy  =      -1.0002219319770440 [Eh]
	 SCS Correlation Energy    =      -1.0849587530423017 [Eh]
	 SCS Total Energy          =    -653.2011639231998288 [Eh]
	-----------------------------------------------------------

  Dipole Moment: [D]
     X:     0.5849      Y:     2.8182      Z:     1.0692     Total:     3.0704

*** Psi4 exiting successfully. Buy a developer a beer!
