                               Psi4 1.3.2 release

  ==> Input File <==

--------------------------------------------------------------------------
#psi4
#
memory 32 gb

molecule  {
0 1
 Cl       -1.8956688    -0.5095886    -0.0233288
  O        2.6551490    -0.4511250    -0.1848070
  C        0.5405760     0.7662660    -0.3133580
  C        1.3415020    -0.3416140     0.3595680
  C       -0.8647240     0.9315120     0.2382250
  H        0.5053200     0.5766010    -1.3901780
  H        1.0611350     1.7234130    -0.1680230
  H        1.3720670    -0.1781130     1.4478320
  H        0.8719920    -1.3105050     0.1837500
  H       -0.8516100     1.0739190     1.3211680
  H       -1.3679740     1.7845180    -0.2190030
  H        3.1302690     0.3666280     0.0389720
units angstrom
no_reorient  #important for SAPT in psi4, default
symmetry c1  #important for SAPT in psi4, default
}

set PROPERTIES_ORIGIN ["COM"]
properties('MP2/aug-cc-pvtz', properties = ['dipole'])
--------------------------------------------------------------------------

    Molecular point group: c1
  Charge       = 0
  Multiplicity = 1
  Basis Set: AUG-CC-PVTZ
    Blend: AUG-CC-PVTZ
  Basis Set: (AUG-CC-PVTZ AUX)
    Blend: AUG-CC-PVTZ-JKFIT

    Orbital Energies [Eh]
    ---------------------

    Doubly Occupied:

       1A   -104.826205     2A    -20.565368     3A    -11.300463
       4A    -11.282603     5A    -11.244009     6A    -10.550678
       7A     -8.017507     8A     -8.015740     9A     -8.015710
      10A     -1.362455    11A     -1.145420    12A     -1.036208
      13A     -0.912836    14A     -0.820451    15A     -0.703640
      16A     -0.646642    17A     -0.632820    18A     -0.609407
      19A     -0.568657    20A     -0.540857    21A     -0.520438
      22A     -0.488603    23A     -0.455647    24A     -0.435840
      25A     -0.431557

  @DF-RHF Final Energy:  -652.12936279955761

   => Energetics <=

    Nuclear Repulsion Energy =            224.7847514259354682
    One-Electron Energy =               -1343.5687063390325875
    Two-Electron Energy =                 466.6545921135395361
    Total Energy =                       -652.1293627995576117
  Basis Set: (AUG-CC-PVTZ AUX)
    Blend: AUG-CC-PVTZ-RI
    Molecular point group: c1

    Geometry (in Angstrom), charge = 0, multiplicity = 1:

       Center              X                  Y                   Z               Mass
    ------------   -----------------  -----------------  -----------------  -----------------
         CL          -1.822767319874    -0.459668446209    -0.032534304177    34.968852682000
         O            2.728050480126    -0.401204846209    -0.194012504177    15.994914619570
         C            0.613477480126     0.816186153791    -0.322563504177    12.000000000000
         C            1.414403480126    -0.291693846209     0.350362495823    12.000000000000
         C           -0.791822519874     0.981432153791     0.229019495823    12.000000000000
         H            0.578221480126     0.626521153791    -1.399383504177     1.007825032230
         H            1.134036480126     1.773333153791    -0.177228504177     1.007825032230
         H            1.444968480126    -0.128192846209     1.438626495823     1.007825032230
         H            0.944893480126    -1.260584846209     0.174544495823     1.007825032230
         H           -0.778708519874     1.123839153791     1.311962495823     1.007825032230
         H           -1.295072519874     1.834438153791    -0.228208504177     1.007825032230
         H            3.203170480126     0.416548153791     0.029766495823     1.007825032230

  Basis Set: AUG-CC-PVTZ
    Blend: AUG-CC-PVTZ
  Basis Set: (AUG-CC-PVTZ AUX)
    Blend: AUG-CC-PVTZ-JKFIT
	 Reference Energy          =    -652.1293627995576117 [Eh]
	 Singles Energy            =      -0.0000000000000000 [Eh]
	 Same-Spin Energy          =      -0.2531288614256291 [Eh]
	 Opposite-Spin Energy      =      -0.8303225526289620 [Eh]
	 Correlation Energy        =      -1.0834514140545912 [Eh]
	 Total Energy              =    -653.2128142136122051 [Eh]

	 ================> DF-SCS-MP2 Energies <==================
	-----------------------------------------------------------
	 SCS Same-Spin Scale       =       0.3333333333333333 [-]
	 SCS Opposite-Spin Scale   =       1.2000000000000000 [-]
	 SCS Same-Spin Energy      =      -0.0843762871418764 [Eh]
	 SCS Opposite-Spin Energy  =      -0.9963870631547544 [Eh]
	 SCS Correlation Energy    =      -1.0807633502966307 [Eh]
	 SCS Total Energy          =    -653.2101261498542044 [Eh]
	-----------------------------------------------------------

  Dipole Moment: [D]
     X:     0.5454      Y:     2.7803      Z:     1.0098     Total:     3.0078

*** Psi4 exiting successfully. Buy a developer a beer!
