                               Psi4 1.3.2 release

  ==> Input File <==

--------------------------------------------------------------------------
#psi4
#
memory 32 gb

molecule  {
0 1
 Cl       -1.8862660    -0.5037910    -0.0848630
  O        2.6551490    -0.4511250    -0.1848070
  C        0.5405760     0.7662660    -0.3133580
  C        1.3223405    -0.4319515     0.3224002
  C       -0.8647240     0.9315120     0.2382250
  H        0.5053200     0.5766010    -1.3901780
  H        1.0611350     1.7234130    -0.1680230
  H        1.3720670    -0.1781130     1.4478320
  H        0.8719920    -1.3105050     0.1837500
  H       -0.8516100     1.0739190     1.3211680
  H       -1.3679740     1.7845180    -0.2190030
  H        3.1302690     0.3666280     0.0389720
units angstrom
no_reorient  #important for SAPT in psi4, default
symmetry c1  #important for SAPT in psi4, default
}

set PROPERTIES_ORIGIN ["COM"]
properties('MP2/aug-cc-pvtz', properties = ['dipole'])
--------------------------------------------------------------------------

    Molecular point group: c1
  Charge       = 0
  Multiplicity = 1
  Basis Set: AUG-CC-PVTZ
    Blend: AUG-CC-PVTZ
  Basis Set: (AUG-CC-PVTZ AUX)
    Blend: AUG-CC-PVTZ-JKFIT

    Orbital Energies [Eh]
    ---------------------

    Doubly Occupied:

       1A   -104.826506     2A    -20.562885     3A    -11.299487
       4A    -11.284209     5A    -11.244840     6A    -10.550996
       7A     -8.017823     8A     -8.016065     9A     -8.016037
      10A     -1.359519    11A     -1.144779    12A     -1.030362
      13A     -0.918392    14A     -0.823574    15A     -0.697302
      16A     -0.655330    17A     -0.628784    18A     -0.605966
      19A     -0.584789    20A     -0.536214    21A     -0.515200
      22A     -0.497410    23A     -0.444522    24A     -0.436507
      25A     -0.427697

  @DF-RHF Final Energy:  -652.11797012048396

   => Energetics <=

    Nuclear Repulsion Energy =            224.7105278337531047
    One-Electron Energy =               -1343.4066084190521906
    Two-Electron Energy =                 466.5781104648150972
    Total Energy =                       -652.1179701204839603
  Basis Set: (AUG-CC-PVTZ AUX)
    Blend: AUG-CC-PVTZ-RI
    Molecular point group: c1

    Geometry (in Angstrom), charge = 0, multiplicity = 1:

       Center              X                  Y                   Z               Mass
    ------------   -----------------  -----------------  -----------------  -----------------
         CL          -1.814416090398    -0.444497008283    -0.066437848512    34.968852682000
         O            2.726998909602    -0.391831008283    -0.166381848512    15.994914619570
         C            0.612425909602     0.825559991717    -0.294932848512    12.000000000000
         C            1.394190409602    -0.372657508283     0.340825351488    12.000000000000
         C           -0.792874090398     0.990805991717     0.256650151488    12.000000000000
         H            0.577169909602     0.635894991717    -1.371752848512     1.007825032230
         H            1.132984909602     1.782706991717    -0.149597848512     1.007825032230
         H            1.443916909602    -0.118819008283     1.466257151488     1.007825032230
         H            0.943841909602    -1.251211008283     0.202175151488     1.007825032230
         H           -0.779760090398     1.133212991717     1.339593151488     1.007825032230
         H           -1.296124090398     1.843811991717    -0.200577848512     1.007825032230
         H            3.202118909602     0.425921991717     0.057397151488     1.007825032230

  Basis Set: AUG-CC-PVTZ
    Blend: AUG-CC-PVTZ
  Basis Set: (AUG-CC-PVTZ AUX)
    Blend: AUG-CC-PVTZ-JKFIT
	 Reference Energy          =    -652.1179701204839603 [Eh]
	 Singles Energy            =      -0.0000000000000000 [Eh]
	 Same-Spin Energy          =      -0.2527963702523201 [Eh]
	 Opposite-Spin Energy      =      -0.8300923228022237 [Eh]
	 Correlation Energy        =      -1.0828886930545438 [Eh]
	 Total Energy              =    -653.2008588135385025 [Eh]

	 ================> DF-SCS-MP2 Energies <==================
	-----------------------------------------------------------
	 SCS Same-Spin Scale       =       0.3333333333333333 [-]
	 SCS Opposite-Spin Scale   =       1.2000000000000000 [-]
	 SCS Same-Spin Energy      =      -0.0842654567507734 [Eh]
	 SCS Opposite-Spin Energy  =      -0.9961107873626683 [Eh]
	 SCS Correlation Energy    =      -1.0803762441134417 [Eh]
	 SCS Total Energy          =    -653.1983463645974552 [Eh]
	-----------------------------------------------------------

  Dipole Moment: [D]
     X:     0.5255      Y:     2.6974      Z:     0.9992     Total:     2.9241

*** Psi4 exiting successfully. Buy a developer a beer!
