                               Psi4 1.3.2 release

  ==> Input File <==

--------------------------------------------------------------------------
#psi4
#
memory 32 gb

molecule  {
0 1
 Cl       -1.8862660    -0.5037910    -0.0848630
  O        2.6551490    -0.4511250    -0.1848070
  C        0.5405760     0.7662660    -0.3133580
  C        1.1572838    -0.3262568     0.4359080
  C       -0.8647240     0.9315120     0.2382250
  H        0.5053200     0.5766010    -1.3901780
  H        1.0611350     1.7234130    -0.1680230
  H        1.3720670    -0.1781130     1.4478320
  H        0.8719920    -1.3105050     0.1837500
  H       -0.8516100     1.0739190     1.3211680
  H       -1.3679740     1.7845180    -0.2190030
  H        3.1302690     0.3666280     0.0389720
units angstrom
no_reorient  #important for SAPT in psi4, default
symmetry c1  #important for SAPT in psi4, default
}

set PROPERTIES_ORIGIN ["COM"]
properties('MP2/aug-cc-pvtz', properties = ['dipole'])
--------------------------------------------------------------------------

    Molecular point group: c1
  Charge       = 0
  Multiplicity = 1
  Basis Set: AUG-CC-PVTZ
    Blend: AUG-CC-PVTZ
  Basis Set: (AUG-CC-PVTZ AUX)
    Blend: AUG-CC-PVTZ-JKFIT

    Orbital Energies [Eh]
    ---------------------

    Doubly Occupied:

       1A   -104.831047     2A    -20.541512     3A    -11.303882
       4A    -11.287378     5A    -11.249918     6A    -10.555554
       7A     -8.022378     8A     -8.020604     9A     -8.020577
      10A     -1.297214    11A     -1.155697    12A     -1.054340
      13A     -0.920705    14A     -0.827749    15A     -0.694663
      16A     -0.653461    17A     -0.624122    18A     -0.595434
      19A     -0.559315    20A     -0.550941    21A     -0.508271
      22A     -0.483837    23A     -0.459513    24A     -0.441205
      25A     -0.434279

  @DF-RHF Final Energy:  -652.09760556208118

   => Energetics <=

    Nuclear Repulsion Energy =            224.9622628752373430
    One-Electron Energy =               -1343.9325440014936248
    Two-Electron Energy =                 466.8726755641752106
    Total Energy =                       -652.0976055620811849
  Basis Set: (AUG-CC-PVTZ AUX)
    Blend: AUG-CC-PVTZ-RI
    Molecular point group: c1

    Geometry (in Angstrom), charge = 0, multiplicity = 1:

       Center              X                  Y                   Z               Mass
    ------------   -----------------  -----------------  -----------------  -----------------
         CL          -1.793349177992    -0.457987287604    -0.080925348141    34.968852682000
         O            2.748065822008    -0.405321287604    -0.180869348141    15.994914619570
         C            0.633492822008     0.812069712396    -0.309420348141    12.000000000000
         C            1.250200622008    -0.280453087604     0.439845651859    12.000000000000
         C           -0.771807177992     0.977315712396     0.242162651859    12.000000000000
         H            0.598236822008     0.622404712396    -1.386240348141     1.007825032230
         H            1.154051822008     1.769216712396    -0.164085348141     1.007825032230
         H            1.464983822008    -0.132309287604     1.451769651859     1.007825032230
         H            0.964908822008    -1.264701287604     0.187687651859     1.007825032230
         H           -0.758693177992     1.119722712396     1.325105651859     1.007825032230
         H           -1.275057177992     1.830321712396    -0.215065348141     1.007825032230
         H            3.223185822008     0.412431712396     0.042909651859     1.007825032230

  Basis Set: AUG-CC-PVTZ
    Blend: AUG-CC-PVTZ
  Basis Set: (AUG-CC-PVTZ AUX)
    Blend: AUG-CC-PVTZ-JKFIT
	 Reference Energy          =    -652.0976055620811849 [Eh]
	 Singles Energy            =      -0.0000000000000000 [Eh]
	 Same-Spin Energy          =      -0.2548984119600463 [Eh]
	 Opposite-Spin Energy      =      -0.8356052986302731 [Eh]
	 Correlation Energy        =      -1.0905037105903195 [Eh]
	 Total Energy              =    -653.1881092726714542 [Eh]

	 ================> DF-SCS-MP2 Energies <==================
	-----------------------------------------------------------
	 SCS Same-Spin Scale       =       0.3333333333333333 [-]
	 SCS Opposite-Spin Scale   =       1.2000000000000000 [-]
	 SCS Same-Spin Energy      =      -0.0849661373200154 [Eh]
	 SCS Opposite-Spin Energy  =      -1.0027263583563277 [Eh]
	 SCS Correlation Energy    =      -1.0876924956763432 [Eh]
	 SCS Total Energy          =    -653.1852980577575636 [Eh]
	-----------------------------------------------------------

  Dipole Moment: [D]
     X:    -0.1591      Y:     2.8738      Z:     1.2210     Total:     3.1265

*** Psi4 exiting successfully. Buy a developer a beer!
