                               Psi4 1.3.2 release

  ==> Input File <==

--------------------------------------------------------------------------
#psi4
#
memory 32 gb

molecule  {
0 1
 Cl       -1.8862660    -0.5037910    -0.0848630
  O        2.6551490    -0.4511250    -0.1848070
  C        0.5405760     0.7662660    -0.3133580
  C        1.3415020    -0.3416140     0.3595680
  C       -0.8647240     0.9315120     0.2382250
  H        0.5053200     0.5766010    -1.3901780
  H        1.0611350     1.7234130    -0.1680230
  H        1.3720670    -0.1781130     1.4478320
  H        0.8719920    -1.3105050     0.1837500
  H       -0.8516100     1.0739190     1.3211680
  H       -1.3679740     1.7845180    -0.2190030
  H        3.0324949     0.1983440    -0.0070791
units angstrom
no_reorient  #important for SAPT in psi4, default
symmetry c1  #important for SAPT in psi4, default
}

set PROPERTIES_ORIGIN ["COM"]
properties('MP2/aug-cc-pvtz', properties = ['dipole'])
--------------------------------------------------------------------------

    Molecular point group: c1
  Charge       = 0
  Multiplicity = 1
  Basis Set: AUG-CC-PVTZ
    Blend: AUG-CC-PVTZ
  Basis Set: (AUG-CC-PVTZ AUX)
    Blend: AUG-CC-PVTZ-JKFIT

    Orbital Energies [Eh]
    ---------------------

    Doubly Occupied:

       1A   -104.826987     2A    -20.542918     3A    -11.301614
       4A    -11.284730     5A    -11.244964     6A    -10.551466
       7A     -8.018294     8A     -8.016526     9A     -8.016498
      10A     -1.423951    11A     -1.147262    12A     -1.042498
      13A     -0.927406    14A     -0.828804    15A     -0.732026
      16A     -0.653072    17A     -0.637335    18A     -0.615701
      19A     -0.573371    20A     -0.542799    21A     -0.526822
      22A     -0.492183    23A     -0.460766    24A     -0.437219
      25A     -0.433204

  @DF-RHF Final Energy:  -652.08267648234721

   => Energetics <=

    Nuclear Repulsion Energy =            226.3360303675839305
    One-Electron Energy =               -1346.2805798465926728
    Two-Electron Energy =                 467.8618729966616456
    Total Energy =                       -652.0826764823472104
  Basis Set: (AUG-CC-PVTZ AUX)
    Blend: AUG-CC-PVTZ-RI
    Molecular point group: c1

    Geometry (in Angstrom), charge = 0, multiplicity = 1:

       Center              X                  Y                   Z               Mass
    ------------   -----------------  -----------------  -----------------  -----------------
         CL          -1.815813674438    -0.454223272355    -0.070688096792    34.968852682000
         O            2.725601325562    -0.401557272355    -0.170632096792    15.994914619570
         C            0.611028325562     0.815833727645    -0.299183096792    12.000000000000
         C            1.411954325562    -0.292046272355     0.373742903208    12.000000000000
         C           -0.794271674438     0.981079727645     0.252399903208    12.000000000000
         H            0.575772325562     0.626168727645    -1.376003096792     1.007825032230
         H            1.131587325562     1.772980727645    -0.153848096792     1.007825032230
         H            1.442519325562    -0.128545272355     1.462006903208     1.007825032230
         H            0.942444325562    -1.260937272355     0.197924903208     1.007825032230
         H           -0.781157674438     1.123486727645     1.335342903208     1.007825032230
         H           -1.297521674438     1.834085727645    -0.204828096792     1.007825032230
         H            3.102947225562     0.247911727645     0.007095803208     1.007825032230

  Basis Set: AUG-CC-PVTZ
    Blend: AUG-CC-PVTZ
  Basis Set: (AUG-CC-PVTZ AUX)
    Blend: AUG-CC-PVTZ-JKFIT
	 Reference Energy          =    -652.0826764823472104 [Eh]
	 Singles Energy            =      -0.0000000000000000 [Eh]
	 Same-Spin Energy          =      -0.2509681837016252 [Eh]
	 Opposite-Spin Energy      =      -0.8249487607119149 [Eh]
	 Correlation Energy        =      -1.0759169444135401 [Eh]
	 Total Energy              =    -653.1585934267607172 [Eh]

	 ================> DF-SCS-MP2 Energies <==================
	-----------------------------------------------------------
	 SCS Same-Spin Scale       =       0.3333333333333333 [-]
	 SCS Opposite-Spin Scale   =       1.2000000000000000 [-]
	 SCS Same-Spin Energy      =      -0.0836560612338750 [Eh]
	 SCS Opposite-Spin Energy  =      -0.9899385128542979 [Eh]
	 SCS Correlation Energy    =      -1.0735945740881729 [Eh]
	 SCS Total Energy          =    -653.1562710564353438 [Eh]
	-----------------------------------------------------------

  Dipole Moment: [D]
     X:     0.3858      Y:     2.6747      Z:     1.0439     Total:     2.8970

*** Psi4 exiting successfully. Buy a developer a beer!
