                               Psi4 1.4a3.dev225

  ==> Input File <==

--------------------------------------------------------------------------
#psi4
#
memory 32 gb

molecule  {
0 1
 Cl       -1.8863280    -0.5037310    -0.0848350
  O        2.6552870    -0.4508740    -0.1847800
  C        0.5406420     0.7662540    -0.3132380
  C        1.3598184    -0.3434774     0.3516587
  C       -0.8647190     0.9314930     0.2381990
  H        0.5055580     0.5770700    -1.3901400
  H        1.0611570     1.7233420    -0.1673410
  H        1.3716790    -0.1791760     1.4476590
  H        0.8721100    -1.3108220     0.1827430
  H       -0.8516430     1.0741000     1.3211200
  H       -1.3678240     1.7844860    -0.2192100
  H        3.1303420     0.3666260     0.0401010
units angstrom
no_reorient  #important for SAPT in psi4, default
symmetry c1  #important for SAPT in psi4, default
}

set PROPERTIES_ORIGIN ["COM"]
properties('MP2/aug-cc-pvtz', properties = ['dipole'])
--------------------------------------------------------------------------

    Molecular point group: c1
  Charge       = 0
  Multiplicity = 1
  Basis Set: AUG-CC-PVTZ
    Blend: AUG-CC-PVTZ
  Basis Set: (AUG-CC-PVTZ AUX)
    Blend: AUG-CC-PVTZ-JKFIT

    Orbital Energies [Eh]
    ---------------------

    Doubly Occupied:

       1A   -104.825755     2A    -20.567480     3A    -11.300313
       4A    -11.282915     5A    -11.242974     6A    -10.550237
       7A     -8.017066     8A     -8.015299     9A     -8.015271
      10A     -1.370633    11A     -1.144869    12A     -1.033747
      13A     -0.912048    14A     -0.820251    15A     -0.706200
      16A     -0.647723    17A     -0.632996    18A     -0.610976
      19A     -0.572285    20A     -0.539772    21A     -0.521097
      22A     -0.485766    23A     -0.453088    24A     -0.435935
      25A     -0.430538

  @DF-RHF Final Energy:  -652.12942659740361

   => Energetics <=

    Nuclear Repulsion Energy =            224.9907939297565918
    One-Electron Energy =               -1343.9699732435433361
    Two-Electron Energy =                 466.8497527163831364
    Total Energy =                       -652.1294265974036080
  Basis Set: (AUG-CC-PVTZ AUX)
    Blend: AUG-CC-PVTZ-RI
    Molecular point group: c1

    Geometry (in Angstrom), charge = 0, multiplicity = 1:

       Center              X                  Y                   Z               Mass
    ------------   -----------------  -----------------  -----------------  -----------------
         CL          -1.819272968363    -0.455781456858    -0.070175682576    34.968852682000
         O            2.722342031637    -0.402924456858    -0.170120682576    15.994914619570
         C            0.607697031637     0.814203543142    -0.298578682576    12.000000000000
         C            1.426873431637    -0.295527856858     0.366318017424    12.000000000000
         C           -0.797663968363     0.979442543142     0.252858317424    12.000000000000
         H            0.572613031637     0.625019543142    -1.375480682576     1.007825032230
         H            1.128212031637     1.771291543142    -0.152681682576     1.007825032230
         H            1.438734031637    -0.131226456858     1.462318317424     1.007825032230
         H            0.939165031637    -1.262872456858     0.197402317424     1.007825032230
         H           -0.784587968363     1.122049543142     1.335779317424     1.007825032230
         H           -1.300768968363     1.832435543142    -0.204550682576     1.007825032230
         H            3.197397031637     0.414575543142     0.054760317424     1.007825032230

  Basis Set: AUG-CC-PVTZ
    Blend: AUG-CC-PVTZ
  Basis Set: (AUG-CC-PVTZ AUX)
    Blend: AUG-CC-PVTZ-JKFIT
	 Reference Energy          =    -652.1294265974036080 [Eh]
	 Singles Energy            =      -0.0000000000000000 [Eh]
	 Same-Spin Energy          =      -0.2531100682810144 [Eh]
	 Opposite-Spin Energy      =      -0.8300513358938236 [Eh]
	 Correlation Energy        =      -1.0831614041748381 [Eh]
	 Total Energy              =    -653.2125880015784105 [Eh]

	 ================> DF-SCS-MP2 Energies <==================
	-----------------------------------------------------------
	 SCS Same-Spin Scale       =       0.3333333333333333 [-]
	 SCS Opposite-Spin Scale   =       1.2000000000000000 [-]
	 SCS Same-Spin Energy      =      -0.0843700227603381 [Eh]
	 SCS Opposite-Spin Energy  =      -0.9960616030725883 [Eh]
	 SCS Correlation Energy    =      -1.0804316258329265 [Eh]
	 SCS Total Energy          =    -653.2098582232365516 [Eh]
	-----------------------------------------------------------

  Dipole Moment: [D]
     X:     0.6091      Y:     2.7628      Z:     1.0373     Total:     3.0133

*** Psi4 exiting successfully. Buy a developer a beer!
