                               Psi4 1.4a3.dev225

  ==> Input File <==

--------------------------------------------------------------------------
#psi4
#
memory 32 gb

molecule  {
0 1
 Cl       -1.8863280    -0.5037310    -0.0848350
  O        2.6552870    -0.4508740    -0.1847800
  C        0.5406420     0.7662540    -0.3132380
  C        1.3413940    -0.3419500     0.3592880
  C       -0.8533111     0.9475195     0.2418062
  H        0.5055580     0.5770700    -1.3901400
  H        1.0611570     1.7233420    -0.1673410
  H        1.3716790    -0.1791760     1.4476590
  H        0.8721100    -1.3108220     0.1827430
  H       -0.8516430     1.0741000     1.3211200
  H       -1.3678240     1.7844860    -0.2192100
  H        3.1303420     0.3666260     0.0401010
units angstrom
no_reorient  #important for SAPT in psi4, default
symmetry c1  #important for SAPT in psi4, default
}

set PROPERTIES_ORIGIN ["COM"]
properties('MP2/aug-cc-pvtz', properties = ['dipole'])
--------------------------------------------------------------------------

    Molecular point group: c1
  Charge       = 0
  Multiplicity = 1
  Basis Set: AUG-CC-PVTZ
    Blend: AUG-CC-PVTZ
  Basis Set: (AUG-CC-PVTZ AUX)
    Blend: AUG-CC-PVTZ-JKFIT

    Orbital Energies [Eh]
    ---------------------

    Doubly Occupied:

       1A   -104.824223     2A    -20.565707     3A    -11.301427
       4A    -11.283066     5A    -11.243972     6A    -10.548519
       7A     -8.015306     8A     -8.013592     9A     -8.013564
      10A     -1.362751    11A     -1.142399    12A     -1.035885
      13A     -0.914726    14A     -0.821810    15A     -0.704386
      16A     -0.647043    17A     -0.634949    18A     -0.610621
      19A     -0.568461    20A     -0.541038    21A     -0.517597
      22A     -0.487492    23A     -0.455449    24A     -0.436174
      25A     -0.431784

  @DF-RHF Final Energy:  -652.12961948315092

   => Energetics <=

    Nuclear Repulsion Energy =            224.7511880291218347
    One-Electron Energy =               -1343.5177325687627672
    Two-Electron Energy =                 466.6369250564901563
    Total Energy =                       -652.1296194831509183
  Basis Set: (AUG-CC-PVTZ AUX)
    Blend: AUG-CC-PVTZ-RI
    Molecular point group: c1

    Geometry (in Angstrom), charge = 0, multiplicity = 1:

       Center              X                  Y                   Z               Mass
    ------------   -----------------  -----------------  -----------------  -----------------
         CL          -1.818377421615    -0.458021938303    -0.071609846480    34.968852682000
         O            2.723237578385    -0.405164938303    -0.171554846480    15.994914619570
         C            0.608592578385     0.811963061697    -0.300012846480    12.000000000000
         C            1.409344578385    -0.296240938303     0.372513153520    12.000000000000
         C           -0.785360521615     0.993228561697     0.255031353520    12.000000000000
         H            0.573508578385     0.622779061697    -1.376914846480     1.007825032230
         H            1.129107578385     1.769051061697    -0.154115846480     1.007825032230
         H            1.439629578385    -0.133466938303     1.460884153520     1.007825032230
         H            0.940060578385    -1.265112938303     0.195968153520     1.007825032230
         H           -0.783692421615     1.119809061697     1.334345153520     1.007825032230
         H           -1.299873421615     1.830195061697    -0.205984846480     1.007825032230
         H            3.198292578385     0.412335061697     0.053326153520     1.007825032230

  Basis Set: AUG-CC-PVTZ
    Blend: AUG-CC-PVTZ
  Basis Set: (AUG-CC-PVTZ AUX)
    Blend: AUG-CC-PVTZ-JKFIT
	 Reference Energy          =    -652.1296194831509183 [Eh]
	 Singles Energy            =      -0.0000000000000000 [Eh]
	 Same-Spin Energy          =      -0.2530390912648556 [Eh]
	 Opposite-Spin Energy      =      -0.8302120126184781 [Eh]
	 Correlation Energy        =      -1.0832511038833337 [Eh]
	 Total Energy              =    -653.2128705870342174 [Eh]

	 ================> DF-SCS-MP2 Energies <==================
	-----------------------------------------------------------
	 SCS Same-Spin Scale       =       0.3333333333333333 [-]
	 SCS Opposite-Spin Scale   =       1.2000000000000000 [-]
	 SCS Same-Spin Energy      =      -0.0843463637549519 [Eh]
	 SCS Opposite-Spin Energy  =      -0.9962544151421737 [Eh]
	 SCS Correlation Energy    =      -1.0806007788971255 [Eh]
	 SCS Total Energy          =    -653.2102202620480966 [Eh]
	-----------------------------------------------------------

  Dipole Moment: [D]
     X:     0.5855      Y:     2.8248      Z:     1.0694     Total:     3.0767

*** Psi4 exiting successfully. Buy a developer a beer!
