                               Psi4 1.3.2 release

  ==> Input File <==

--------------------------------------------------------------------------
#psi4
#
memory 32 gb

molecule  {
0 1
 Cl       -1.8810971    -0.5002359    -0.1154872
  O        2.6551490    -0.4511250    -0.1848070
  C        0.5405760     0.7662660    -0.3133580
  C        1.3415020    -0.3416140     0.3595680
  C       -0.8647240     0.9315120     0.2382250
  H        0.5053200     0.5766010    -1.3901780
  H        1.0611350     1.7234130    -0.1680230
  H        1.3720670    -0.1781130     1.4478320
  H        0.8719920    -1.3105050     0.1837500
  H       -0.8516100     1.0739190     1.3211680
  H       -1.3679740     1.7845180    -0.2190030
  H        3.1302690     0.3666280     0.0389720
units angstrom
no_reorient  #important for SAPT in psi4, default
symmetry c1  #important for SAPT in psi4, default
}

set PROPERTIES_ORIGIN ["COM"]
properties('MP2/aug-cc-pvtz', properties = ['dipole'])
--------------------------------------------------------------------------

    Molecular point group: c1
  Charge       = 0
  Multiplicity = 1
  Basis Set: AUG-CC-PVTZ
    Blend: AUG-CC-PVTZ
  Basis Set: (AUG-CC-PVTZ AUX)
    Blend: AUG-CC-PVTZ-JKFIT

    Orbital Energies [Eh]
    ---------------------

    Doubly Occupied:

       1A   -104.826168     2A    -20.565228     3A    -11.300609
       4A    -11.282472     5A    -11.243304     6A    -10.550656
       7A     -8.017484     8A     -8.015717     9A     -8.015689
      10A     -1.362300    11A     -1.145841    12A     -1.035371
      13A     -0.912822    14A     -0.820577    15A     -0.703527
      16A     -0.646768    17A     -0.632871    18A     -0.609060
      19A     -0.569139    20A     -0.539483    21A     -0.520714
      22A     -0.488485    23A     -0.455319    24A     -0.436544
      25A     -0.431251

  @DF-RHF Final Energy:  -652.12941168587554

   => Energetics <=

    Nuclear Repulsion Energy =            225.0629574899896568
    One-Electron Energy =               -1344.1299367119897852
    Two-Electron Energy =                 466.9375675361245612
    Total Energy =                       -652.1294116858755388
  Basis Set: (AUG-CC-PVTZ AUX)
    Blend: AUG-CC-PVTZ-RI
    Molecular point group: c1

    Geometry (in Angstrom), charge = 0, multiplicity = 1:

       Center              X                  Y                   Z               Mass
    ------------   -----------------  -----------------  -----------------  -----------------
         CL          -1.813615355353    -0.453794349256    -0.090415704913    34.968852682000
         O            2.722630744647    -0.404683449256    -0.159735504913    15.994914619570
         C            0.608057744647     0.812707550744    -0.288286504913    12.000000000000
         C            1.408983744647    -0.295172449256     0.384639495087    12.000000000000
         C           -0.797242255353     0.977953550744     0.263296495087    12.000000000000
         H            0.572801744647     0.623042550744    -1.365106504913     1.007825032230
         H            1.128616744647     1.769854550744    -0.142951504913     1.007825032230
         H            1.439548744647    -0.131671449256     1.472903495087     1.007825032230
         H            0.939473744647    -1.264063449256     0.208821495087     1.007825032230
         H           -0.784128255353     1.120360550744     1.346239495087     1.007825032230
         H           -1.300492255353     1.830959550744    -0.193931504913     1.007825032230
         H            3.197750744647     0.413069550744     0.064043495087     1.007825032230

  Basis Set: AUG-CC-PVTZ
    Blend: AUG-CC-PVTZ
  Basis Set: (AUG-CC-PVTZ AUX)
    Blend: AUG-CC-PVTZ-JKFIT
	 Reference Energy          =    -652.1294116858755388 [Eh]
	 Singles Energy            =      -0.0000000000000000 [Eh]
	 Same-Spin Energy          =      -0.2531737813433526 [Eh]
	 Opposite-Spin Energy      =      -0.8303848323605303 [Eh]
	 Correlation Energy        =      -1.0835586137038828 [Eh]
	 Total Energy              =    -653.2129702995794105 [Eh]

	 ================> DF-SCS-MP2 Energies <==================
	-----------------------------------------------------------
	 SCS Same-Spin Scale       =       0.3333333333333333 [-]
	 SCS Opposite-Spin Scale   =       1.2000000000000000 [-]
	 SCS Same-Spin Energy      =      -0.0843912604477842 [Eh]
	 SCS Opposite-Spin Energy  =      -0.9964617988326363 [Eh]
	 SCS Correlation Energy    =      -1.0808530592804204 [Eh]
	 SCS Total Energy          =    -653.2102647451559960 [Eh]
	-----------------------------------------------------------

  Dipole Moment: [D]
     X:     0.5242      Y:     2.7715      Z:     1.0837     Total:     3.0216

*** Psi4 exiting successfully. Buy a developer a beer!
