                               Psi4 1.3.2 release

  ==> Input File <==

--------------------------------------------------------------------------
#psi4
#
memory 32 gb

molecule  {
0 1
 Cl       -1.9101001    -0.4897687    -0.0702853
  O        2.6551490    -0.4511250    -0.1848070
  C        0.5405760     0.7662660    -0.3133580
  C        1.3415020    -0.3416140     0.3595680
  C       -0.8647240     0.9315120     0.2382250
  H        0.5053200     0.5766010    -1.3901780
  H        1.0611350     1.7234130    -0.1680230
  H        1.3720670    -0.1781130     1.4478320
  H        0.8719920    -1.3105050     0.1837500
  H       -0.8516100     1.0739190     1.3211680
  H       -1.3679740     1.7845180    -0.2190030
  H        3.1302690     0.3666280     0.0389720
units angstrom
no_reorient  #important for SAPT in psi4, default
symmetry c1  #important for SAPT in psi4, default
}

set PROPERTIES_ORIGIN ["COM"]
properties('MP2/aug-cc-pvtz', properties = ['dipole'])
--------------------------------------------------------------------------

    Molecular point group: c1
  Charge       = 0
  Multiplicity = 1
  Basis Set: AUG-CC-PVTZ
    Blend: AUG-CC-PVTZ
  Basis Set: (AUG-CC-PVTZ AUX)
    Blend: AUG-CC-PVTZ-JKFIT

    Orbital Energies [Eh]
    ---------------------

    Doubly Occupied:

       1A   -104.826192     2A    -20.565486     3A    -11.300452
       4A    -11.282810     5A    -11.243965     6A    -10.550657
       7A     -8.017487     8A     -8.015720     9A     -8.015690
      10A     -1.362574    11A     -1.145321    12A     -1.036333
      13A     -0.912730    14A     -0.820609    15A     -0.703749
      16A     -0.646567    17A     -0.632912    18A     -0.609608
      19A     -0.568657    20A     -0.540412    21A     -0.520749
      22A     -0.488735    23A     -0.455803    24A     -0.436218
      25A     -0.431181

  @DF-RHF Final Energy:  -652.12953847917720

   => Energetics <=

    Nuclear Repulsion Energy =            224.6159630563577423
    One-Electron Energy =               -1343.2297662911726093
    Two-Electron Energy =                 466.4842647556377528
    Total Energy =                       -652.1295384791771994
  Basis Set: (AUG-CC-PVTZ AUX)
    Blend: AUG-CC-PVTZ-RI
    Molecular point group: c1

    Geometry (in Angstrom), charge = 0, multiplicity = 1:

       Center              X                  Y                   Z               Mass
    ------------   -----------------  -----------------  -----------------  -----------------
         CL          -1.831831104168    -0.447220274643    -0.062026005353    34.968852682000
         O            2.733417995832    -0.408576574643    -0.176547705353    15.994914619570
         C            0.618844995832     0.808814425357    -0.305098705353    12.000000000000
         C            1.419770995832    -0.299065574643     0.367827294647    12.000000000000
         C           -0.786455004168     0.974060425357     0.246484294647    12.000000000000
         H            0.583588995832     0.619149425357    -1.381918705353     1.007825032230
         H            1.139403995832     1.765961425357    -0.159763705353     1.007825032230
         H            1.450335995832    -0.135564574643     1.456091294647     1.007825032230
         H            0.950260995832    -1.267956574643     0.192009294647     1.007825032230
         H           -0.773341004168     1.116467425357     1.329427294647     1.007825032230
         H           -1.289705004168     1.827066425357    -0.210743705353     1.007825032230
         H            3.208537995832     0.409176425357     0.047231294647     1.007825032230

  Basis Set: AUG-CC-PVTZ
    Blend: AUG-CC-PVTZ
  Basis Set: (AUG-CC-PVTZ AUX)
    Blend: AUG-CC-PVTZ-JKFIT
	 Reference Energy          =    -652.1295384791771994 [Eh]
	 Singles Energy            =      -0.0000000000000000 [Eh]
	 Same-Spin Energy          =      -0.2530897348839204 [Eh]
	 Opposite-Spin Energy      =      -0.8302746830363035 [Eh]
	 Correlation Energy        =      -1.0833644179202240 [Eh]
	 Total Energy              =    -653.2129028970974787 [Eh]

	 ================> DF-SCS-MP2 Energies <==================
	-----------------------------------------------------------
	 SCS Same-Spin Scale       =       0.3333333333333333 [-]
	 SCS Opposite-Spin Scale   =       1.2000000000000000 [-]
	 SCS Same-Spin Energy      =      -0.0843632449613068 [Eh]
	 SCS Opposite-Spin Energy  =      -0.9963296196435641 [Eh]
	 SCS Correlation Energy    =      -1.0806928646048710 [Eh]
	 SCS Total Energy          =    -653.2102313437820840 [Eh]
	-----------------------------------------------------------

  Dipole Moment: [D]
     X:     0.5586      Y:     2.7654      Z:     1.0471     Total:     3.0093

*** Psi4 exiting successfully. Buy a developer a beer!
