                               Psi4 1.3.2 release

  ==> Input File <==

--------------------------------------------------------------------------
#psi4
#
memory 32 gb

molecule  {
0 1
 Cl       -1.8862660    -0.5037910    -0.0848630
  O        2.6765252    -0.3099795    -0.1411492
  C        0.5405760     0.7662660    -0.3133580
  C        1.3415020    -0.3416140     0.3595680
  C       -0.8647240     0.9315120     0.2382250
  H        0.5053200     0.5766010    -1.3901780
  H        1.0611350     1.7234130    -0.1680230
  H        1.3720670    -0.1781130     1.4478320
  H        0.8719920    -1.3105050     0.1837500
  H       -0.8516100     1.0739190     1.3211680
  H       -1.3679740     1.7845180    -0.2190030
  H        3.1302690     0.3666280     0.0389720
units angstrom
no_reorient  #important for SAPT in psi4, default
symmetry c1  #important for SAPT in psi4, default
}

set PROPERTIES_ORIGIN ["COM"]
properties('MP2/aug-cc-pvtz', properties = ['dipole'])
--------------------------------------------------------------------------

    Molecular point group: c1
  Charge       = 0
  Multiplicity = 1
  Basis Set: AUG-CC-PVTZ
    Blend: AUG-CC-PVTZ
  Basis Set: (AUG-CC-PVTZ AUX)
    Blend: AUG-CC-PVTZ-JKFIT

    Orbital Energies [Eh]
    ---------------------

    Doubly Occupied:

       1A   -104.826465     2A    -20.544900     3A    -11.299501
       4A    -11.287056     5A    -11.242351     6A    -10.550964
       7A     -8.017792     8A     -8.016032     9A     -8.016004
      10A     -1.392735    11A     -1.146072    12A     -1.040200
      13A     -0.925354    14A     -0.825635    15A     -0.721479
      16A     -0.658945    17A     -0.634803    18A     -0.607277
      19A     -0.578243    20A     -0.540159    21A     -0.515372
      22A     -0.488129    23A     -0.456232    24A     -0.436476
      25A     -0.430854

  @DF-RHF Final Energy:  -652.11194717052217

   => Energetics <=

    Nuclear Repulsion Energy =            225.9037342264943788
    One-Electron Energy =               -1345.6333017337767615
    Two-Electron Energy =                 467.6176203367601829
    Total Energy =                       -652.1119471705221713
  Basis Set: (AUG-CC-PVTZ AUX)
    Blend: AUG-CC-PVTZ-RI
    Molecular point group: c1

    Geometry (in Angstrom), charge = 0, multiplicity = 1:

       Center              X                  Y                   Z               Mass
    ------------   -----------------  -----------------  -----------------  -----------------
         CL          -1.820498385215    -0.480039573947    -0.078609026162    34.968852682000
         O            2.742292814785    -0.286228073947    -0.134895226162    15.994914619570
         C            0.606343614785     0.790017426053    -0.307104026162    12.000000000000
         C            1.407269614785    -0.317862573947     0.365821973838    12.000000000000
         C           -0.798956385215     0.955263426053     0.244478973838    12.000000000000
         H            0.571087614785     0.600352426053    -1.383924026162     1.007825032230
         H            1.126902614785     1.747164426053    -0.161769026162     1.007825032230
         H            1.437834614785    -0.154361573947     1.454085973838     1.007825032230
         H            0.937759614785    -1.286753573947     0.190003973838     1.007825032230
         H           -0.785842385215     1.097670426053     1.327421973838     1.007825032230
         H           -1.302206385215     1.808269426053    -0.212749026162     1.007825032230
         H            3.196036614785     0.390379426053     0.045225973838     1.007825032230

  Basis Set: AUG-CC-PVTZ
    Blend: AUG-CC-PVTZ
  Basis Set: (AUG-CC-PVTZ AUX)
    Blend: AUG-CC-PVTZ-JKFIT
	 Reference Energy          =    -652.1119471705221713 [Eh]
	 Singles Energy            =      -0.0000000000000000 [Eh]
	 Same-Spin Energy          =      -0.2514042804678494 [Eh]
	 Opposite-Spin Energy      =      -0.8259197134249880 [Eh]
	 Correlation Energy        =      -1.0773239938928374 [Eh]
	 Total Energy              =    -653.1892711644150040 [Eh]

	 ================> DF-SCS-MP2 Energies <==================
	-----------------------------------------------------------
	 SCS Same-Spin Scale       =       0.3333333333333333 [-]
	 SCS Opposite-Spin Scale   =       1.2000000000000000 [-]
	 SCS Same-Spin Energy      =      -0.0838014268226164 [Eh]
	 SCS Opposite-Spin Energy  =      -0.9911036561099856 [Eh]
	 SCS Correlation Energy    =      -1.0749050829326021 [Eh]
	 SCS Total Energy          =    -653.1868522534547310 [Eh]
	-----------------------------------------------------------

  Dipole Moment: [D]
     X:     0.4554      Y:     2.5740      Z:     1.0381     Total:     2.8126

*** Psi4 exiting successfully. Buy a developer a beer!
