                               Psi4 1.3.2 release

  ==> Input File <==

--------------------------------------------------------------------------
#psi4
#
memory 32 gb

molecule  {
0 1
 Cl       -1.8862660    -0.5037910    -0.0848630
  O        2.6597195    -0.4276424    -0.1779327
  C        0.5405760     0.7662660    -0.3133580
  C        1.3415020    -0.3416140     0.3595680
  C       -0.8647240     0.9315120     0.2382250
  H        0.5053200     0.5766010    -1.3901780
  H        1.0611350     1.7234130    -0.1680230
  H        1.3720670    -0.1781130     1.4478320
  H        0.8719920    -1.3105050     0.1837500
  H       -0.8516100     1.0739190     1.3211680
  H       -1.3679740     1.7845180    -0.2190030
  H        3.1302690     0.3666280     0.0389720
units angstrom
no_reorient  #important for SAPT in psi4, default
symmetry c1  #important for SAPT in psi4, default
}

set PROPERTIES_ORIGIN ["COM"]
properties('MP2/aug-cc-pvtz', properties = ['dipole'])
--------------------------------------------------------------------------

    Molecular point group: c1
  Charge       = 0
  Multiplicity = 1
  Basis Set: AUG-CC-PVTZ
    Blend: AUG-CC-PVTZ
  Basis Set: (AUG-CC-PVTZ AUX)
    Blend: AUG-CC-PVTZ-JKFIT

    Orbital Energies [Eh]
    ---------------------

    Doubly Occupied:

       1A   -104.826216     2A    -20.562111     3A    -11.300379
       4A    -11.283060     5A    -11.243315     6A    -10.550701
       7A     -8.017529     8A     -8.015763     9A     -8.015736
      10A     -1.366623    11A     -1.145716    12A     -1.036173
      13A     -0.914502    14A     -0.821316    15A     -0.706182
      16A     -0.648525    17A     -0.633521    18A     -0.608972
      19A     -0.570660    20A     -0.539996    21A     -0.519902
      22A     -0.488778    23A     -0.455492    24A     -0.436361
      25A     -0.431297

  @DF-RHF Final Energy:  -652.13060970298955

   => Energetics <=

    Nuclear Repulsion Energy =            225.1041648323316906
    One-Electron Energy =               -1344.1918944388150976
    Two-Electron Energy =                 466.9571199034938900
    Total Energy =                       -652.1306097029895454
  Basis Set: (AUG-CC-PVTZ AUX)
    Blend: AUG-CC-PVTZ-RI
    Molecular point group: c1

    Geometry (in Angstrom), charge = 0, multiplicity = 1:

       Center              X                  Y                   Z               Mass
    ------------   -----------------  -----------------  -----------------  -----------------
         CL          -1.817639313702    -0.460022160480    -0.072351229284    34.968852682000
         O            2.728346186298    -0.383873560480    -0.165420929284    15.994914619570
         C            0.609202686298     0.810034839520    -0.300846229284    12.000000000000
         C            1.410128686298    -0.297845160480     0.372079770716    12.000000000000
         C           -0.796097313702     0.975280839520     0.250736770716    12.000000000000
         H            0.573946686298     0.620369839520    -1.377666229284     1.007825032230
         H            1.129761686298     1.767181839520    -0.155511229284     1.007825032230
         H            1.440693686298    -0.134344160480     1.460343770716     1.007825032230
         H            0.940618686298    -1.266736160480     0.196261770716     1.007825032230
         H           -0.782983313702     1.117687839520     1.333679770716     1.007825032230
         H           -1.299347313702     1.828286839520    -0.206491229284     1.007825032230
         H            3.198895686298     0.410396839520     0.051483770716     1.007825032230

  Basis Set: AUG-CC-PVTZ
    Blend: AUG-CC-PVTZ
  Basis Set: (AUG-CC-PVTZ AUX)
    Blend: AUG-CC-PVTZ-JKFIT
	 Reference Energy          =    -652.1306097029895454 [Eh]
	 Singles Energy            =      -0.0000000000000000 [Eh]
	 Same-Spin Energy          =      -0.2528276556664044 [Eh]
	 Opposite-Spin Energy      =      -0.8294982023894856 [Eh]
	 Correlation Energy        =      -1.0823258580558899 [Eh]
	 Total Energy              =    -653.2129355610454695 [Eh]

	 ================> DF-SCS-MP2 Energies <==================
	-----------------------------------------------------------
	 SCS Same-Spin Scale       =       0.3333333333333333 [-]
	 SCS Opposite-Spin Scale   =       1.2000000000000000 [-]
	 SCS Same-Spin Energy      =      -0.0842758852221348 [Eh]
	 SCS Opposite-Spin Energy  =      -0.9953978428673826 [Eh]
	 SCS Correlation Energy    =      -1.0796737280895174 [Eh]
	 SCS Total Energy          =    -653.2102834310791195 [Eh]
	-----------------------------------------------------------

  Dipole Moment: [D]
     X:     0.5209      Y:     2.7449      Z:     1.0561     Total:     2.9868

*** Psi4 exiting successfully. Buy a developer a beer!
