                               Psi4 1.4a3.dev225

  ==> Input File <==

--------------------------------------------------------------------------
#psi4
#
memory 32 gb

molecule  {
0 1
 Cl       -1.8863280    -0.5037310    -0.0848350
  O        2.6552870    -0.4508740    -0.1847800
  C        0.5406420     0.7662540    -0.3132380
  C        1.2953329    -0.3381315     0.3783614
  C       -0.8647190     0.9314930     0.2381990
  H        0.5055580     0.5770700    -1.3901400
  H        1.0611570     1.7233420    -0.1673410
  H        1.3716790    -0.1791760     1.4476590
  H        0.8721100    -1.3108220     0.1827430
  H       -0.8516430     1.0741000     1.3211200
  H       -1.3678240     1.7844860    -0.2192100
  H        3.1303420     0.3666260     0.0401010
units angstrom
no_reorient  #important for SAPT in psi4, default
symmetry c1  #important for SAPT in psi4, default
}

set PROPERTIES_ORIGIN ["COM"]
properties('MP2/aug-cc-pvtz', properties = ['dipole'])
--------------------------------------------------------------------------

    Molecular point group: c1
  Charge       = 0
  Multiplicity = 1
  Basis Set: AUG-CC-PVTZ
    Blend: AUG-CC-PVTZ
  Basis Set: (AUG-CC-PVTZ AUX)
    Blend: AUG-CC-PVTZ-JKFIT

    Orbital Energies [Eh]
    ---------------------

    Doubly Occupied:

       1A   -104.827279     2A    -20.559700     3A    -11.301212
       4A    -11.282241     5A    -11.244975     6A    -10.551764
       7A     -8.018592     8A     -8.016824     9A     -8.016796
      10A     -1.343255    11A     -1.147846    12A     -1.040434
      13A     -0.914847    14A     -0.821716    15A     -0.698386
      16A     -0.645655    17A     -0.632027    18A     -0.605070
      19A     -0.562252    20A     -0.541302    21A     -0.517155
      22A     -0.494405    23A     -0.459773    24A     -0.437438
      25A     -0.432893

  @DF-RHF Final Energy:  -652.12653259960769

   => Energetics <=

    Nuclear Repulsion Energy =            224.9272329194110114
    One-Electron Energy =               -1343.8798603837296923
    Two-Electron Energy =                 466.8260948647110808
    Total Energy =                       -652.1265325996076854
  Basis Set: (AUG-CC-PVTZ AUX)
    Blend: AUG-CC-PVTZ-RI
    Molecular point group: c1

    Geometry (in Angstrom), charge = 0, multiplicity = 1:

       Center              X                  Y                   Z               Mass
    ------------   -----------------  -----------------  -----------------  -----------------
         CL          -1.811042400443    -0.456463777582    -0.073583865594    34.968852682000
         O            2.730572599557    -0.403606777582    -0.173528865594    15.994914619570
         C            0.615927599557     0.813521222418    -0.301986865594    12.000000000000
         C            1.370618499557    -0.290864277582     0.389612534406    12.000000000000
         C           -0.789433400443     0.978760222418     0.249450134406    12.000000000000
         H            0.580843599557     0.624337222418    -1.378888865594     1.007825032230
         H            1.136442599557     1.770609222418    -0.156089865594     1.007825032230
         H            1.446964599557    -0.131908777582     1.458910134406     1.007825032230
         H            0.947395599557    -1.263554777582     0.193994134406     1.007825032230
         H           -0.776357400443     1.121367222418     1.332371134406     1.007825032230
         H           -1.292538400443     1.831753222418    -0.207958865594     1.007825032230
         H            3.205627599557     0.413893222418     0.051352134406     1.007825032230

  Basis Set: AUG-CC-PVTZ
    Blend: AUG-CC-PVTZ
  Basis Set: (AUG-CC-PVTZ AUX)
    Blend: AUG-CC-PVTZ-JKFIT
	 Reference Energy          =    -652.1265325996076854 [Eh]
	 Singles Energy            =      -0.0000000000000000 [Eh]
	 Same-Spin Energy          =      -0.2533774277861123 [Eh]
	 Opposite-Spin Energy      =      -0.8313130906654911 [Eh]
	 Correlation Energy        =      -1.0846905184516034 [Eh]
	 Total Energy              =    -653.2112231180592516 [Eh]

	 ================> DF-SCS-MP2 Energies <==================
	-----------------------------------------------------------
	 SCS Same-Spin Scale       =       0.3333333333333333 [-]
	 SCS Opposite-Spin Scale   =       1.2000000000000000 [-]
	 SCS Same-Spin Energy      =      -0.0844591425953708 [Eh]
	 SCS Opposite-Spin Energy  =      -0.9975757087985893 [Eh]
	 SCS Correlation Energy    =      -1.0820348513939599 [Eh]
	 SCS Total Energy          =    -653.2085674510016133 [Eh]
	-----------------------------------------------------------

  Dipole Moment: [D]
     X:     0.3448      Y:     2.8002      Z:     1.1121     Total:     3.0326

*** Psi4 exiting successfully. Buy a developer a beer!
