                               Psi4 1.3.2 release

  ==> Input File <==

--------------------------------------------------------------------------
#psi4
#
memory 32 gb

molecule  {
0 1
 Cl       -1.8862660    -0.5037910    -0.0848630
  O        2.6551490    -0.4511250    -0.1848070
  C        0.5405760     0.7662660    -0.3133580
  C        1.3670634    -0.2518100     0.3940837
  C       -0.8647240     0.9315120     0.2382250
  H        0.5053200     0.5766010    -1.3901780
  H        1.0611350     1.7234130    -0.1680230
  H        1.3720670    -0.1781130     1.4478320
  H        0.8719920    -1.3105050     0.1837500
  H       -0.8516100     1.0739190     1.3211680
  H       -1.3679740     1.7845180    -0.2190030
  H        3.1302690     0.3666280     0.0389720
units angstrom
no_reorient  #important for SAPT in psi4, default
symmetry c1  #important for SAPT in psi4, default
}

set PROPERTIES_ORIGIN ["COM"]
properties('MP2/aug-cc-pvtz', properties = ['dipole'])
--------------------------------------------------------------------------

    Molecular point group: c1
  Charge       = 0
  Multiplicity = 1
  Basis Set: AUG-CC-PVTZ
    Blend: AUG-CC-PVTZ
  Basis Set: (AUG-CC-PVTZ AUX)
    Blend: AUG-CC-PVTZ-JKFIT

    Orbital Energies [Eh]
    ---------------------

    Doubly Occupied:

       1A   -104.825717     2A    -20.569204     3A    -11.301712
       4A    -11.284038     5A    -11.243684     6A    -10.550182
       7A     -8.017012     8A     -8.015236     9A     -8.015206
      10A     -1.366605    11A     -1.146513    12A     -1.041343
      13A     -0.910868    14A     -0.819922    15A     -0.707747
      16A     -0.645375    17A     -0.637789    18A     -0.612467
      19A     -0.561982    20A     -0.542782    21A     -0.523797
      22A     -0.468612    23A     -0.466446    24A     -0.436087
      25A     -0.430083

  @DF-RHF Final Energy:  -652.11713338226696

   => Energetics <=

    Nuclear Repulsion Energy =            225.1266595180260310
    One-Electron Energy =               -1344.2067692945579438
    Two-Electron Energy =                 466.9629763942650698
    Total Energy =                       -652.1171333822669567
  Basis Set: (AUG-CC-PVTZ AUX)
    Blend: AUG-CC-PVTZ-RI
    Molecular point group: c1

    Geometry (in Angstrom), charge = 0, multiplicity = 1:

       Center              X                  Y                   Z               Mass
    ------------   -----------------  -----------------  -----------------  -----------------
         CL          -1.820124270780    -0.467489260044    -0.075587128823    34.968852682000
         O            2.721290729220    -0.414823260044    -0.175531128823    15.994914619570
         C            0.606717729220     0.802567739956    -0.304082128823    12.000000000000
         C            1.433205129220    -0.215508260044     0.403359571177    12.000000000000
         C           -0.798582270780     0.967813739956     0.247500871177    12.000000000000
         H            0.571461729220     0.612902739956    -1.380902128823     1.007825032230
         H            1.127276729220     1.759714739956    -0.158747128823     1.007825032230
         H            1.438208729220    -0.141811260044     1.457107871177     1.007825032230
         H            0.938133729220    -1.274203260044     0.193025871177     1.007825032230
         H           -0.785468270780     1.110220739956     1.330443871177     1.007825032230
         H           -1.301832270780     1.820819739956    -0.209727128823     1.007825032230
         H            3.196410729220     0.402929739956     0.048247871177     1.007825032230

  Basis Set: AUG-CC-PVTZ
    Blend: AUG-CC-PVTZ
  Basis Set: (AUG-CC-PVTZ AUX)
    Blend: AUG-CC-PVTZ-JKFIT
	 Reference Energy          =    -652.1171333822669567 [Eh]
	 Singles Energy            =      -0.0000000000000000 [Eh]
	 Same-Spin Energy          =      -0.2539332075981018 [Eh]
	 Opposite-Spin Energy      =      -0.8318391118596626 [Eh]
	 Correlation Energy        =      -1.0857723194577644 [Eh]
	 Total Energy              =    -653.2029057017247169 [Eh]

	 ================> DF-SCS-MP2 Energies <==================
	-----------------------------------------------------------
	 SCS Same-Spin Scale       =       0.3333333333333333 [-]
	 SCS Opposite-Spin Scale   =       1.2000000000000000 [-]
	 SCS Same-Spin Energy      =      -0.0846444025327006 [Eh]
	 SCS Opposite-Spin Energy  =      -0.9982069342315951 [Eh]
	 SCS Correlation Energy    =      -1.0828513367642958 [Eh]
	 SCS Total Energy          =    -653.1999847190312494 [Eh]
	-----------------------------------------------------------

  Dipole Moment: [D]
     X:     0.5722      Y:     2.8667      Z:     1.0947     Total:     3.1215

*** Psi4 exiting successfully. Buy a developer a beer!
