                               Psi4 1.4a3.dev225

  ==> Input File <==

--------------------------------------------------------------------------
#psi4
#
memory 32 gb

molecule  {
0 1
 Cl       -1.8863280    -0.5037310    -0.0848350
  O        2.6552870    -0.4508740    -0.1847800
  C        0.5406420     0.7662540    -0.3132380
  C        1.3413940    -0.3419500     0.3592880
  C       -0.8932386     0.8914267     0.2291811
  H        0.5055580     0.5770700    -1.3901400
  H        1.0611570     1.7233420    -0.1673410
  H        1.3716790    -0.1791760     1.4476590
  H        0.8721100    -1.3108220     0.1827430
  H       -0.8516430     1.0741000     1.3211200
  H       -1.3678240     1.7844860    -0.2192100
  H        3.1303420     0.3666260     0.0401010
units angstrom
no_reorient  #important for SAPT in psi4, default
symmetry c1  #important for SAPT in psi4, default
}

set PROPERTIES_ORIGIN ["COM"]
properties('MP2/aug-cc-pvtz', properties = ['dipole'])
--------------------------------------------------------------------------

    Molecular point group: c1
  Charge       = 0
  Multiplicity = 1
  Basis Set: AUG-CC-PVTZ
    Blend: AUG-CC-PVTZ
  Basis Set: (AUG-CC-PVTZ AUX)
    Blend: AUG-CC-PVTZ-JKFIT

    Orbital Energies [Eh]
    ---------------------

    Doubly Occupied:

       1A   -104.830616     2A    -20.564242     3A    -11.299024
       4A    -11.281244     5A    -11.242731     6A    -10.555693
       7A     -8.022639     8A     -8.020719     9A     -8.020690
      10A     -1.361335    11A     -1.155479    12A     -1.034571
      13A     -0.907978    14A     -0.817417    15A     -0.701686
      16A     -0.646247    17A     -0.627748    18A     -0.606841
      19A     -0.570747    20A     -0.538203    21A     -0.528085
      22A     -0.489856    23A     -0.455540    24A     -0.435629
      25A     -0.429163

  @DF-RHF Final Energy:  -652.12666182299245

   => Energetics <=

    Nuclear Repulsion Energy =            225.5211381449096848
    One-Electron Energy =               -1345.0073525696259367
    Two-Electron Energy =                 467.3595526017238058
    Total Energy =                       -652.1266618229924461
  Basis Set: (AUG-CC-PVTZ AUX)
    Blend: AUG-CC-PVTZ-RI
    Molecular point group: c1

    Geometry (in Angstrom), charge = 0, multiplicity = 1:

       Center              X                  Y                   Z               Mass
    ------------   -----------------  -----------------  -----------------  -----------------
         CL          -1.813281299221    -0.450862567589    -0.069998449452    34.968852682000
         O            2.728333700779    -0.398005567589    -0.169943449452    15.994914619570
         C            0.613688700779     0.819122432411    -0.298401449452    12.000000000000
         C            1.414440700779    -0.289081567589     0.374124550548    12.000000000000
         C           -0.820191899221     0.944295132411     0.244017650548    12.000000000000
         H            0.578604700779     0.629938432411    -1.375303449452     1.007825032230
         H            1.134203700779     1.776210432411    -0.152504449452     1.007825032230
         H            1.444725700779    -0.126307567589     1.462495550548     1.007825032230
         H            0.945156700779    -1.257953567589     0.197579550548     1.007825032230
         H           -0.778596299221     1.126968432411     1.335956550548     1.007825032230
         H           -1.294777299221     1.837354432411    -0.204373449452     1.007825032230
         H            3.203388700779     0.419494432411     0.054937550548     1.007825032230

  Basis Set: AUG-CC-PVTZ
    Blend: AUG-CC-PVTZ
  Basis Set: (AUG-CC-PVTZ AUX)
    Blend: AUG-CC-PVTZ-JKFIT
	 Reference Energy          =    -652.1266618229924461 [Eh]
	 Singles Energy            =      -0.0000000000000000 [Eh]
	 Same-Spin Energy          =      -0.2535358002873624 [Eh]
	 Opposite-Spin Energy      =      -0.8308457303436045 [Eh]
	 Correlation Energy        =      -1.0843815306309670 [Eh]
	 Total Energy              =    -653.2110433536233813 [Eh]

	 ================> DF-SCS-MP2 Energies <==================
	-----------------------------------------------------------
	 SCS Same-Spin Scale       =       0.3333333333333333 [-]
	 SCS Opposite-Spin Scale   =       1.2000000000000000 [-]
	 SCS Same-Spin Energy      =      -0.0845119334291208 [Eh]
	 SCS Opposite-Spin Energy  =      -0.9970148764123254 [Eh]
	 SCS Correlation Energy    =      -1.0815268098414463 [Eh]
	 SCS Total Energy          =    -653.2081886328338669 [Eh]
	-----------------------------------------------------------

  Dipole Moment: [D]
     X:     0.4017      Y:     2.6485      Z:     1.0374     Total:     2.8727

*** Psi4 exiting successfully. Buy a developer a beer!
