                               Psi4 1.3.2 release

  ==> Input File <==

--------------------------------------------------------------------------
#psi4
#
memory 32 gb

molecule  {
0 1
 Cl       -1.8862660    -0.5037910    -0.0848630
  O        2.6500289    -0.4323810    -0.2003641
  C        0.5405760     0.7662660    -0.3133580
  C        1.3415020    -0.3416140     0.3595680
  C       -0.8647240     0.9315120     0.2382250
  H        0.5053200     0.5766010    -1.3901780
  H        1.0611350     1.7234130    -0.1680230
  H        1.3720670    -0.1781130     1.4478320
  H        0.8719920    -1.3105050     0.1837500
  H       -0.8516100     1.0739190     1.3211680
  H       -1.3679740     1.7845180    -0.2190030
  H        3.1302690     0.3666280     0.0389720
units angstrom
no_reorient  #important for SAPT in psi4, default
symmetry c1  #important for SAPT in psi4, default
}

set PROPERTIES_ORIGIN ["COM"]
properties('MP2/aug-cc-pvtz', properties = ['dipole'])
--------------------------------------------------------------------------

    Molecular point group: c1
  Charge       = 0
  Multiplicity = 1
  Basis Set: AUG-CC-PVTZ
    Blend: AUG-CC-PVTZ
  Basis Set: (AUG-CC-PVTZ AUX)
    Blend: AUG-CC-PVTZ-JKFIT

    Orbital Energies [Eh]
    ---------------------

    Doubly Occupied:

       1A   -104.825987     2A    -20.564046     3A    -11.300064
       4A    -11.282825     5A    -11.242870     6A    -10.550473
       7A     -8.017301     8A     -8.015535     9A     -8.015508
      10A     -1.364179    11A     -1.145415    12A     -1.035550
      13A     -0.913390    14A     -0.820428    15A     -0.705229
      16A     -0.647076    17A     -0.633587    18A     -0.608314
      19A     -0.569231    20A     -0.539704    21A     -0.520242
      22A     -0.488568    23A     -0.456014    24A     -0.436125
      25A     -0.430836

  @DF-RHF Final Energy:  -652.12999817941909

   => Energetics <=

    Nuclear Repulsion Energy =            225.1168532365493604
    One-Electron Energy =               -1344.2367111526336885
    Two-Electron Energy =                 466.9898597366652666
    Total Energy =                       -652.1299981794190899
  Basis Set: (AUG-CC-PVTZ AUX)
    Blend: AUG-CC-PVTZ-RI
    Molecular point group: c1

    Geometry (in Angstrom), charge = 0, multiplicity = 1:

       Center              X                  Y                   Z               Mass
    ------------   -----------------  -----------------  -----------------  -----------------
         CL          -1.815990699339    -0.459216005647    -0.068535084956    34.968852682000
         O            2.720304200661    -0.387806005647    -0.184036184956    15.994914619570
         C            0.610851300661     0.810840994353    -0.297030084956    12.000000000000
         C            1.411777300661    -0.297039005647     0.375895915044    12.000000000000
         C           -0.794448699339     0.976086994353     0.254552915044    12.000000000000
         H            0.575595300661     0.621175994353    -1.373850084956     1.007825032230
         H            1.131410300661     1.767987994353    -0.151695084956     1.007825032230
         H            1.442342300661    -0.133538005647     1.464159915044     1.007825032230
         H            0.942267300661    -1.265930005647     0.200077915044     1.007825032230
         H           -0.781334699339     1.118493994353     1.337495915044     1.007825032230
         H           -1.297698699339     1.829092994353    -0.202675084956     1.007825032230
         H            3.200544300661     0.411202994353     0.055299915044     1.007825032230

  Basis Set: AUG-CC-PVTZ
    Blend: AUG-CC-PVTZ
  Basis Set: (AUG-CC-PVTZ AUX)
    Blend: AUG-CC-PVTZ-JKFIT
	 Reference Energy          =    -652.1299981794190899 [Eh]
	 Singles Energy            =      -0.0000000000000000 [Eh]
	 Same-Spin Energy          =      -0.2530356264341795 [Eh]
	 Opposite-Spin Energy      =      -0.8300194904210692 [Eh]
	 Correlation Energy        =      -1.0830551168552487 [Eh]
	 Total Energy              =    -653.2130532962743246 [Eh]

	 ================> DF-SCS-MP2 Energies <==================
	-----------------------------------------------------------
	 SCS Same-Spin Scale       =       0.3333333333333333 [-]
	 SCS Opposite-Spin Scale   =       1.2000000000000000 [-]
	 SCS Same-Spin Energy      =      -0.0843452088113932 [Eh]
	 SCS Opposite-Spin Energy  =      -0.9960233885052829 [Eh]
	 SCS Correlation Energy    =      -1.0803685973166761 [Eh]
	 SCS Total Energy          =    -653.2103667767357820 [Eh]
	-----------------------------------------------------------

  Dipole Moment: [D]
     X:     0.5548      Y:     2.7389      Z:     1.1017     Total:     3.0039

*** Psi4 exiting successfully. Buy a developer a beer!
