                               Psi4 1.3.2 release

  ==> Input File <==

--------------------------------------------------------------------------
#psi4
#
memory 32 gb

molecule  {
0 1
 Cl       -1.8506434    -0.4759448    -0.2668065
  O        2.6551490    -0.4511250    -0.1848070
  C        0.5405760     0.7662660    -0.3133580
  C        1.3415020    -0.3416140     0.3595680
  C       -0.8647240     0.9315120     0.2382250
  H        0.5053200     0.5766010    -1.3901780
  H        1.0611350     1.7234130    -0.1680230
  H        1.3720670    -0.1781130     1.4478320
  H        0.8719920    -1.3105050     0.1837500
  H       -0.8516100     1.0739190     1.3211680
  H       -1.3679740     1.7845180    -0.2190030
  H        3.1302690     0.3666280     0.0389720
units angstrom
no_reorient  #important for SAPT in psi4, default
symmetry c1  #important for SAPT in psi4, default
}

set PROPERTIES_ORIGIN ["COM"]
properties('MP2/aug-cc-pvtz', properties = ['dipole'])
--------------------------------------------------------------------------

    Molecular point group: c1
  Charge       = 0
  Multiplicity = 1
  Basis Set: AUG-CC-PVTZ
    Blend: AUG-CC-PVTZ
  Basis Set: (AUG-CC-PVTZ AUX)
    Blend: AUG-CC-PVTZ-JKFIT

    Orbital Energies [Eh]
    ---------------------

    Doubly Occupied:

       1A   -104.826110     2A    -20.564989     3A    -11.300777
       4A    -11.282277     5A    -11.242067     6A    -10.550642
       7A     -8.017464     8A     -8.015691     9A     -8.015663
      10A     -1.362035    11A     -1.146939    12A     -1.033845
      13A     -0.912745    14A     -0.820818    15A     -0.703365
      16A     -0.647019    17A     -0.633409    18A     -0.608347
      19A     -0.569848    20A     -0.537474    21A     -0.520642
      22A     -0.488436    23A     -0.454882    24A     -0.436749
      25A     -0.430576

  @DF-RHF Final Energy:  -652.12755613314221

   => Energetics <=

    Nuclear Repulsion Energy =            225.5940318495573820
    One-Electron Energy =               -1345.1975524700442293
    Two-Electron Energy =                 467.4759644873447542
    Total Energy =                       -652.1275561331422068
  Basis Set: (AUG-CC-PVTZ AUX)
    Blend: AUG-CC-PVTZ-RI
    Molecular point group: c1

    Geometry (in Angstrom), charge = 0, multiplicity = 1:

       Center              X                  Y                   Z               Mass
    ------------   -----------------  -----------------  -----------------  -----------------
         CL          -1.794488473663    -0.438537976604    -0.185453954735    34.968852682000
         O            2.711303926337    -0.413718176604    -0.103454454735    15.994914619570
         C            0.596730926337     0.803672823396    -0.232005454735    12.000000000000
         C            1.397656926337    -0.304207176604     0.440920545265    12.000000000000
         C           -0.808569073663     0.968918823396     0.319577545265    12.000000000000
         H            0.561474926337     0.614007823396    -1.308825454735     1.007825032230
         H            1.117289926337     1.760819823396    -0.086670454735     1.007825032230
         H            1.428221926337    -0.140706176604     1.529184545265     1.007825032230
         H            0.928146926337    -1.273098176604     0.265102545265     1.007825032230
         H           -0.795455073663     1.111325823396     1.402520545265     1.007825032230
         H           -1.311819073663     1.821924823396    -0.137650454735     1.007825032230
         H            3.186423926337     0.404034823396     0.120324545265     1.007825032230

  Basis Set: AUG-CC-PVTZ
    Blend: AUG-CC-PVTZ
  Basis Set: (AUG-CC-PVTZ AUX)
    Blend: AUG-CC-PVTZ-JKFIT
	 Reference Energy          =    -652.1275561331422068 [Eh]
	 Singles Energy            =      -0.0000000000000000 [Eh]
	 Same-Spin Energy          =      -0.2533373018652078 [Eh]
	 Opposite-Spin Energy      =      -0.8306518712209631 [Eh]
	 Correlation Energy        =      -1.0839891730861708 [Eh]
	 Total Energy              =    -653.2115453062283450 [Eh]

	 ================> DF-SCS-MP2 Energies <==================
	-----------------------------------------------------------
	 SCS Same-Spin Scale       =       0.3333333333333333 [-]
	 SCS Opposite-Spin Scale   =       1.2000000000000000 [-]
	 SCS Same-Spin Energy      =      -0.0844457672884026 [Eh]
	 SCS Opposite-Spin Energy  =      -0.9967822454651556 [Eh]
	 SCS Correlation Energy    =      -1.0812280127535581 [Eh]
	 SCS Total Energy          =    -653.2087841458957200 [Eh]
	-----------------------------------------------------------

  Dipole Moment: [D]
     X:     0.4846      Y:     2.7501      Z:     1.2047     Total:     3.0413

*** Psi4 exiting successfully. Buy a developer a beer!
