                               Psi4 1.3.2 release

  ==> Input File <==

--------------------------------------------------------------------------
#psi4
#
memory 32 gb

molecule  {
0 1
 Cl       -1.8862660    -0.5037910    -0.0848630
  O        2.6716141    -0.5257106    -0.1209685
  C        0.5405760     0.7662660    -0.3133580
  C        1.3415020    -0.3416140     0.3595680
  C       -0.8647240     0.9315120     0.2382250
  H        0.5053200     0.5766010    -1.3901780
  H        1.0611350     1.7234130    -0.1680230
  H        1.3720670    -0.1781130     1.4478320
  H        0.8719920    -1.3105050     0.1837500
  H       -0.8516100     1.0739190     1.3211680
  H       -1.3679740     1.7845180    -0.2190030
  H        3.1302690     0.3666280     0.0389720
units angstrom
no_reorient  #important for SAPT in psi4, default
symmetry c1  #important for SAPT in psi4, default
}

set PROPERTIES_ORIGIN ["COM"]
properties('MP2/aug-cc-pvtz', properties = ['dipole'])
--------------------------------------------------------------------------

    Molecular point group: c1
  Charge       = 0
  Multiplicity = 1
  Basis Set: AUG-CC-PVTZ
    Blend: AUG-CC-PVTZ
  Basis Set: (AUG-CC-PVTZ AUX)
    Blend: AUG-CC-PVTZ-JKFIT

    Orbital Energies [Eh]
    ---------------------

    Doubly Occupied:

       1A   -104.826858     2A    -20.570707     3A    -11.302420
       4A    -11.281252     5A    -11.246229     6A    -10.551328
       7A     -8.018157     8A     -8.016384     9A     -8.016355
      10A     -1.354745    11A     -1.146646    12A     -1.036078
      13A     -0.910436    14A     -0.820452    15A     -0.697060
      16A     -0.646004    17A     -0.628597    18A     -0.612143
      19A     -0.567564    20A     -0.540678    21A     -0.522156
      22A     -0.488241    23A     -0.452601    24A     -0.437224
      25A     -0.433082

  @DF-RHF Final Energy:  -652.12372488358415

   => Energetics <=

    Nuclear Repulsion Energy =            224.3868824626707124
    One-Electron Energy =               -1342.7744216658677487
    Two-Electron Energy =                 466.2638143196129477
    Total Energy =                       -652.1237248835841456
  Basis Set: (AUG-CC-PVTZ AUX)
    Blend: AUG-CC-PVTZ-RI
    Molecular point group: c1

    Geometry (in Angstrom), charge = 0, multiplicity = 1:

       Center              X                  Y                   Z               Mass
    ------------   -----------------  -----------------  -----------------  -----------------
         CL          -1.819662883801    -0.443338297449    -0.082042269911    34.968852682000
         O            2.738217216199    -0.465257897449    -0.118147769911    15.994914619570
         C            0.607179116199     0.826718702551    -0.310537269911    12.000000000000
         C            1.408105116199    -0.281161297449     0.362388730089    12.000000000000
         C           -0.798120883801     0.991964702551     0.241045730089    12.000000000000
         H            0.571923116199     0.637053702551    -1.387357269911     1.007825032230
         H            1.127738116199     1.783865702551    -0.165202269911     1.007825032230
         H            1.438670116199    -0.117660297449     1.450652730089     1.007825032230
         H            0.938595116199    -1.250052297449     0.186570730089     1.007825032230
         H           -0.785006883801     1.134371702551     1.323988730089     1.007825032230
         H           -1.301370883801     1.844970702551    -0.216182269911     1.007825032230
         H            3.196872116199     0.427080702551     0.041792730089     1.007825032230

  Basis Set: AUG-CC-PVTZ
    Blend: AUG-CC-PVTZ
  Basis Set: (AUG-CC-PVTZ AUX)
    Blend: AUG-CC-PVTZ-JKFIT
	 Reference Energy          =    -652.1237248835841456 [Eh]
	 Singles Energy            =      -0.0000000000000000 [Eh]
	 Same-Spin Energy          =      -0.2537685875001560 [Eh]
	 Opposite-Spin Energy      =      -0.8320766335711058 [Eh]
	 Correlation Energy        =      -1.0858452210712619 [Eh]
	 Total Energy              =    -653.2095701046554268 [Eh]

	 ================> DF-SCS-MP2 Energies <==================
	-----------------------------------------------------------
	 SCS Same-Spin Scale       =       0.3333333333333333 [-]
	 SCS Opposite-Spin Scale   =       1.2000000000000000 [-]
	 SCS Same-Spin Energy      =      -0.0845895291667187 [Eh]
	 SCS Opposite-Spin Energy  =      -0.9984919602853269 [Eh]
	 SCS Correlation Energy    =      -1.0830814894520455 [Eh]
	 SCS Total Energy          =    -653.2068063730362155 [Eh]
	-----------------------------------------------------------

  Dipole Moment: [D]
     X:     0.4519      Y:     2.9067      Z:     0.8884     Total:     3.0728

*** Psi4 exiting successfully. Buy a developer a beer!
