                               Psi4 1.3.2 release

  ==> Input File <==

--------------------------------------------------------------------------
#psi4
#
memory 32 gb

molecule  {
0 1
 Cl       -1.9336157    -0.4753135    -0.0556137
  O        2.6551490    -0.4511250    -0.1848070
  C        0.5405760     0.7662660    -0.3133580
  C        1.3415020    -0.3416140     0.3595680
  C       -0.8647240     0.9315120     0.2382250
  H        0.5053200     0.5766010    -1.3901780
  H        1.0611350     1.7234130    -0.1680230
  H        1.3720670    -0.1781130     1.4478320
  H        0.8719920    -1.3105050     0.1837500
  H       -0.8516100     1.0739190     1.3211680
  H       -1.3679740     1.7845180    -0.2190030
  H        3.1302690     0.3666280     0.0389720
units angstrom
no_reorient  #important for SAPT in psi4, default
symmetry c1  #important for SAPT in psi4, default
}

set PROPERTIES_ORIGIN ["COM"]
properties('MP2/aug-cc-pvtz', properties = ['dipole'])
--------------------------------------------------------------------------

    Molecular point group: c1
  Charge       = 0
  Multiplicity = 1
  Basis Set: AUG-CC-PVTZ
    Blend: AUG-CC-PVTZ
  Basis Set: (AUG-CC-PVTZ AUX)
    Blend: AUG-CC-PVTZ-JKFIT

    Orbital Energies [Eh]
    ---------------------

    Doubly Occupied:

       1A   -104.826198     2A    -20.565694     3A    -11.300336
       4A    -11.283098     5A    -11.244390     6A    -10.550648
       7A     -8.017479     8A     -8.015711     9A     -8.015679
      10A     -1.362793    11A     -1.144991    12A     -1.036991
      13A     -0.912636    14A     -0.820683    15A     -0.703935
      16A     -0.646423    17A     -0.632998    18A     -0.610029
      19A     -0.568344    20A     -0.540891    21A     -0.520842
      22A     -0.488948    23A     -0.456170    24A     -0.436062
      25A     -0.430967

  @DF-RHF Final Energy:  -652.12946836250580

   => Energetics <=

    Nuclear Repulsion Energy =            224.2737708765061200
    One-Electron Energy =               -1342.5406068083279933
    Two-Electron Energy =                 466.1373675693160408
    Total Energy =                       -652.1294683625058042
  Basis Set: (AUG-CC-PVTZ AUX)
    Blend: AUG-CC-PVTZ-RI
    Molecular point group: c1

    Geometry (in Angstrom), charge = 0, multiplicity = 1:

       Center              X                  Y                   Z               Mass
    ------------   -----------------  -----------------  -----------------  -----------------
         CL          -1.846600412957    -0.438141479613    -0.052811297209    34.968852682000
         O            2.742164287043    -0.413952979613    -0.182004597209    15.994914619570
         C            0.627591287043     0.803438020387    -0.310555597209    12.000000000000
         C            1.428517287043    -0.304441979613     0.362370402791    12.000000000000
         C           -0.777708712957     0.968684020387     0.241027402791    12.000000000000
         H            0.592335287043     0.613773020387    -1.387375597209     1.007825032230
         H            1.148150287043     1.760585020387    -0.165220597209     1.007825032230
         H            1.459082287043    -0.140940979613     1.450634402791     1.007825032230
         H            0.959007287043    -1.273332979613     0.186552402791     1.007825032230
         H           -0.764594712957     1.111091020387     1.323970402791     1.007825032230
         H           -1.280958712957     1.821690020387    -0.216200597209     1.007825032230
         H            3.217284287043     0.403800020387     0.041774402791     1.007825032230

  Basis Set: AUG-CC-PVTZ
    Blend: AUG-CC-PVTZ
  Basis Set: (AUG-CC-PVTZ AUX)
    Blend: AUG-CC-PVTZ-JKFIT
	 Reference Energy          =    -652.1294683625058042 [Eh]
	 Singles Energy            =      -0.0000000000000000 [Eh]
	 Same-Spin Energy          =      -0.2530320235791353 [Eh]
	 Opposite-Spin Energy      =      -0.8302048940779831 [Eh]
	 Correlation Energy        =      -1.0832369176571184 [Eh]
	 Total Energy              =    -653.2127052801629361 [Eh]

	 ================> DF-SCS-MP2 Energies <==================
	-----------------------------------------------------------
	 SCS Same-Spin Scale       =       0.3333333333333333 [-]
	 SCS Opposite-Spin Scale   =       1.2000000000000000 [-]
	 SCS Same-Spin Energy      =      -0.0843440078597118 [Eh]
	 SCS Opposite-Spin Energy  =      -0.9962458728935797 [Eh]
	 SCS Correlation Energy    =      -1.0805898807532914 [Eh]
	 SCS Total Energy          =    -653.2100582432591409 [Eh]
	-----------------------------------------------------------

  Dipole Moment: [D]
     X:     0.5855      Y:     2.7556      Z:     1.0349     Total:     3.0012

*** Psi4 exiting successfully. Buy a developer a beer!
