                               Psi4 1.3.2 release

  ==> Input File <==

--------------------------------------------------------------------------
#psi4
#
memory 32 gb

molecule  {
0 1
 Cl       -1.8862660    -0.5037910    -0.0848630
  O        2.6551490    -0.4511250    -0.1848070
  C        0.5405760     0.7662660    -0.3133580
  C        1.4336111    -0.3492926     0.3213980
  C       -0.8647240     0.9315120     0.2382250
  H        0.5053200     0.5766010    -1.3901780
  H        1.0611350     1.7234130    -0.1680230
  H        1.3720670    -0.1781130     1.4478320
  H        0.8719920    -1.3105050     0.1837500
  H       -0.8516100     1.0739190     1.3211680
  H       -1.3679740     1.7845180    -0.2190030
  H        3.1302690     0.3666280     0.0389720
units angstrom
no_reorient  #important for SAPT in psi4, default
symmetry c1  #important for SAPT in psi4, default
}

set PROPERTIES_ORIGIN ["COM"]
properties('MP2/aug-cc-pvtz', properties = ['dipole'])
--------------------------------------------------------------------------

    Molecular point group: c1
  Charge       = 0
  Multiplicity = 1
  Basis Set: AUG-CC-PVTZ
    Blend: AUG-CC-PVTZ
  Basis Set: (AUG-CC-PVTZ AUX)
    Blend: AUG-CC-PVTZ-JKFIT

    Orbital Energies [Eh]
    ---------------------

    Doubly Occupied:

       1A   -104.824029     2A    -20.576586     3A    -11.299335
       4A    -11.286140     5A    -11.240661     6A    -10.548510
       7A     -8.015340     8A     -8.013574     9A     -8.013546
      10A     -1.408504    11A     -1.141780    12A     -1.026077
      13A     -0.909194    14A     -0.821117    15A     -0.719084
      16A     -0.655712    17A     -0.634175    18A     -0.618820
      19A     -0.585902    20A     -0.540844    21A     -0.519771
      22A     -0.472655    23A     -0.441693    24A     -0.434244
      25A     -0.424869

  @DF-RHF Final Energy:  -652.12053778059067

   => Energetics <=

    Nuclear Repulsion Energy =            225.1580030430395709
    One-Electron Energy =               -1344.2127530944690079
    Two-Electron Energy =                 466.9342122708387137
    Total Energy =                       -652.1205377805906664
  Basis Set: (AUG-CC-PVTZ AUX)
    Blend: AUG-CC-PVTZ-RI
    Molecular point group: c1

    Geometry (in Angstrom), charge = 0, multiplicity = 1:

       Center              X                  Y                   Z               Mass
    ------------   -----------------  -----------------  -----------------  -----------------
         CL          -1.828618046354    -0.455047127157    -0.066309933319    34.968852682000
         O            2.712796953646    -0.402381127157    -0.166253933319    15.994914619570
         C            0.598223953646     0.815009872843    -0.294804933319    12.000000000000
         C            1.491259053646    -0.300548727157     0.339951066681    12.000000000000
         C           -0.807076046354     0.980255872843     0.256778066681    12.000000000000
         H            0.562967953646     0.625344872843    -1.371624933319     1.007825032230
         H            1.118782953646     1.772156872843    -0.149469933319     1.007825032230
         H            1.429714953646    -0.129369127157     1.466385066681     1.007825032230
         H            0.929639953646    -1.261761127157     0.202303066681     1.007825032230
         H           -0.793962046354     1.122662872843     1.339721066681     1.007825032230
         H           -1.310326046354     1.833261872843    -0.200449933319     1.007825032230
         H            3.187916953646     0.415371872843     0.057525066681     1.007825032230

  Basis Set: AUG-CC-PVTZ
    Blend: AUG-CC-PVTZ
  Basis Set: (AUG-CC-PVTZ AUX)
    Blend: AUG-CC-PVTZ-JKFIT
	 Reference Energy          =    -652.1205377805906664 [Eh]
	 Singles Energy            =      -0.0000000000000000 [Eh]
	 Same-Spin Energy          =      -0.2532048595892990 [Eh]
	 Opposite-Spin Energy      =      -0.8292916204811573 [Eh]
	 Correlation Energy        =      -1.0824964800704564 [Eh]
	 Total Energy              =    -653.2030342606610702 [Eh]

	 ================> DF-SCS-MP2 Energies <==================
	-----------------------------------------------------------
	 SCS Same-Spin Scale       =       0.3333333333333333 [-]
	 SCS Opposite-Spin Scale   =       1.2000000000000000 [-]
	 SCS Same-Spin Energy      =      -0.0844016198630997 [Eh]
	 SCS Opposite-Spin Energy  =      -0.9951499445773888 [Eh]
	 SCS Correlation Energy    =      -1.0795515644404885 [Eh]
	 SCS Total Energy          =    -653.2000893450311878 [Eh]
	-----------------------------------------------------------

  Dipole Moment: [D]
     X:     0.9485      Y:     2.7165      Z:     0.9249     Total:     3.0224

*** Psi4 exiting successfully. Buy a developer a beer!
