                               Psi4 1.3.2 release

  ==> Input File <==

--------------------------------------------------------------------------
#psi4
#
memory 32 gb

molecule  {
0 1
 Cl       -1.8862660    -0.5037910    -0.0848630
  O        2.6551490    -0.4511250    -0.1848070
  C        0.5405760     0.7662660    -0.3133580
  C        1.3361074    -0.3641655     0.3505178
  C       -0.8647240     0.9315120     0.2382250
  H        0.5053200     0.5766010    -1.3901780
  H        1.0611350     1.7234130    -0.1680230
  H        1.3720670    -0.1781130     1.4478320
  H        0.8719920    -1.3105050     0.1837500
  H       -0.8516100     1.0739190     1.3211680
  H       -1.3679740     1.7845180    -0.2190030
  H        3.1302690     0.3666280     0.0389720
units angstrom
no_reorient  #important for SAPT in psi4, default
symmetry c1  #important for SAPT in psi4, default
}

set PROPERTIES_ORIGIN ["COM"]
properties('MP2/aug-cc-pvtz', properties = ['dipole'])
--------------------------------------------------------------------------

    Molecular point group: c1
  Charge       = 0
  Multiplicity = 1
  Basis Set: AUG-CC-PVTZ
    Blend: AUG-CC-PVTZ
  Basis Set: (AUG-CC-PVTZ AUX)
    Blend: AUG-CC-PVTZ-JKFIT

    Orbital Energies [Eh]
    ---------------------

    Doubly Occupied:

       1A   -104.826276     2A    -20.564532     3A    -11.300288
       4A    -11.282644     5A    -11.243738     6A    -10.550762
       7A     -8.017589     8A     -8.015825     9A     -8.015797
      10A     -1.361515    11A     -1.145461    12A     -1.034273
      13A     -0.913809    14A     -0.821101    15A     -0.702170
      16A     -0.648047    17A     -0.631763    18A     -0.608224
      19A     -0.572689    20A     -0.539002    21A     -0.519368
      22A     -0.491861    23A     -0.452453    24A     -0.436412
      25A     -0.431010

  @DF-RHF Final Energy:  -652.12910985872270

   => Energetics <=

    Nuclear Repulsion Energy =            224.9107448058366288
    One-Electron Energy =               -1343.8264896382793268
    Two-Electron Energy =                 466.7866349737199698
    Total Energy =                       -652.1291098587226998
  Basis Set: (AUG-CC-PVTZ AUX)
    Blend: AUG-CC-PVTZ-RI
    Molecular point group: c1

    Geometry (in Angstrom), charge = 0, multiplicity = 1:

       Center              X                  Y                   Z               Mass
    ------------   -----------------  -----------------  -----------------  -----------------
         CL          -1.816173220381    -0.453148833531    -0.070026621438    34.968852682000
         O            2.725241779619    -0.400482833531    -0.169970621438    15.994914619570
         C            0.610668779619     0.816908166469    -0.298521621438    12.000000000000
         C            1.406200179619    -0.313523333531     0.365354178562    12.000000000000
         C           -0.794631220381     0.982154166469     0.253061378562    12.000000000000
         H            0.575412779619     0.627243166469    -1.375341621438     1.007825032230
         H            1.131227779619     1.774055166469    -0.153186621438     1.007825032230
         H            1.442159779619    -0.127470833531     1.462668378562     1.007825032230
         H            0.942084779619    -1.259862833531     0.198586378562     1.007825032230
         H           -0.781517220381     1.124561166469     1.336004378562     1.007825032230
         H           -1.297881220381     1.835160166469    -0.204166621438     1.007825032230
         H            3.200361779619     0.417270166469     0.053808378562     1.007825032230

  Basis Set: AUG-CC-PVTZ
    Blend: AUG-CC-PVTZ
  Basis Set: (AUG-CC-PVTZ AUX)
    Blend: AUG-CC-PVTZ-JKFIT
	 Reference Energy          =    -652.1291098587226998 [Eh]
	 Singles Energy            =      -0.0000000000000000 [Eh]
	 Same-Spin Energy          =      -0.2530237197546508 [Eh]
	 Opposite-Spin Energy      =      -0.8301689522170174 [Eh]
	 Correlation Energy        =      -1.0831926719716680 [Eh]
	 Total Energy              =    -653.2123025306943873 [Eh]

	 ================> DF-SCS-MP2 Energies <==================
	-----------------------------------------------------------
	 SCS Same-Spin Scale       =       0.3333333333333333 [-]
	 SCS Opposite-Spin Scale   =       1.2000000000000000 [-]
	 SCS Same-Spin Energy      =      -0.0843412399182169 [Eh]
	 SCS Opposite-Spin Energy  =      -0.9962027426604207 [Eh]
	 SCS Correlation Energy    =      -1.0805439825786376 [Eh]
	 SCS Total Energy          =    -653.2096538413013604 [Eh]
	-----------------------------------------------------------

  Dipole Moment: [D]
     X:     0.5266      Y:     2.7539      Z:     1.0465     Total:     2.9928

*** Psi4 exiting successfully. Buy a developer a beer!
