                               Psi4 1.3.2 release

  ==> Input File <==

--------------------------------------------------------------------------
#psi4
#
memory 32 gb

molecule  {
0 1
 Cl       -1.8621207    -0.5173761    -0.0993422
  O        2.6551490    -0.4511250    -0.1848070
  C        0.5405760     0.7662660    -0.3133580
  C        1.3415020    -0.3416140     0.3595680
  C       -0.8647240     0.9315120     0.2382250
  H        0.5053200     0.5766010    -1.3901780
  H        1.0611350     1.7234130    -0.1680230
  H        1.3720670    -0.1781130     1.4478320
  H        0.8719920    -1.3105050     0.1837500
  H       -0.8516100     1.0739190     1.3211680
  H       -1.3679740     1.7845180    -0.2190030
  H        3.1302690     0.3666280     0.0389720
units angstrom
no_reorient  #important for SAPT in psi4, default
symmetry c1  #important for SAPT in psi4, default
}

set PROPERTIES_ORIGIN ["COM"]
properties('MP2/aug-cc-pvtz', properties = ['dipole'])
--------------------------------------------------------------------------

    Molecular point group: c1
  Charge       = 0
  Multiplicity = 1
  Basis Set: AUG-CC-PVTZ
    Blend: AUG-CC-PVTZ
  Basis Set: (AUG-CC-PVTZ AUX)
    Blend: AUG-CC-PVTZ-JKFIT

    Orbital Energies [Eh]
    ---------------------

    Doubly Occupied:

       1A   -104.826158     2A    -20.565061     3A    -11.300675
       4A    -11.282213     5A    -11.243121     6A    -10.550661
       7A     -8.017487     8A     -8.015721     9A     -8.015695
      10A     -1.362127    11A     -1.146070    12A     -1.034960
      13A     -0.912936    14A     -0.820458    15A     -0.703377
      16A     -0.646895    17A     -0.632754    18A     -0.608753
      19A     -0.569320    20A     -0.539452    21A     -0.520529
      22A     -0.488299    23A     -0.455031    24A     -0.436474
      25A     -0.431505

  @DF-RHF Final Energy:  -652.12932495812674

   => Energetics <=

    Nuclear Repulsion Energy =            225.3266642093545329
    One-Electron Energy =               -1344.6605161338900416
    Two-Electron Energy =                 467.2045269664088778
    Total Energy =                       -652.1293249581267446
  Basis Set: (AUG-CC-PVTZ AUX)
    Blend: AUG-CC-PVTZ-RI
    Molecular point group: c1

    Geometry (in Angstrom), charge = 0, multiplicity = 1:

       Center              X                  Y                   Z               Mass
    ------------   -----------------  -----------------  -----------------  -----------------
         CL          -1.801696956022    -0.464559496924    -0.080275606833    34.968852682000
         O            2.715572743978    -0.398308396924    -0.165740406833    15.994914619570
         C            0.600999743978     0.819082603076    -0.294291406833    12.000000000000
         C            1.401925743978    -0.288797396924     0.378634593167    12.000000000000
         C           -0.804300256022     0.984328603076     0.257291593167    12.000000000000
         H            0.565743743978     0.629417603076    -1.371111406833     1.007825032230
         H            1.121558743978     1.776229603076    -0.148956406833     1.007825032230
         H            1.432490743978    -0.125296396924     1.466898593167     1.007825032230
         H            0.932415743978    -1.257688396924     0.202816593167     1.007825032230
         H           -0.791186256022     1.126735603076     1.340234593167     1.007825032230
         H           -1.307550256022     1.837334603076    -0.199936406833     1.007825032230
         H            3.190692743978     0.419444603076     0.058038593167     1.007825032230

  Basis Set: AUG-CC-PVTZ
    Blend: AUG-CC-PVTZ
  Basis Set: (AUG-CC-PVTZ AUX)
    Blend: AUG-CC-PVTZ-JKFIT
	 Reference Energy          =    -652.1293249581267446 [Eh]
	 Singles Energy            =      -0.0000000000000000 [Eh]
	 Same-Spin Energy          =      -0.2532262028256475 [Eh]
	 Opposite-Spin Energy      =      -0.8304489458230371 [Eh]
	 Correlation Energy        =      -1.0836751486486844 [Eh]
	 Total Energy              =    -653.2130001067754392 [Eh]

	 ================> DF-SCS-MP2 Energies <==================
	-----------------------------------------------------------
	 SCS Same-Spin Scale       =       0.3333333333333333 [-]
	 SCS Opposite-Spin Scale   =       1.2000000000000000 [-]
	 SCS Same-Spin Energy      =      -0.0844087342752158 [Eh]
	 SCS Opposite-Spin Energy  =      -0.9965387349876444 [Eh]
	 SCS Correlation Energy    =      -1.0809474692628602 [Eh]
	 SCS Total Energy          =    -653.2102724273895547 [Eh]
	-----------------------------------------------------------

  Dipole Moment: [D]
     X:     0.5042      Y:     2.7836      Z:     1.0710     Total:     3.0249

*** Psi4 exiting successfully. Buy a developer a beer!
