                               Psi4 1.3.2 release

  ==> Input File <==

--------------------------------------------------------------------------
#psi4
#
memory 32 gb

molecule  {
0 1
 Cl       -1.8862660    -0.5037910    -0.0848630
  O        2.6445102    -0.4136093    -0.2157506
  C        0.5405760     0.7662660    -0.3133580
  C        1.3415020    -0.3416140     0.3595680
  C       -0.8647240     0.9315120     0.2382250
  H        0.5053200     0.5766010    -1.3901780
  H        1.0611350     1.7234130    -0.1680230
  H        1.3720670    -0.1781130     1.4478320
  H        0.8719920    -1.3105050     0.1837500
  H       -0.8516100     1.0739190     1.3211680
  H       -1.3679740     1.7845180    -0.2190030
  H        3.1302690     0.3666280     0.0389720
units angstrom
no_reorient  #important for SAPT in psi4, default
symmetry c1  #important for SAPT in psi4, default
}

set PROPERTIES_ORIGIN ["COM"]
properties('MP2/aug-cc-pvtz', properties = ['dipole'])
--------------------------------------------------------------------------

    Molecular point group: c1
  Charge       = 0
  Multiplicity = 1
  Basis Set: AUG-CC-PVTZ
    Blend: AUG-CC-PVTZ
  Basis Set: (AUG-CC-PVTZ AUX)
    Blend: AUG-CC-PVTZ-JKFIT

    Orbital Energies [Eh]
    ---------------------

    Doubly Occupied:

       1A   -104.825785     2A    -20.562884     3A    -11.299546
       4A    -11.283125     5A    -11.242199     6A    -10.550274
       7A     -8.017101     8A     -8.015338     9A     -8.015311
      10A     -1.365949    11A     -1.145140    12A     -1.035438
      13A     -0.913920    14A     -0.820269    15A     -0.706885
      16A     -0.647503    17A     -0.634202    18A     -0.607396
      19A     -0.569430    20A     -0.539457    21A     -0.519843
      22A     -0.488630    23A     -0.456548    24A     -0.435889
      25A     -0.430270

  @DF-RHF Final Energy:  -652.13017506975575

   => Energetics <=

    Nuclear Repulsion Energy =            225.2684253157618741
    One-Electron Energy =               -1344.5405389959566946
    Two-Electron Energy =                 467.1419386104388991
    Total Energy =                       -652.1301750697557509
  Basis Set: (AUG-CC-PVTZ AUX)
    Blend: AUG-CC-PVTZ-RI
    Molecular point group: c1

    Geometry (in Angstrom), charge = 0, multiplicity = 1:

       Center              X                  Y                   Z               Mass
    ------------   -----------------  -----------------  -----------------  -----------------
         CL          -1.815051829910    -0.462409543121    -0.065917454995    34.968852682000
         O            2.715724370090    -0.372227843121    -0.196805054995    15.994914619570
         C            0.611790170090     0.807647456879    -0.294412454995    12.000000000000
         C            1.412716170090    -0.300232543121     0.378513545005    12.000000000000
         C           -0.793509829910     0.972893456879     0.257170545005    12.000000000000
         H            0.576534170090     0.617982456879    -1.371232454995     1.007825032230
         H            1.132349170090     1.764794456879    -0.149077454995     1.007825032230
         H            1.443281170090    -0.136731543121     1.466777545005     1.007825032230
         H            0.943206170090    -1.269123543121     0.202695545005     1.007825032230
         H           -0.780395829910     1.115300456879     1.340113545005     1.007825032230
         H           -1.296759829910     1.825899456879    -0.200057454995     1.007825032230
         H            3.201483170090     0.408009456879     0.057917545005     1.007825032230

  Basis Set: AUG-CC-PVTZ
    Blend: AUG-CC-PVTZ
  Basis Set: (AUG-CC-PVTZ AUX)
    Blend: AUG-CC-PVTZ-JKFIT
	 Reference Energy          =    -652.1301750697557509 [Eh]
	 Singles Energy            =      -0.0000000000000000 [Eh]
	 Same-Spin Energy          =      -0.2529316020024212 [Eh]
	 Opposite-Spin Energy      =      -0.8297206961486527 [Eh]
	 Correlation Energy        =      -1.0826522981510740 [Eh]
	 Total Energy              =    -653.2128273679068116 [Eh]

	 ================> DF-SCS-MP2 Energies <==================
	-----------------------------------------------------------
	 SCS Same-Spin Scale       =       0.3333333333333333 [-]
	 SCS Opposite-Spin Scale   =       1.2000000000000000 [-]
	 SCS Same-Spin Energy      =      -0.0843105340008070 [Eh]
	 SCS Opposite-Spin Energy  =      -0.9956648353783832 [Eh]
	 SCS Correlation Energy    =      -1.0799753693791903 [Eh]
	 SCS Total Energy          =    -653.2101504391349636 [Eh]
	-----------------------------------------------------------

  Dipole Moment: [D]
     X:     0.5796      Y:     2.7019      Z:     1.1440     Total:     2.9909

*** Psi4 exiting successfully. Buy a developer a beer!
