                               Psi4 1.3.2 release

  ==> Input File <==

--------------------------------------------------------------------------
#psi4
#
memory 32 gb

molecule  {
0 1
 Cl       -1.8862660    -0.5037910    -0.0848630
  O        2.6551490    -0.4511250    -0.1848070
  C        0.5405760     0.7662660    -0.3133580
  C        1.3151902    -0.4771828     0.3028779
  C       -0.8647240     0.9315120     0.2382250
  H        0.5053200     0.5766010    -1.3901780
  H        1.0611350     1.7234130    -0.1680230
  H        1.3720670    -0.1781130     1.4478320
  H        0.8719920    -1.3105050     0.1837500
  H       -0.8516100     1.0739190     1.3211680
  H       -1.3679740     1.7845180    -0.2190030
  H        3.1302690     0.3666280     0.0389720
units angstrom
no_reorient  #important for SAPT in psi4, default
symmetry c1  #important for SAPT in psi4, default
}

set PROPERTIES_ORIGIN ["COM"]
properties('MP2/aug-cc-pvtz', properties = ['dipole'])
--------------------------------------------------------------------------

    Molecular point group: c1
  Charge       = 0
  Multiplicity = 1
  Basis Set: AUG-CC-PVTZ
    Blend: AUG-CC-PVTZ
  Basis Set: (AUG-CC-PVTZ AUX)
    Blend: AUG-CC-PVTZ-JKFIT

    Orbital Energies [Eh]
    ---------------------

    Doubly Occupied:

       1A   -104.826597     2A    -20.562274     3A    -11.298984
       4A    -11.286224     5A    -11.245959     6A    -10.551089
       7A     -8.017914     8A     -8.016161     9A     -8.016133
      10A     -1.358592    11A     -1.144302    12A     -1.028064
      13A     -0.923109    14A     -0.825603    15A     -0.693766
      16A     -0.663268    17A     -0.626882    18A     -0.606122
      19A     -0.590361    20A     -0.534615    21A     -0.513044
      22A     -0.497518    23A     -0.441120    24A     -0.436483
      25A     -0.422745

  @DF-RHF Final Energy:  -652.10115228135021

   => Energetics <=

    Nuclear Repulsion Energy =            224.5547320912928910
    One-Electron Energy =               -1343.0579118876430584
    Two-Electron Energy =                 466.4020275149999861
    Total Energy =                       -652.1011522813502097
  Basis Set: (AUG-CC-PVTZ AUX)
    Blend: AUG-CC-PVTZ-RI
    Molecular point group: c1

    Geometry (in Angstrom), charge = 0, multiplicity = 1:

       Center              X                  Y                   Z               Mass
    ------------   -----------------  -----------------  -----------------  -----------------
         CL          -1.813503466168    -0.438723938573    -0.063946131520    34.968852682000
         O            2.727911533832    -0.386057938573    -0.163890131520    15.994914619570
         C            0.613338533832     0.831333061427    -0.292441131520    12.000000000000
         C            1.387952733832    -0.412115738573     0.323794768480    12.000000000000
         C           -0.791961466168     0.996579061427     0.259141868480    12.000000000000
         H            0.578082533832     0.641668061427    -1.369261131520     1.007825032230
         H            1.133897533832     1.788480061427    -0.147106131520     1.007825032230
         H            1.444829533832    -0.113045938573     1.468748868480     1.007825032230
         H            0.944754533832    -1.245437938573     0.204666868480     1.007825032230
         H           -0.778847466168     1.138986061427     1.342084868480     1.007825032230
         H           -1.295211466168     1.849585061427    -0.198086131520     1.007825032230
         H            3.203031533832     0.431695061427     0.059888868480     1.007825032230

  Basis Set: AUG-CC-PVTZ
    Blend: AUG-CC-PVTZ
  Basis Set: (AUG-CC-PVTZ AUX)
    Blend: AUG-CC-PVTZ-JKFIT
	 Reference Energy          =    -652.1011522813502097 [Eh]
	 Singles Energy            =      -0.0000000000000000 [Eh]
	 Same-Spin Energy          =      -0.2527888341727204 [Eh]
	 Opposite-Spin Energy      =      -0.8304713748084185 [Eh]
	 Correlation Energy        =      -1.0832602089811387 [Eh]
	 Total Energy              =    -653.1844124903313968 [Eh]

	 ================> DF-SCS-MP2 Energies <==================
	-----------------------------------------------------------
	 SCS Same-Spin Scale       =       0.3333333333333333 [-]
	 SCS Opposite-Spin Scale   =       1.2000000000000000 [-]
	 SCS Same-Spin Energy      =      -0.0842629447242401 [Eh]
	 SCS Opposite-Spin Energy  =      -0.9965656497701021 [Eh]
	 SCS Correlation Energy    =      -1.0808285944943421 [Eh]
	 SCS Total Energy          =    -653.1819808758446015 [Eh]
	-----------------------------------------------------------

  Dipole Moment: [D]
     X:     0.5364      Y:     2.6646      Z:     0.9600     Total:     2.8826

*** Psi4 exiting successfully. Buy a developer a beer!
