                               Psi4 1.3.2 release

  ==> Input File <==

--------------------------------------------------------------------------
#psi4
#
memory 32 gb

molecule  {
0 1
 Cl       -1.8862660    -0.5037910    -0.0848630
  O        2.6551490    -0.4511250    -0.1848070
  C        0.5405760     0.7662660    -0.3133580
  C        1.3415020    -0.3416140     0.3595680
  C       -0.8647240     0.9315120     0.2382250
  H        0.5053200     0.5766010    -1.3901780
  H        1.0611350     1.7234130    -0.1680230
  H        1.3720670    -0.1781130     1.4478320
  H        0.8719920    -1.3105050     0.1837500
  H       -0.8516100     1.0739190     1.3211680
  H       -1.3679740     1.7845180    -0.2190030
  H        3.2280431     0.5349120     0.0850231
units angstrom
no_reorient  #important for SAPT in psi4, default
symmetry c1  #important for SAPT in psi4, default
}

set PROPERTIES_ORIGIN ["COM"]
properties('MP2/aug-cc-pvtz', properties = ['dipole'])
--------------------------------------------------------------------------

    Molecular point group: c1
  Charge       = 0
  Multiplicity = 1
  Basis Set: AUG-CC-PVTZ
    Blend: AUG-CC-PVTZ
  Basis Set: (AUG-CC-PVTZ AUX)
    Blend: AUG-CC-PVTZ-JKFIT

    Orbital Energies [Eh]
    ---------------------

    Doubly Occupied:

       1A   -104.825676     2A    -20.581238     3A    -11.299830
       4A    -11.281399     5A    -11.242487     6A    -10.550164
       7A     -8.016992     8A     -8.015227     9A     -8.015199
      10A     -1.331138    11A     -1.144671    12A     -1.031820
      13A     -0.904748    14A     -0.815242    15A     -0.682194
      16A     -0.641999    17A     -0.625644    18A     -0.599421
      19A     -0.565106    20A     -0.538023    21A     -0.513999
      22A     -0.482541    23A     -0.452417    24A     -0.435819
      25A     -0.429920

  @DF-RHF Final Energy:  -652.09404453683157

   => Energetics <=

    Nuclear Repulsion Energy =            223.9859763863479714
    One-Electron Energy =               -1342.1142139336352557
    Two-Electron Energy =                 466.0341930104555672
    Total Energy =                       -652.0940445368316887
  Basis Set: (AUG-CC-PVTZ AUX)
    Blend: AUG-CC-PVTZ-RI
    Molecular point group: c1

    Geometry (in Angstrom), charge = 0, multiplicity = 1:

       Center              X                  Y                   Z               Mass
    ------------   -----------------  -----------------  -----------------  -----------------
         CL          -1.817909839361    -0.457831088923    -0.071675379728    34.968852682000
         O            2.723505160639    -0.405165088923    -0.171619379728    15.994914619570
         C            0.608932160639     0.812225911077    -0.300170379728    12.000000000000
         C            1.409858160639    -0.295654088923     0.372755620272    12.000000000000
         C           -0.796367839361     0.977471911077     0.251412620272    12.000000000000
         H            0.573676160639     0.622560911077    -1.376990379728     1.007825032230
         H            1.129491160639     1.769372911077    -0.154835379728     1.007825032230
         H            1.440423160639    -0.132153088923     1.461019620272     1.007825032230
         H            0.940348160639    -1.264545088923     0.196937620272     1.007825032230
         H           -0.783253839361     1.119878911077     1.334355620272     1.007825032230
         H           -1.299617839361     1.830477911077    -0.205815379728     1.007825032230
         H            3.296399260639     0.580871911077     0.098210720272     1.007825032230

  Basis Set: AUG-CC-PVTZ
    Blend: AUG-CC-PVTZ
  Basis Set: (AUG-CC-PVTZ AUX)
    Blend: AUG-CC-PVTZ-JKFIT
	 Reference Energy          =    -652.0940445368315750 [Eh]
	 Singles Energy            =      -0.0000000000000000 [Eh]
	 Same-Spin Energy          =      -0.2551660095728396 [Eh]
	 Opposite-Spin Energy      =      -0.8369261347729282 [Eh]
	 Correlation Energy        =      -1.0920921443457678 [Eh]
	 Total Energy              =    -653.1861366811773451 [Eh]

	 ================> DF-SCS-MP2 Energies <==================
	-----------------------------------------------------------
	 SCS Same-Spin Scale       =       0.3333333333333333 [-]
	 SCS Opposite-Spin Scale   =       1.2000000000000000 [-]
	 SCS Same-Spin Energy      =      -0.0850553365242799 [Eh]
	 SCS Opposite-Spin Energy  =      -1.0043113617275139 [Eh]
	 SCS Correlation Energy    =      -1.0893666982517938 [Eh]
	 SCS Total Energy          =    -653.1834112350833266 [Eh]
	-----------------------------------------------------------

  Dipole Moment: [D]
     X:     0.6236      Y:     2.8541      Z:     1.0796     Total:     3.1146

*** Psi4 exiting successfully. Buy a developer a beer!
