                               Psi4 1.3.2 release

  ==> Input File <==

--------------------------------------------------------------------------
#psi4
#
memory 32 gb

molecule  {
0 1
 Cl       -1.9106964    -0.5159117     0.1006204
  O        2.6551490    -0.4511250    -0.1848070
  C        0.5405760     0.7662660    -0.3133580
  C        1.3415020    -0.3416140     0.3595680
  C       -0.8647240     0.9315120     0.2382250
  H        0.5053200     0.5766010    -1.3901780
  H        1.0611350     1.7234130    -0.1680230
  H        1.3720670    -0.1781130     1.4478320
  H        0.8719920    -1.3105050     0.1837500
  H       -0.8516100     1.0739190     1.3211680
  H       -1.3679740     1.7845180    -0.2190030
  H        3.1302690     0.3666280     0.0389720
units angstrom
no_reorient  #important for SAPT in psi4, default
symmetry c1  #important for SAPT in psi4, default
}

set PROPERTIES_ORIGIN ["COM"]
properties('MP2/aug-cc-pvtz', properties = ['dipole'])
--------------------------------------------------------------------------

    Molecular point group: c1
  Charge       = 0
  Multiplicity = 1
  Basis Set: AUG-CC-PVTZ
    Blend: AUG-CC-PVTZ
  Basis Set: (AUG-CC-PVTZ AUX)
    Blend: AUG-CC-PVTZ-JKFIT

    Orbital Energies [Eh]
    ---------------------

    Doubly Occupied:

       1A   -104.826280     2A    -20.565545     3A    -11.300199
       4A    -11.282791     5A    -11.244904     6A    -10.550745
       7A     -8.017575     8A     -8.015803     9A     -8.015769
      10A     -1.362654    11A     -1.145150    12A     -1.037237
      13A     -0.912815    14A     -0.820291    15A     -0.703803
      16A     -0.646496    17A     -0.633090    18A     -0.609767
      19A     -0.567959    20A     -0.542763    21A     -0.519816
      22A     -0.488836    23A     -0.456142    24A     -0.434427
      25A     -0.431693

  @DF-RHF Final Energy:  -652.12794670571225

   => Energetics <=

    Nuclear Repulsion Energy =            224.4604829650080546
    One-Electron Energy =               -1342.9117545931053428
    Two-Electron Energy =                 466.3233249223851544
    Total Energy =                       -652.1279467057122474
  Basis Set: (AUG-CC-PVTZ AUX)
    Blend: AUG-CC-PVTZ-RI
    Molecular point group: c1

    Geometry (in Angstrom), charge = 0, multiplicity = 1:

       Center              X                  Y                   Z               Mass
    ------------   -----------------  -----------------  -----------------  -----------------
         CL          -1.832205618908    -0.463639759567     0.045313763021    34.968852682000
         O            2.733639781092    -0.398853059567    -0.240113636979    15.994914619570
         C            0.619066781092     0.818537940433    -0.368664636979    12.000000000000
         C            1.419992781092    -0.289342059567     0.304261363021    12.000000000000
         C           -0.786233218908     0.983783940433     0.182918363021    12.000000000000
         H            0.583810781092     0.628872940433    -1.445484636979     1.007825032230
         H            1.139625781092     1.775684940433    -0.223329636979     1.007825032230
         H            1.450557781092    -0.125841059567     1.392525363021     1.007825032230
         H            0.950482781092    -1.258233059567     0.128443363021     1.007825032230
         H           -0.773119218908     1.126190940433     1.265861363021     1.007825032230
         H           -1.289483218908     1.836789940433    -0.274309636979     1.007825032230
         H            3.208759781092     0.418899940433    -0.016334636979     1.007825032230

  Basis Set: AUG-CC-PVTZ
    Blend: AUG-CC-PVTZ
  Basis Set: (AUG-CC-PVTZ AUX)
    Blend: AUG-CC-PVTZ-JKFIT
	 Reference Energy          =    -652.1279467057122474 [Eh]
	 Singles Energy            =      -0.0000000000000000 [Eh]
	 Same-Spin Energy          =      -0.2531313076327684 [Eh]
	 Opposite-Spin Energy      =      -0.8303541636652130 [Eh]
	 Correlation Energy        =      -1.0834854712979813 [Eh]
	 Total Energy              =    -653.2114321770102379 [Eh]

	 ================> DF-SCS-MP2 Energies <==================
	-----------------------------------------------------------
	 SCS Same-Spin Scale       =       0.3333333333333333 [-]
	 SCS Opposite-Spin Scale   =       1.2000000000000000 [-]
	 SCS Same-Spin Energy      =      -0.0843771025442561 [Eh]
	 SCS Opposite-Spin Energy  =      -0.9964249963982555 [Eh]
	 SCS Correlation Energy    =      -1.0808020989425118 [Eh]
	 SCS Total Energy          =    -653.2087488046547605 [Eh]
	-----------------------------------------------------------

  Dipole Moment: [D]
     X:     0.5699      Y:     2.7869      Z:     0.9102     Total:     2.9867

*** Psi4 exiting successfully. Buy a developer a beer!
