                               Psi4 1.4a3.dev225

  ==> Input File <==

--------------------------------------------------------------------------
#psi4
#
memory 32 gb

molecule  {
0 1
 Cl       -1.8863280    -0.5037310    -0.0848350
  O        2.6552870    -0.4508740    -0.1847800
  C        0.5406420     0.7662540    -0.3132380
  C        1.3413940    -0.3419500     0.3592880
  C       -0.8647190     0.9314930     0.2381990
  H        0.5055580     0.5770700    -1.3901400
  H        1.0611570     1.7233420    -0.1673410
  H        1.3716790    -0.1791760     1.4476590
  H        0.8721100    -1.3108220     0.1827430
  H       -0.8516430     1.0741000     1.3211200
  H       -1.3678240     1.7844860    -0.2192100
  H        3.1547819     0.4086836     0.0516704
units angstrom
no_reorient  #important for SAPT in psi4, default
symmetry c1  #important for SAPT in psi4, default
}

set PROPERTIES_ORIGIN ["COM"]
properties('MP2/aug-cc-pvtz', properties = ['dipole'])
--------------------------------------------------------------------------

    Molecular point group: c1
  Charge       = 0
  Multiplicity = 1
  Basis Set: AUG-CC-PVTZ
    Blend: AUG-CC-PVTZ
  Basis Set: (AUG-CC-PVTZ AUX)
    Blend: AUG-CC-PVTZ-JKFIT

    Orbital Energies [Eh]
    ---------------------

    Doubly Occupied:

       1A   -104.826025     2A    -20.569780     3A    -11.300340
       4A    -11.282122     5A    -11.243233     6A    -10.550509
       7A     -8.017337     8A     -8.015570     9A     -8.015543
      10A     -1.352289    11A     -1.145376    12A     -1.034460
      13A     -0.910267    14A     -0.818900    15A     -0.697083
      16A     -0.645208    17A     -0.631213    18A     -0.607171
      19A     -0.567945    20A     -0.539363    21A     -0.519027
      22A     -0.487343    23A     -0.454463    24A     -0.436187
      25A     -0.430951

  @DF-RHF Final Energy:  -652.12441775443119

   => Energetics <=

    Nuclear Repulsion Energy =            224.6928808431469520
    One-Electron Energy =               -1343.4391889458834157
    Two-Electron Energy =                 466.6218903483053282
    Total Energy =                       -652.1244177544311924
  Basis Set: (AUG-CC-PVTZ AUX)
    Blend: AUG-CC-PVTZ-RI
    Molecular point group: c1

    Geometry (in Angstrom), charge = 0, multiplicity = 1:

       Center              X                  Y                   Z               Mass
    ------------   -----------------  -----------------  -----------------  -----------------
         CL          -1.817183362933    -0.456427239067    -0.071273461037    34.968852682000
         O            2.724431637067    -0.403570239067    -0.171218461037    15.994914619570
         C            0.609786637067     0.813557760933    -0.299676461037    12.000000000000
         C            1.410538637067    -0.294646239067     0.372849538963    12.000000000000
         C           -0.795574362933     0.978796760933     0.251760538963    12.000000000000
         H            0.574702637067     0.624373760933    -1.376578461037     1.007825032230
         H            1.130301637067     1.770645760933    -0.153779461037     1.007825032230
         H            1.440823637067    -0.131872239067     1.461220538963     1.007825032230
         H            0.941254637067    -1.263518239067     0.196304538963     1.007825032230
         H           -0.782498362933     1.121403760933     1.334681538963     1.007825032230
         H           -1.298679362933     1.831789760933    -0.205648461037     1.007825032230
         H            3.223926537067     0.455987360933     0.065231938963     1.007825032230

  Basis Set: AUG-CC-PVTZ
    Blend: AUG-CC-PVTZ
  Basis Set: (AUG-CC-PVTZ AUX)
    Blend: AUG-CC-PVTZ-JKFIT
	 Reference Energy          =    -652.1244177544311924 [Eh]
	 Singles Energy            =      -0.0000000000000000 [Eh]
	 Same-Spin Energy          =      -0.2536937562117690 [Eh]
	 Opposite-Spin Energy      =      -0.8319056319501038 [Eh]
	 Correlation Energy        =      -1.0855993881618728 [Eh]
	 Total Energy              =    -653.2100171425930739 [Eh]

	 ================> DF-SCS-MP2 Energies <==================
	-----------------------------------------------------------
	 SCS Same-Spin Scale       =       0.3333333333333333 [-]
	 SCS Opposite-Spin Scale   =       1.2000000000000000 [-]
	 SCS Same-Spin Energy      =      -0.0845645854039230 [Eh]
	 SCS Opposite-Spin Energy  =      -0.9982867583401245 [Eh]
	 SCS Correlation Energy    =      -1.0828513437440475 [Eh]
	 SCS Total Energy          =    -653.2072690981752885 [Eh]
	-----------------------------------------------------------

  Dipole Moment: [D]
     X:     0.5596      Y:     2.7963      Z:     1.0654     Total:     3.0443

*** Psi4 exiting successfully. Buy a developer a beer!
