                               Psi4 1.3.2 release

  ==> Input File <==

--------------------------------------------------------------------------
#psi4
#
memory 32 gb

molecule  {
0 1
 Cl       -1.9038156    -0.5136305     0.0385242
  O        2.6551490    -0.4511250    -0.1848070
  C        0.5405760     0.7662660    -0.3133580
  C        1.3415020    -0.3416140     0.3595680
  C       -0.8647240     0.9315120     0.2382250
  H        0.5053200     0.5766010    -1.3901780
  H        1.0611350     1.7234130    -0.1680230
  H        1.3720670    -0.1781130     1.4478320
  H        0.8719920    -1.3105050     0.1837500
  H       -0.8516100     1.0739190     1.3211680
  H       -1.3679740     1.7845180    -0.2190030
  H        3.1302690     0.3666280     0.0389720
units angstrom
no_reorient  #important for SAPT in psi4, default
symmetry c1  #important for SAPT in psi4, default
}

set PROPERTIES_ORIGIN ["COM"]
properties('MP2/aug-cc-pvtz', properties = ['dipole'])
--------------------------------------------------------------------------

    Molecular point group: c1
  Charge       = 0
  Multiplicity = 1
  Basis Set: AUG-CC-PVTZ
    Blend: AUG-CC-PVTZ
  Basis Set: (AUG-CC-PVTZ AUX)
    Blend: AUG-CC-PVTZ-JKFIT

    Orbital Energies [Eh]
    ---------------------

    Doubly Occupied:

       1A   -104.826237     2A    -20.565458     3A    -11.300342
       4A    -11.282696     5A    -11.244463     6A    -10.550704
       7A     -8.017534     8A     -8.015765     9A     -8.015734
      10A     -1.362556    11A     -1.145243    12A     -1.036734
      13A     -0.912832    14A     -0.820370    15A     -0.703720
      16A     -0.646566    17A     -0.632907    18A     -0.609602
      19A     -0.568315    20A     -0.541805    21A     -0.520158
      22A     -0.488710    23A     -0.455887    24A     -0.435173
      25A     -0.431691

  @DF-RHF Final Energy:  -652.12884820562419

   => Energetics <=

    Nuclear Repulsion Energy =            224.6159707619634673
    One-Electron Energy =               -1343.2272373915700427
    Two-Electron Energy =                 466.4824184239824945
    Total Energy =                       -652.1288482056241946
  Basis Set: (AUG-CC-PVTZ AUX)
    Blend: AUG-CC-PVTZ-RI
    Molecular point group: c1

    Geometry (in Angstrom), charge = 0, multiplicity = 1:

       Center              X                  Y                   Z               Mass
    ------------   -----------------  -----------------  -----------------  -----------------
         CL          -1.827884034092    -0.462207019292     0.006313356804    34.968852682000
         O            2.731080565908    -0.399701519292    -0.217017843196    15.994914619570
         C            0.616507565908     0.817689480708    -0.345568843196    12.000000000000
         C            1.417433565908    -0.290190519292     0.327357156804    12.000000000000
         C           -0.788792434092     0.982935480708     0.206014156804    12.000000000000
         H            0.581251565908     0.628024480708    -1.422388843196     1.007825032230
         H            1.137066565908     1.774836480708    -0.200233843196     1.007825032230
         H            1.447998565908    -0.126689519292     1.415621156804     1.007825032230
         H            0.947923565908    -1.259081519292     0.151539156804     1.007825032230
         H           -0.775678434092     1.125342480708     1.288957156804     1.007825032230
         H           -1.292042434092     1.835941480708    -0.251213843196     1.007825032230
         H            3.206200565908     0.418051480708     0.006761156804     1.007825032230

  Basis Set: AUG-CC-PVTZ
    Blend: AUG-CC-PVTZ
  Basis Set: (AUG-CC-PVTZ AUX)
    Blend: AUG-CC-PVTZ-JKFIT
	 Reference Energy          =    -652.1288482056241946 [Eh]
	 Singles Energy            =      -0.0000000000000000 [Eh]
	 Same-Spin Energy          =      -0.2531211218348713 [Eh]
	 Opposite-Spin Energy      =      -0.8303219023833014 [Eh]
	 Correlation Energy        =      -1.0834430242181727 [Eh]
	 Total Energy              =    -653.2122912298423216 [Eh]

	 ================> DF-SCS-MP2 Energies <==================
	-----------------------------------------------------------
	 SCS Same-Spin Scale       =       0.3333333333333333 [-]
	 SCS Opposite-Spin Scale   =       1.2000000000000000 [-]
	 SCS Same-Spin Energy      =      -0.0843737072782904 [Eh]
	 SCS Opposite-Spin Energy  =      -0.9963862828599617 [Eh]
	 SCS Correlation Energy    =      -1.0807599901382521 [Eh]
	 SCS Total Energy          =    -653.2096081957624847 [Eh]
	-----------------------------------------------------------

  Dipole Moment: [D]
     X:     0.5582      Y:     2.7844      Z:     0.9601     Total:     2.9977

*** Psi4 exiting successfully. Buy a developer a beer!
