                               Psi4 1.3.2 release

  ==> Input File <==

--------------------------------------------------------------------------
#psi4
#
memory 32 gb

molecule  {
0 1
 Cl       -1.8862660    -0.5037910    -0.0848630
  O        2.6638884    -0.4041336    -0.1708948
  C        0.5405760     0.7662660    -0.3133580
  C        1.3415020    -0.3416140     0.3595680
  C       -0.8647240     0.9315120     0.2382250
  H        0.5053200     0.5766010    -1.3901780
  H        1.0611350     1.7234130    -0.1680230
  H        1.3720670    -0.1781130     1.4478320
  H        0.8719920    -1.3105050     0.1837500
  H       -0.8516100     1.0739190     1.3211680
  H       -1.3679740     1.7845180    -0.2190030
  H        3.1302690     0.3666280     0.0389720
units angstrom
no_reorient  #important for SAPT in psi4, default
symmetry c1  #important for SAPT in psi4, default
}

set PROPERTIES_ORIGIN ["COM"]
properties('MP2/aug-cc-pvtz', properties = ['dipole'])
--------------------------------------------------------------------------

    Molecular point group: c1
  Charge       = 0
  Multiplicity = 1
  Basis Set: AUG-CC-PVTZ
    Blend: AUG-CC-PVTZ
  Basis Set: (AUG-CC-PVTZ AUX)
    Blend: AUG-CC-PVTZ-JKFIT

    Orbital Energies [Eh]
    ---------------------

    Doubly Occupied:

       1A   -104.826257     2A    -20.558851     3A    -11.300197
       4A    -11.283686     5A    -11.243099     6A    -10.550745
       7A     -8.017573     8A     -8.015808     9A     -8.015781
      10A     -1.371213    11A     -1.145763    12A     -1.036776
      13A     -0.916341    14A     -0.822135    15A     -0.708974
      16A     -0.650526    17A     -0.634006    18A     -0.608713
      19A     -0.572306    20A     -0.540045    21A     -0.519080
      22A     -0.488901    23A     -0.455592    24A     -0.436373
      25A     -0.431225

  @DF-RHF Final Energy:  -652.13035133572419

   => Energetics <=

    Nuclear Repulsion Energy =            225.2488265205122673
    One-Electron Energy =               -1344.4584195470561099
    Two-Electron Energy =                 467.0792416908196287
    Total Energy =                       -652.1303513357242991
  Basis Set: (AUG-CC-PVTZ AUX)
    Blend: AUG-CC-PVTZ-RI
    Molecular point group: c1

    Geometry (in Angstrom), charge = 0, multiplicity = 1:

       Center              X                  Y                   Z               Mass
    ------------   -----------------  -----------------  -----------------  -----------------
         CL          -1.818348548261    -0.464021597598    -0.073548552775    34.968852682000
         O            2.731805851739    -0.364364197598    -0.159580352775    15.994914619570
         C            0.608493451739     0.806035402402    -0.302043552775    12.000000000000
         C            1.409419451739    -0.301844597598     0.370882447225    12.000000000000
         C           -0.796806548261     0.971281402402     0.249539447225    12.000000000000
         H            0.573237451739     0.616370402402    -1.378863552775     1.007825032230
         H            1.129052451739     1.763182402402    -0.156708552775     1.007825032230
         H            1.439984451739    -0.138343597598     1.459146447225     1.007825032230
         H            0.939909451739    -1.270735597598     0.195064447225     1.007825032230
         H           -0.783692548261     1.113688402402     1.332482447225     1.007825032230
         H           -1.300056548261     1.824287402402    -0.207688552775     1.007825032230
         H            3.198186451739     0.406397402402     0.050286447225     1.007825032230

  Basis Set: AUG-CC-PVTZ
    Blend: AUG-CC-PVTZ
  Basis Set: (AUG-CC-PVTZ AUX)
    Blend: AUG-CC-PVTZ-JKFIT
	 Reference Energy          =    -652.1303513357241854 [Eh]
	 Singles Energy            =      -0.0000000000000000 [Eh]
	 Same-Spin Energy          =      -0.2525124011451394 [Eh]
	 Opposite-Spin Energy      =      -0.8286854757121641 [Eh]
	 Correlation Energy        =      -1.0811978768573036 [Eh]
	 Total Energy              =    -653.2115492125815308 [Eh]

	 ================> DF-SCS-MP2 Energies <==================
	-----------------------------------------------------------
	 SCS Same-Spin Scale       =       0.3333333333333333 [-]
	 SCS Opposite-Spin Scale   =       1.2000000000000000 [-]
	 SCS Same-Spin Energy      =      -0.0841708003817131 [Eh]
	 SCS Opposite-Spin Energy  =      -0.9944225708545968 [Eh]
	 SCS Correlation Energy    =      -1.0785933712363101 [Eh]
	 SCS Total Energy          =    -653.2089447069605512 [Eh]
	-----------------------------------------------------------

  Dipole Moment: [D]
     X:     0.5093      Y:     2.7137      Z:     1.0528     Total:     2.9550

*** Psi4 exiting successfully. Buy a developer a beer!
