                               Psi4 1.3.2 release

  ==> Input File <==

--------------------------------------------------------------------------
#psi4
#
memory 32 gb

molecule  {
0 1
 Cl       -1.8911237    -0.5069089    -0.0541404
  O        2.6551490    -0.4511250    -0.1848070
  C        0.5405760     0.7662660    -0.3133580
  C        1.3415020    -0.3416140     0.3595680
  C       -0.8647240     0.9315120     0.2382250
  H        0.5053200     0.5766010    -1.3901780
  H        1.0611350     1.7234130    -0.1680230
  H        1.3720670    -0.1781130     1.4478320
  H        0.8719920    -1.3105050     0.1837500
  H       -0.8516100     1.0739190     1.3211680
  H       -1.3679740     1.7845180    -0.2190030
  H        3.1302690     0.3666280     0.0389720
units angstrom
no_reorient  #important for SAPT in psi4, default
symmetry c1  #important for SAPT in psi4, default
}

set PROPERTIES_ORIGIN ["COM"]
properties('MP2/aug-cc-pvtz', properties = ['dipole'])
--------------------------------------------------------------------------

    Molecular point group: c1
  Charge       = 0
  Multiplicity = 1
  Basis Set: AUG-CC-PVTZ
    Blend: AUG-CC-PVTZ
  Basis Set: (AUG-CC-PVTZ AUX)
    Blend: AUG-CC-PVTZ-JKFIT

    Orbital Energies [Eh]
    ---------------------

    Doubly Occupied:

       1A   -104.826191     2A    -20.565322     3A    -11.300516
       4A    -11.282558     5A    -11.243777     6A    -10.550669
       7A     -8.017498     8A     -8.015731     9A     -8.015702
      10A     -1.362404    11A     -1.145540    12A     -1.035935
      13A     -0.912834    14A     -0.820492    15A     -0.703601
      16A     -0.646682    17A     -0.632814    18A     -0.609298
      19A     -0.568822    20A     -0.540390    21A     -0.520552
      22A     -0.488558    23A     -0.455533    24A     -0.436119
      25A     -0.431465

  @DF-RHF Final Energy:  -652.12947546641976

   => Energetics <=

    Nuclear Repulsion Energy =            224.8741408856069768
    One-Electron Energy =               -1343.7492263757276305
    Two-Electron Energy =                 466.7456100237009196
    Total Energy =                       -652.1294754664197626
  Basis Set: (AUG-CC-PVTZ AUX)
    Blend: AUG-CC-PVTZ-RI
    Molecular point group: c1

    Geometry (in Angstrom), charge = 0, multiplicity = 1:

       Center              X                  Y                   Z               Mass
    ------------   -----------------  -----------------  -----------------  -----------------
         CL          -1.819912704837    -0.457985422312    -0.051885970080    34.968852682000
         O            2.726359995163    -0.402201522312    -0.182552570080    15.994914619570
         C            0.611786995163     0.815189477688    -0.311103570080    12.000000000000
         C            1.412712995163    -0.292690522312     0.361822429920    12.000000000000
         C           -0.793513004837     0.980435477688     0.240479429920    12.000000000000
         H            0.576530995163     0.625524477688    -1.387923570080     1.007825032230
         H            1.132345995163     1.772336477688    -0.165768570080     1.007825032230
         H            1.443277995163    -0.129189522312     1.450086429920     1.007825032230
         H            0.943202995163    -1.261581522312     0.186004429920     1.007825032230
         H           -0.780399004837     1.122842477688     1.323422429920     1.007825032230
         H           -1.296763004837     1.833441477688    -0.216748570080     1.007825032230
         H            3.201479995163     0.415551477688     0.041226429920     1.007825032230

  Basis Set: AUG-CC-PVTZ
    Blend: AUG-CC-PVTZ
  Basis Set: (AUG-CC-PVTZ AUX)
    Blend: AUG-CC-PVTZ-JKFIT
	 Reference Energy          =    -652.1294754664197626 [Eh]
	 Singles Energy            =      -0.0000000000000000 [Eh]
	 Same-Spin Energy          =      -0.2531394049204563 [Eh]
	 Opposite-Spin Energy      =      -0.8303351542133912 [Eh]
	 Correlation Energy        =      -1.0834745591338475 [Eh]
	 Total Energy              =    -653.2129500255535959 [Eh]

	 ================> DF-SCS-MP2 Energies <==================
	-----------------------------------------------------------
	 SCS Same-Spin Scale       =       0.3333333333333333 [-]
	 SCS Opposite-Spin Scale   =       1.2000000000000000 [-]
	 SCS Same-Spin Energy      =      -0.0843798016401521 [Eh]
	 SCS Opposite-Spin Energy  =      -0.9964021850560694 [Eh]
	 SCS Correlation Energy    =      -1.0807819866962214 [Eh]
	 SCS Total Energy          =    -653.2102574531160144 [Eh]
	-----------------------------------------------------------

  Dipole Moment: [D]
     X:     0.5385      Y:     2.7777      Z:     1.0345     Total:     3.0126

*** Psi4 exiting successfully. Buy a developer a beer!
