                               Psi4 1.3.2 release

  ==> Input File <==

--------------------------------------------------------------------------
#psi4
#
memory 32 gb

molecule  {
0 1
 Cl       -1.8376717    -0.5305198    -0.1137187
  O        2.6551490    -0.4511250    -0.1848070
  C        0.5405760     0.7662660    -0.3133580
  C        1.3415020    -0.3416140     0.3595680
  C       -0.8647240     0.9315120     0.2382250
  H        0.5053200     0.5766010    -1.3901780
  H        1.0611350     1.7234130    -0.1680230
  H        1.3720670    -0.1781130     1.4478320
  H        0.8719920    -1.3105050     0.1837500
  H       -0.8516100     1.0739190     1.3211680
  H       -1.3679740     1.7845180    -0.2190030
  H        3.1302690     0.3666280     0.0389720
units angstrom
no_reorient  #important for SAPT in psi4, default
symmetry c1  #important for SAPT in psi4, default
}

set PROPERTIES_ORIGIN ["COM"]
properties('MP2/aug-cc-pvtz', properties = ['dipole'])
--------------------------------------------------------------------------

    Molecular point group: c1
  Charge       = 0
  Multiplicity = 1
  Basis Set: AUG-CC-PVTZ
    Blend: AUG-CC-PVTZ
  Basis Set: (AUG-CC-PVTZ AUX)
    Blend: AUG-CC-PVTZ-JKFIT

    Orbital Energies [Eh]
    ---------------------

    Doubly Occupied:

       1A   -104.826129     2A    -20.564843     3A    -11.300782
       4A    -11.281904     5A    -11.242704     6A    -10.550655
       7A     -8.017479     8A     -8.015713     9A     -8.015688
      10A     -1.361898    11A     -1.146492    12A     -1.034241
      13A     -0.913049    14A     -0.820381    15A     -0.703191
      16A     -0.647081    17A     -0.632682    18A     -0.608318
      19A     -0.569670    20A     -0.538972    21A     -0.520403
      22A     -0.488079    23A     -0.454626    24A     -0.436578
      25A     -0.431602

  @DF-RHF Final Energy:  -652.12903438228568

   => Energetics <=

    Nuclear Repulsion Energy =            225.6955021490641400
    One-Electron Energy =               -1345.4027528914575669
    Two-Electron Energy =                 467.5782163601077173
    Total Energy =                       -652.1290343822856812
  Basis Set: (AUG-CC-PVTZ AUX)
    Blend: AUG-CC-PVTZ-RI
    Molecular point group: c1

    Geometry (in Angstrom), charge = 0, multiplicity = 1:

       Center              X                  Y                   Z               Mass
    ------------   -----------------  -----------------  -----------------  -----------------
         CL          -1.786341412018    -0.472814585629    -0.089304973203    34.968852682000
         O            2.706479287982    -0.393419785629    -0.160393273203    15.994914619570
         C            0.591906287982     0.823971214371    -0.288944273203    12.000000000000
         C            1.392832287982    -0.283908785629     0.383981726797    12.000000000000
         C           -0.813393712018     0.989217214371     0.262638726797    12.000000000000
         H            0.556650287982     0.634306214371    -1.365764273203     1.007825032230
         H            1.112465287982     1.781118214371    -0.143609273203     1.007825032230
         H            1.423397287982    -0.120407785629     1.472245726797     1.007825032230
         H            0.923322287982    -1.252799785629     0.208163726797     1.007825032230
         H           -0.800279712018     1.131624214371     1.345581726797     1.007825032230
         H           -1.316643712018     1.842223214371    -0.194589273203     1.007825032230
         H            3.181599287982     0.424333214371     0.063385726797     1.007825032230

  Basis Set: AUG-CC-PVTZ
    Blend: AUG-CC-PVTZ
  Basis Set: (AUG-CC-PVTZ AUX)
    Blend: AUG-CC-PVTZ-JKFIT
	 Reference Energy          =    -652.1290343822856812 [Eh]
	 Singles Energy            =      -0.0000000000000000 [Eh]
	 Same-Spin Energy          =      -0.2533054593823322 [Eh]
	 Opposite-Spin Energy      =      -0.8305541476783699 [Eh]
	 Correlation Energy        =      -1.0838596070607021 [Eh]
	 Total Energy              =    -653.2128939893464121 [Eh]

	 ================> DF-SCS-MP2 Energies <==================
	-----------------------------------------------------------
	 SCS Same-Spin Scale       =       0.3333333333333333 [-]
	 SCS Opposite-Spin Scale   =       1.2000000000000000 [-]
	 SCS Same-Spin Energy      =      -0.0844351531274441 [Eh]
	 SCS Opposite-Spin Energy  =      -0.9966649772140438 [Eh]
	 SCS Correlation Energy    =      -1.0811001303414878 [Eh]
	 SCS Total Energy          =    -653.2101345126271781 [Eh]
	-----------------------------------------------------------

  Dipole Moment: [D]
     X:     0.4769      Y:     2.7920      Z:     1.0827     Total:     3.0323

*** Psi4 exiting successfully. Buy a developer a beer!
