                               Psi4 1.3.2 release

  ==> Input File <==

--------------------------------------------------------------------------
#psi4
#
memory 32 gb

molecule  {
0 1
 Cl       -1.8862660    -0.5037910    -0.0848630
  O        2.6774204    -0.5626897    -0.0881515
  C        0.5405760     0.7662660    -0.3133580
  C        1.3415020    -0.3416140     0.3595680
  C       -0.8647240     0.9315120     0.2382250
  H        0.5053200     0.5766010    -1.3901780
  H        1.0611350     1.7234130    -0.1680230
  H        1.3720670    -0.1781130     1.4478320
  H        0.8719920    -1.3105050     0.1837500
  H       -0.8516100     1.0739190     1.3211680
  H       -1.3679740     1.7845180    -0.2190030
  H        3.1302690     0.3666280     0.0389720
units angstrom
no_reorient  #important for SAPT in psi4, default
symmetry c1  #important for SAPT in psi4, default
}

set PROPERTIES_ORIGIN ["COM"]
properties('MP2/aug-cc-pvtz', properties = ['dipole'])
--------------------------------------------------------------------------

    Molecular point group: c1
  Charge       = 0
  Multiplicity = 1
  Basis Set: AUG-CC-PVTZ
    Blend: AUG-CC-PVTZ
  Basis Set: (AUG-CC-PVTZ AUX)
    Blend: AUG-CC-PVTZ-JKFIT

    Orbital Energies [Eh]
    ---------------------

    Doubly Occupied:

       1A   -104.827151     2A    -20.573637     3A    -11.303266
       4A    -11.280654     5A    -11.247566     6A    -10.551615
       7A     -8.018445     8A     -8.016669     9A     -8.016639
      10A     -1.350948    11A     -1.147081    12A     -1.036308
      13A     -0.909245    14A     -0.820146    15A     -0.694054
      16A     -0.645951    17A     -0.625979    18A     -0.613312
      19A     -0.566673    20A     -0.540984    21A     -0.522743
      22A     -0.487879    23A     -0.451002    24A     -0.437633
      25A     -0.433719

  @DF-RHF Final Energy:  -652.11839441909194

   => Energetics <=

    Nuclear Repulsion Energy =            224.1115417083105399
    One-Electron Energy =               -1342.2212766672096222
    Two-Electron Energy =                 465.9913405398070836
    Total Energy =                       -652.1183944190919419
  Basis Set: (AUG-CC-PVTZ AUX)
    Blend: AUG-CC-PVTZ-RI
    Molecular point group: c1

    Geometry (in Angstrom), charge = 0, multiplicity = 1:

       Center              X                  Y                   Z               Mass
    ------------   -----------------  -----------------  -----------------  -----------------
         CL          -1.820650681211    -0.437047224100    -0.087625265552    34.968852682000
         O            2.743035718789    -0.495945924100    -0.090913765552    15.994914619570
         C            0.606191318789     0.833009775900    -0.316120265552    12.000000000000
         C            1.407117318789    -0.274870224100     0.356805734448    12.000000000000
         C           -0.799108681211     0.998255775900     0.235462734448    12.000000000000
         H            0.570935318789     0.643344775900    -1.392940265552     1.007825032230
         H            1.126750318789     1.790156775900    -0.170785265552     1.007825032230
         H            1.437682318789    -0.111369224100     1.445069734448     1.007825032230
         H            0.937607318789    -1.243761224100     0.180987734448     1.007825032230
         H           -0.785994681211     1.140662775900     1.318405734448     1.007825032230
         H           -1.302358681211     1.851261775900    -0.221765265552     1.007825032230
         H            3.195884318789     0.433371775900     0.036209734448     1.007825032230

  Basis Set: AUG-CC-PVTZ
    Blend: AUG-CC-PVTZ
  Basis Set: (AUG-CC-PVTZ AUX)
    Blend: AUG-CC-PVTZ-JKFIT
	 Reference Energy          =    -652.1183944190919419 [Eh]
	 Singles Energy            =      -0.0000000000000000 [Eh]
	 Same-Spin Energy          =      -0.2541525004455716 [Eh]
	 Opposite-Spin Energy      =      -0.8331593179007377 [Eh]
	 Correlation Energy        =      -1.0873118183463093 [Eh]
	 Total Energy              =    -653.2057062374382213 [Eh]

	 ================> DF-SCS-MP2 Energies <==================
	-----------------------------------------------------------
	 SCS Same-Spin Scale       =       0.3333333333333333 [-]
	 SCS Opposite-Spin Scale   =       1.2000000000000000 [-]
	 SCS Same-Spin Energy      =      -0.0847175001485239 [Eh]
	 SCS Opposite-Spin Energy  =      -0.9997911814808852 [Eh]
	 SCS Correlation Energy    =      -1.0845086816294089 [Eh]
	 SCS Total Energy          =    -653.2029031007213007 [Eh]
	-----------------------------------------------------------

  Dipole Moment: [D]
     X:     0.4191      Y:     2.9655      Z:     0.8039     Total:     3.1010

*** Psi4 exiting successfully. Buy a developer a beer!
