                               Psi4 1.3.2 release

  ==> Input File <==

--------------------------------------------------------------------------
#psi4
#
memory 32 gb

molecule  {
0 1
 Cl       -1.8862660    -0.5037910    -0.0848630
  O        2.6328814    -0.5446505    -0.2106256
  C        0.5405760     0.7662660    -0.3133580
  C        1.3415020    -0.3416140     0.3595680
  C       -0.8647240     0.9315120     0.2382250
  H        0.5053200     0.5766010    -1.3901780
  H        1.0611350     1.7234130    -0.1680230
  H        1.3720670    -0.1781130     1.4478320
  H        0.8719920    -1.3105050     0.1837500
  H       -0.8516100     1.0739190     1.3211680
  H       -1.3679740     1.7845180    -0.2190030
  H        3.1302690     0.3666280     0.0389720
units angstrom
no_reorient  #important for SAPT in psi4, default
symmetry c1  #important for SAPT in psi4, default
}

set PROPERTIES_ORIGIN ["COM"]
properties('MP2/aug-cc-pvtz', properties = ['dipole'])
--------------------------------------------------------------------------

    Molecular point group: c1
  Charge       = 0
  Multiplicity = 1
  Basis Set: AUG-CC-PVTZ
    Blend: AUG-CC-PVTZ
  Basis Set: (AUG-CC-PVTZ AUX)
    Blend: AUG-CC-PVTZ-JKFIT

    Orbital Energies [Eh]
    ---------------------

    Doubly Occupied:

       1A   -104.826084     2A    -20.576989     3A    -11.301346
       4A    -11.281078     5A    -11.244572     6A    -10.550556
       7A     -8.017385     8A     -8.015613     9A     -8.015585
      10A     -1.348359    11A     -1.145648    12A     -1.034307
      13A     -0.907691    14A     -0.817877    15A     -0.694927
      16A     -0.642630    17A     -0.627843    18A     -0.609338
      19A     -0.562658    20A     -0.539472    21A     -0.522356
      22A     -0.485822    23A     -0.455503    24A     -0.436390
      25A     -0.431546

  @DF-RHF Final Energy:  -652.11420307218634

   => Energetics <=

    Nuclear Repulsion Energy =            224.4882734411576450
    One-Electron Energy =               -1343.0218023920342603
    Two-Electron Energy =                 466.4193258786902447
    Total Energy =                       -652.1142030721864558
  Basis Set: (AUG-CC-PVTZ AUX)
    Blend: AUG-CC-PVTZ-RI
    Molecular point group: c1

    Geometry (in Angstrom), charge = 0, multiplicity = 1:

       Center              X                  Y                   Z               Mass
    ------------   -----------------  -----------------  -----------------  -----------------
         CL          -1.813073479064    -0.440116144932    -0.066789346169    34.968852682000
         O            2.706073920936    -0.480975644932    -0.192551946169    15.994914619570
         C            0.613768520936     0.829940855068    -0.295284346169    12.000000000000
         C            1.414694520936    -0.277939144932     0.377641653831    12.000000000000
         C           -0.791531479064     0.995186855068     0.256298653831    12.000000000000
         H            0.578512520936     0.640275855068    -1.372104346169     1.007825032230
         H            1.134327520936     1.787087855068    -0.149949346169     1.007825032230
         H            1.445259520936    -0.114438144932     1.465905653831     1.007825032230
         H            0.945184520936    -1.246830144932     0.201823653831     1.007825032230
         H           -0.778417479064     1.137593855068     1.339241653831     1.007825032230
         H           -1.294781479064     1.848192855068    -0.200929346169     1.007825032230
         H            3.203461520936     0.430302855068     0.057045653831     1.007825032230

  Basis Set: AUG-CC-PVTZ
    Blend: AUG-CC-PVTZ
  Basis Set: (AUG-CC-PVTZ AUX)
    Blend: AUG-CC-PVTZ-JKFIT
	 Reference Energy          =    -652.1142030721863421 [Eh]
	 Singles Energy            =      -0.0000000000000000 [Eh]
	 Same-Spin Energy          =      -0.2545445923951365 [Eh]
	 Opposite-Spin Energy      =      -0.8342068396017924 [Eh]
	 Correlation Energy        =      -1.0887514319969289 [Eh]
	 Total Energy              =    -653.2029545041832534 [Eh]

	 ================> DF-SCS-MP2 Energies <==================
	-----------------------------------------------------------
	 SCS Same-Spin Scale       =       0.3333333333333333 [-]
	 SCS Opposite-Spin Scale   =       1.2000000000000000 [-]
	 SCS Same-Spin Energy      =      -0.0848481974650455 [Eh]
	 SCS Opposite-Spin Energy  =      -1.0010482075221510 [Eh]
	 SCS Correlation Energy    =      -1.0858964049871964 [Eh]
	 SCS Total Energy          =    -653.2000994771735805 [Eh]
	-----------------------------------------------------------

  Dipole Moment: [D]
     X:     0.5647      Y:     2.8809      Z:     1.0705     Total:     3.1248

*** Psi4 exiting successfully. Buy a developer a beer!
