                               Psi4 1.3.2 release

  ==> Input File <==

--------------------------------------------------------------------------
#psi4
#
memory 32 gb

molecule  {
0 1
 Cl       -1.8862660    -0.5037910    -0.0848630
  O        2.6551490    -0.4511250    -0.1848070
  C        0.5405760     0.7662660    -0.3133580
  C        1.3415020    -0.3416140     0.3595680
  C       -0.9787929     0.7712412     0.2021479
  H        0.5053200     0.5766010    -1.3901780
  H        1.0611350     1.7234130    -0.1680230
  H        1.3720670    -0.1781130     1.4478320
  H        0.8719920    -1.3105050     0.1837500
  H       -0.8516100     1.0739190     1.3211680
  H       -1.3679740     1.7845180    -0.2190030
  H        3.1302690     0.3666280     0.0389720
units angstrom
no_reorient  #important for SAPT in psi4, default
symmetry c1  #important for SAPT in psi4, default
}

set PROPERTIES_ORIGIN ["COM"]
properties('MP2/aug-cc-pvtz', properties = ['dipole'])
--------------------------------------------------------------------------

    Molecular point group: c1
  Charge       = 0
  Multiplicity = 1
  Basis Set: AUG-CC-PVTZ
    Blend: AUG-CC-PVTZ
  Basis Set: (AUG-CC-PVTZ AUX)
    Blend: AUG-CC-PVTZ-JKFIT

    Orbital Energies [Eh]
    ---------------------

    Doubly Occupied:

       1A   -104.840322     2A    -20.561724     3A    -11.299395
       4A    -11.278218     5A    -11.242252     6A    -10.568547
       7A     -8.035994     8A     -8.033346     9A     -8.033311
      10A     -1.358975    11A     -1.198369    12A     -1.028542
      13A     -0.892385    14A     -0.809221    15A     -0.697545
      16A     -0.647810    17A     -0.617475    18A     -0.614730
      19A     -0.577773    20A     -0.548714    21A     -0.533451
      22A     -0.491082    23A     -0.455240    24A     -0.422291
      25A     -0.413494

  @DF-RHF Final Energy:  -652.09079548735190

   => Energetics <=

    Nuclear Repulsion Energy =            227.4107094186902032
    One-Electron Energy =               -1348.6025969711199650
    Two-Electron Energy =                 469.1010920650778644
    Total Energy =                       -652.0907954873518975
  Basis Set: (AUG-CC-PVTZ AUX)
    Blend: AUG-CC-PVTZ-RI
    Molecular point group: c1

    Geometry (in Angstrom), charge = 0, multiplicity = 1:

       Center              X                  Y                   Z               Mass
    ------------   -----------------  -----------------  -----------------  -----------------
         CL          -1.802302641610    -0.435571113694    -0.066577059349    34.968852682000
         O            2.739112358390    -0.382905113694    -0.166521059349    15.994914619570
         C            0.624539358390     0.834485886306    -0.295072059349    12.000000000000
         C            1.425465358390    -0.273394113694     0.377853940651    12.000000000000
         C           -0.894829541610     0.839461086306     0.220433840651    12.000000000000
         H            0.589283358390     0.644820886306    -1.371892059349     1.007825032230
         H            1.145098358390     1.791632886306    -0.149737059349     1.007825032230
         H            1.456030358390    -0.109893113694     1.466117940651     1.007825032230
         H            0.955955358390    -1.242285113694     0.202035940651     1.007825032230
         H           -0.767646641610     1.142138886306     1.339453940651     1.007825032230
         H           -1.284010641610     1.852737886306    -0.200717059349     1.007825032230
         H            3.214232358390     0.434847886306     0.057257940651     1.007825032230

  Basis Set: AUG-CC-PVTZ
    Blend: AUG-CC-PVTZ
  Basis Set: (AUG-CC-PVTZ AUX)
    Blend: AUG-CC-PVTZ-JKFIT
	 Reference Energy          =    -652.0907954873518975 [Eh]
	 Singles Energy            =      -0.0000000000000000 [Eh]
	 Same-Spin Energy          =      -0.2556605874358502 [Eh]
	 Opposite-Spin Energy      =      -0.8337021582509772 [Eh]
	 Correlation Energy        =      -1.0893627456868273 [Eh]
	 Total Energy              =    -653.1801582330386964 [Eh]

	 ================> DF-SCS-MP2 Energies <==================
	-----------------------------------------------------------
	 SCS Same-Spin Scale       =       0.3333333333333333 [-]
	 SCS Opposite-Spin Scale   =       1.2000000000000000 [-]
	 SCS Same-Spin Energy      =      -0.0852201958119501 [Eh]
	 SCS Opposite-Spin Energy  =      -1.0004425899011726 [Eh]
	 SCS Correlation Energy    =      -1.0856627857131227 [Eh]
	 SCS Total Energy          =    -653.1764582730650091 [Eh]
	-----------------------------------------------------------

  Dipole Moment: [D]
     X:     0.0578      Y:     2.2777      Z:     0.9572     Total:     2.4714

*** Psi4 exiting successfully. Buy a developer a beer!
