                               Psi4 1.3.2 release

  ==> Input File <==

--------------------------------------------------------------------------
#psi4
#
memory 32 gb

molecule  {
0 1
 Cl       -1.8862660    -0.5037910    -0.0848630
  O        2.6551490    -0.4511250    -0.1848070
  C        0.5405760     0.7662660    -0.3133580
  C        1.3472967    -0.3190958     0.3684523
  C       -0.8647240     0.9315120     0.2382250
  H        0.5053200     0.5766010    -1.3901780
  H        1.0611350     1.7234130    -0.1680230
  H        1.3720670    -0.1781130     1.4478320
  H        0.8719920    -1.3105050     0.1837500
  H       -0.8516100     1.0739190     1.3211680
  H       -1.3679740     1.7845180    -0.2190030
  H        3.1302690     0.3666280     0.0389720
units angstrom
no_reorient  #important for SAPT in psi4, default
symmetry c1  #important for SAPT in psi4, default
}

set PROPERTIES_ORIGIN ["COM"]
properties('MP2/aug-cc-pvtz', properties = ['dipole'])
--------------------------------------------------------------------------

    Molecular point group: c1
  Charge       = 0
  Multiplicity = 1
  Basis Set: AUG-CC-PVTZ
    Blend: AUG-CC-PVTZ
  Basis Set: (AUG-CC-PVTZ AUX)
    Blend: AUG-CC-PVTZ-JKFIT

    Orbital Energies [Eh]
    ---------------------

    Doubly Occupied:

       1A   -104.826074     2A    -20.566115     3A    -11.300847
       4A    -11.282587     5A    -11.243436     6A    -10.550553
       7A     -8.017382     8A     -8.015613     9A     -8.015584
      10A     -1.363278    11A     -1.145895    12A     -1.037064
      13A     -0.912073    14A     -0.820126    15A     -0.704822
      16A     -0.645847    17A     -0.633959    18A     -0.610125
      19A     -0.565930    20A     -0.540795    21A     -0.521755
      22A     -0.484406    23A     -0.458394    24A     -0.436290
      25A     -0.431454

  @DF-RHF Final Energy:  -652.12838247437071

   => Energetics <=

    Nuclear Repulsion Energy =            225.0169684648011810
    One-Electron Energy =               -1344.0298929902496639
    Two-Electron Energy =                 466.8845420510776876
    Total Energy =                       -652.1283824743707100
  Basis Set: (AUG-CC-PVTZ AUX)
    Blend: AUG-CC-PVTZ-RI
    Molecular point group: c1

    Geometry (in Angstrom), charge = 0, multiplicity = 1:

       Center              X                  Y                   Z               Mass
    ------------   -----------------  -----------------  -----------------  -----------------
         CL          -1.817601359941    -0.458901277522    -0.072315680535    34.968852682000
         O            2.723813640059    -0.406235277522    -0.172259680535    15.994914619570
         C            0.609240640059     0.811155722478    -0.300810680535    12.000000000000
         C            1.415961340059    -0.274206077522     0.380999619465    12.000000000000
         C           -0.796059359941     0.976401722478     0.250772319465    12.000000000000
         H            0.573984640059     0.621490722478    -1.377630680535     1.007825032230
         H            1.129799640059     1.768302722478    -0.155475680535     1.007825032230
         H            1.440731640059    -0.133223277522     1.460379319465     1.007825032230
         H            0.940656640059    -1.265615277522     0.196297319465     1.007825032230
         H           -0.782945359941     1.118808722478     1.333715319465     1.007825032230
         H           -1.299309359941     1.829407722478    -0.206455680535     1.007825032230
         H            3.198933640059     0.411517722478     0.051519319465     1.007825032230

  Basis Set: AUG-CC-PVTZ
    Blend: AUG-CC-PVTZ
  Basis Set: (AUG-CC-PVTZ AUX)
    Blend: AUG-CC-PVTZ-JKFIT
	 Reference Energy          =    -652.1283824743707100 [Eh]
	 Singles Energy            =      -0.0000000000000000 [Eh]
	 Same-Spin Energy          =      -0.2533113225588989 [Eh]
	 Opposite-Spin Energy      =      -0.8306189383227290 [Eh]
	 Correlation Energy        =      -1.0839302608816279 [Eh]
	 Total Energy              =    -653.2123127352523397 [Eh]

	 ================> DF-SCS-MP2 Energies <==================
	-----------------------------------------------------------
	 SCS Same-Spin Scale       =       0.3333333333333333 [-]
	 SCS Opposite-Spin Scale   =       1.2000000000000000 [-]
	 SCS Same-Spin Energy      =      -0.0844371075196330 [Eh]
	 SCS Opposite-Spin Energy  =      -0.9967427259872748 [Eh]
	 SCS Correlation Energy    =      -1.0811798335069078 [Eh]
	 SCS Total Energy          =    -653.2095623078776043 [Eh]
	-----------------------------------------------------------

  Dipole Moment: [D]
     X:     0.5385      Y:     2.7965      Z:     1.0703     Total:     3.0424

*** Psi4 exiting successfully. Buy a developer a beer!
