                               Psi4 1.3.2 release

  ==> Input File <==

--------------------------------------------------------------------------
#psi4
#
memory 32 gb

molecule  {
0 1
 Cl       -1.8862660    -0.5037910    -0.0848630
  O        2.6551490    -0.4511250    -0.1848070
  C        0.5405760     0.7662660    -0.3133580
  C        1.5257202    -0.3569712     0.2832280
  C       -0.8647240     0.9315120     0.2382250
  H        0.5053200     0.5766010    -1.3901780
  H        1.0611350     1.7234130    -0.1680230
  H        1.3720670    -0.1781130     1.4478320
  H        0.8719920    -1.3105050     0.1837500
  H       -0.8516100     1.0739190     1.3211680
  H       -1.3679740     1.7845180    -0.2190030
  H        3.1302690     0.3666280     0.0389720
units angstrom
no_reorient  #important for SAPT in psi4, default
symmetry c1  #important for SAPT in psi4, default
}

set PROPERTIES_ORIGIN ["COM"]
properties('MP2/aug-cc-pvtz', properties = ['dipole'])
--------------------------------------------------------------------------

    Molecular point group: c1
  Charge       = 0
  Multiplicity = 1
  Basis Set: AUG-CC-PVTZ
    Blend: AUG-CC-PVTZ
  Basis Set: (AUG-CC-PVTZ AUX)
    Blend: AUG-CC-PVTZ-JKFIT

    Orbital Energies [Eh]
    ---------------------

    Doubly Occupied:

       1A   -104.821656     2A    -20.589867     3A    -11.297853
       4A    -11.293868     5A    -11.237232     6A    -10.546140
       7A     -8.012971     8A     -8.011207     9A     -8.011179
      10A     -1.468334    11A     -1.138062    12A     -1.016592
      13A     -0.908021    14A     -0.828777    15A     -0.735774
      16A     -0.677038    17A     -0.645840    18A     -0.624735
      19A     -0.597125    20A     -0.543195    21A     -0.515476
      22A     -0.453691    23A     -0.431937    24A     -0.428854
      25A     -0.406862

  @DF-RHF Final Energy:  -652.08432156198023

   => Energetics <=

    Nuclear Repulsion Energy =            225.5533888820707773
    One-Electron Energy =               -1344.7908510399759052
    Two-Electron Energy =                 467.1531405959249241
    Total Energy =                       -652.0843215619802322
  Basis Set: (AUG-CC-PVTZ AUX)
    Blend: AUG-CC-PVTZ-RI
    Molecular point group: c1

    Geometry (in Angstrom), charge = 0, multiplicity = 1:

       Center              X                  Y                   Z               Mass
    ------------   -----------------  -----------------  -----------------  -----------------
         CL          -1.840374335808    -0.454067073675    -0.061438128378    34.968852682000
         O            2.701040664192    -0.401401073675    -0.161382128378    15.994914619570
         C            0.586467664192     0.815989926325    -0.289933128378    12.000000000000
         C            1.571611864192    -0.307247273675     0.306652871622    12.000000000000
         C           -0.818832335808     0.981235926325     0.261649871622    12.000000000000
         H            0.551211664192     0.626324926325    -1.366753128378     1.007825032230
         H            1.107026664192     1.773136926325    -0.144598128378     1.007825032230
         H            1.417958664192    -0.128389073675     1.471256871622     1.007825032230
         H            0.917883664192    -1.260781073675     0.207174871622     1.007825032230
         H           -0.805718335808     1.123642926325     1.344592871622     1.007825032230
         H           -1.322082335808     1.834241926325    -0.195578128378     1.007825032230
         H            3.176160664192     0.416351926325     0.062396871622     1.007825032230

  Basis Set: AUG-CC-PVTZ
    Blend: AUG-CC-PVTZ
  Basis Set: (AUG-CC-PVTZ AUX)
    Blend: AUG-CC-PVTZ-JKFIT
	 Reference Energy          =    -652.0843215619802322 [Eh]
	 Singles Energy            =      -0.0000000000000000 [Eh]
	 Same-Spin Energy          =      -0.2539452612776084 [Eh]
	 Opposite-Spin Energy      =      -0.8294220470722816 [Eh]
	 Correlation Energy        =      -1.0833673083498900 [Eh]
	 Total Energy              =    -653.1676888703301529 [Eh]

	 ================> DF-SCS-MP2 Energies <==================
	-----------------------------------------------------------
	 SCS Same-Spin Scale       =       0.3333333333333333 [-]
	 SCS Opposite-Spin Scale   =       1.2000000000000000 [-]
	 SCS Same-Spin Energy      =      -0.0846484204258695 [Eh]
	 SCS Opposite-Spin Energy  =      -0.9953064564867379 [Eh]
	 SCS Correlation Energy    =      -1.0799548769126073 [Eh]
	 SCS Total Energy          =    -653.1642764388927844 [Eh]
	-----------------------------------------------------------

  Dipole Moment: [D]
     X:     1.4562      Y:     2.6474      Z:     0.7347     Total:     3.1095

*** Psi4 exiting successfully. Buy a developer a beer!
