                               Psi4 1.3.2 release

  ==> Input File <==

--------------------------------------------------------------------------
#psi4
#
memory 32 gb

molecule  {
0 1
 Cl       -1.8862660    -0.5037910    -0.0848630
  O        2.6448091    -0.4979830    -0.1980560
  C        0.5405760     0.7662660    -0.3133580
  C        1.3415020    -0.3416140     0.3595680
  C       -0.8647240     0.9315120     0.2382250
  H        0.5053200     0.5766010    -1.3901780
  H        1.0611350     1.7234130    -0.1680230
  H        1.3720670    -0.1781130     1.4478320
  H        0.8719920    -1.3105050     0.1837500
  H       -0.8516100     1.0739190     1.3211680
  H       -1.3679740     1.7845180    -0.2190030
  H        3.1302690     0.3666280     0.0389720
units angstrom
no_reorient  #important for SAPT in psi4, default
symmetry c1  #important for SAPT in psi4, default
}

set PROPERTIES_ORIGIN ["COM"]
properties('MP2/aug-cc-pvtz', properties = ['dipole'])
--------------------------------------------------------------------------

    Molecular point group: c1
  Charge       = 0
  Multiplicity = 1
  Basis Set: AUG-CC-PVTZ
    Blend: AUG-CC-PVTZ
  Basis Set: (AUG-CC-PVTZ AUX)
    Blend: AUG-CC-PVTZ-JKFIT

    Orbital Energies [Eh]
    ---------------------

    Doubly Occupied:

       1A   -104.826121     2A    -20.571316     3A    -11.300948
       4A    -11.281653     5A    -11.244033     6A    -10.550599
       7A     -8.017427     8A     -8.015658     9A     -8.015630
      10A     -1.354752    11A     -1.145643    12A     -1.034851
      13A     -0.909966    14A     -0.819105    15A     -0.698877
      16A     -0.644031    17A     -0.630704    18A     -0.609423
      19A     -0.565658    20A     -0.539742    21A     -0.521802
      22A     -0.487537    23A     -0.455388    24A     -0.436360
      25A     -0.431472

  @DF-RHF Final Energy:  -652.12374323014308

   => Energetics <=

    Nuclear Repulsion Energy =            224.7137805199950265
    One-Electron Energy =               -1343.4576531786572104
    Two-Electron Energy =                 466.6201294285191352
    Total Energy =                       -652.1237432301430772
  Basis Set: (AUG-CC-PVTZ AUX)
    Blend: AUG-CC-PVTZ-RI
    Molecular point group: c1

    Geometry (in Angstrom), charge = 0, multiplicity = 1:

       Center              X                  Y                   Z               Mass
    ------------   -----------------  -----------------  -----------------  -----------------
         CL          -1.815102680305    -0.448055458369    -0.068927750715    34.968852682000
         O            2.715972419695    -0.442247458369    -0.182120750715    15.994914619570
         C            0.611739319695     0.822001541631    -0.297422750715    12.000000000000
         C            1.412665319695    -0.285878458369     0.375503249285    12.000000000000
         C           -0.793560680305     0.987247541631     0.254160249285    12.000000000000
         H            0.576483319695     0.632336541631    -1.374242750715     1.007825032230
         H            1.132298319695     1.779148541631    -0.152087750715     1.007825032230
         H            1.443230319695    -0.122377458369     1.463767249285     1.007825032230
         H            0.943155319695    -1.254769458369     0.199685249285     1.007825032230
         H           -0.780446680305     1.129654541631     1.337103249285     1.007825032230
         H           -1.296810680305     1.840253541631    -0.203067750715     1.007825032230
         H            3.201432319695     0.422363541631     0.054907249285     1.007825032230

  Basis Set: AUG-CC-PVTZ
    Blend: AUG-CC-PVTZ
  Basis Set: (AUG-CC-PVTZ AUX)
    Blend: AUG-CC-PVTZ-JKFIT
	 Reference Energy          =    -652.1237432301430772 [Eh]
	 Singles Energy            =      -0.0000000000000000 [Eh]
	 Same-Spin Energy          =      -0.2538355227417571 [Eh]
	 Opposite-Spin Energy      =      -0.8322001380708173 [Eh]
	 Correlation Energy        =      -1.0860356608125743 [Eh]
	 Total Energy              =    -653.2097788909557039 [Eh]

	 ================> DF-SCS-MP2 Energies <==================
	-----------------------------------------------------------
	 SCS Same-Spin Scale       =       0.3333333333333333 [-]
	 SCS Opposite-Spin Scale   =       1.2000000000000000 [-]
	 SCS Same-Spin Energy      =      -0.0846118409139190 [Eh]
	 SCS Opposite-Spin Energy  =      -0.9986401656849807 [Eh]
	 SCS Correlation Energy    =      -1.0832520065988998 [Eh]
	 SCS Total Energy          =    -653.2069952367419319 [Eh]
	-----------------------------------------------------------

  Dipole Moment: [D]
     X:     0.5500      Y:     2.8304      Z:     1.0650     Total:     3.0737

*** Psi4 exiting successfully. Buy a developer a beer!
