                               Psi4 1.3.2 release

  ==> Input File <==

--------------------------------------------------------------------------
#psi4
#
memory 32 gb

molecule  {
0 1
 Cl       -1.8862660    -0.5037910    -0.0848630
  O        2.6710167    -0.3570660    -0.1563362
  C        0.5405760     0.7662660    -0.3133580
  C        1.3415020    -0.3416140     0.3595680
  C       -0.8647240     0.9315120     0.2382250
  H        0.5053200     0.5766010    -1.3901780
  H        1.0611350     1.7234130    -0.1680230
  H        1.3720670    -0.1781130     1.4478320
  H        0.8719920    -1.3105050     0.1837500
  H       -0.8516100     1.0739190     1.3211680
  H       -1.3679740     1.7845180    -0.2190030
  H        3.1302690     0.3666280     0.0389720
units angstrom
no_reorient  #important for SAPT in psi4, default
symmetry c1  #important for SAPT in psi4, default
}

set PROPERTIES_ORIGIN ["COM"]
properties('MP2/aug-cc-pvtz', properties = ['dipole'])
--------------------------------------------------------------------------

    Molecular point group: c1
  Charge       = 0
  Multiplicity = 1
  Basis Set: AUG-CC-PVTZ
    Blend: AUG-CC-PVTZ
  Basis Set: (AUG-CC-PVTZ AUX)
    Blend: AUG-CC-PVTZ-JKFIT

    Orbital Energies [Eh]
    ---------------------

    Doubly Occupied:

       1A   -104.826353     2A    -20.552050     3A    -11.299842
       4A    -11.285192     5A    -11.242703     6A    -10.550847
       7A     -8.017674     8A     -8.015912     9A     -8.015885
      10A     -1.381353    11A     -1.145893    12A     -1.038269
      13A     -0.920526    14A     -0.823858    15A     -0.715008
      16A     -0.654781    17A     -0.634556    18A     -0.608069
      19A     -0.575425    20A     -0.540113    21A     -0.517277
      22A     -0.488763    23A     -0.455871    24A     -0.436415
      25A     -0.431058

  @DF-RHF Final Energy:  -652.12500832422643

   => Energetics <=

    Nuclear Repulsion Energy =            225.5608113243960418
    One-Electron Energy =               -1345.0242496791802296
    Two-Electron Energy =                 467.3384300305577312
    Total Energy =                       -652.1250083242264282
  Basis Set: (AUG-CC-PVTZ AUX)
    Blend: AUG-CC-PVTZ-RI
    Molecular point group: c1

    Geometry (in Angstrom), charge = 0, multiplicity = 1:

       Center              X                  Y                   Z               Mass
    ------------   -----------------  -----------------  -----------------  -----------------
         CL          -1.819561251062    -0.472028978090    -0.076025336160    34.968852682000
         O            2.737721448938    -0.325303978090    -0.147498536160    15.994914619570
         C            0.607280748938     0.798028021910    -0.304520336160    12.000000000000
         C            1.408206748938    -0.309851978090     0.368405663840    12.000000000000
         C           -0.798019251062     0.963274021910     0.247062663840    12.000000000000
         H            0.572024748938     0.608363021910    -1.381340336160     1.007825032230
         H            1.127839748938     1.755175021910    -0.159185336160     1.007825032230
         H            1.438771748938    -0.146350978090     1.456669663840     1.007825032230
         H            0.938696748938    -1.278742978090     0.192587663840     1.007825032230
         H           -0.784905251062     1.105681021910     1.330005663840     1.007825032230
         H           -1.301269251062     1.816280021910    -0.210165336160     1.007825032230
         H            3.196973748938     0.398390021910     0.047809663840     1.007825032230

  Basis Set: AUG-CC-PVTZ
    Blend: AUG-CC-PVTZ
  Basis Set: (AUG-CC-PVTZ AUX)
    Blend: AUG-CC-PVTZ-JKFIT
	 Reference Energy          =    -652.1250083242264282 [Eh]
	 Singles Energy            =      -0.0000000000000000 [Eh]
	 Same-Spin Energy          =      -0.2519239157491461 [Eh]
	 Opposite-Spin Energy      =      -0.8272018538472945 [Eh]
	 Correlation Energy        =      -1.0791257695964407 [Eh]
	 Total Energy              =    -653.2041340938228586 [Eh]

	 ================> DF-SCS-MP2 Energies <==================
	-----------------------------------------------------------
	 SCS Same-Spin Scale       =       0.3333333333333333 [-]
	 SCS Opposite-Spin Scale   =       1.2000000000000000 [-]
	 SCS Same-Spin Energy      =      -0.0839746385830487 [Eh]
	 SCS Opposite-Spin Energy  =      -0.9926422246167533 [Eh]
	 SCS Correlation Energy    =      -1.0766168631998021 [Eh]
	 SCS Total Energy          =    -653.2016251874262025 [Eh]
	-----------------------------------------------------------

  Dipole Moment: [D]
     X:     0.4838      Y:     2.6469      Z:     1.0459     Total:     2.8868

*** Psi4 exiting successfully. Buy a developer a beer!
