                               Psi4 1.3.2 release

  ==> Input File <==

--------------------------------------------------------------------------
#psi4
#
memory 32 gb

molecule  {
0 1
 Cl       -1.8756186    -0.4962447    -0.1460036
  O        2.6551490    -0.4511250    -0.1848070
  C        0.5405760     0.7662660    -0.3133580
  C        1.3415020    -0.3416140     0.3595680
  C       -0.8647240     0.9315120     0.2382250
  H        0.5053200     0.5766010    -1.3901780
  H        1.0611350     1.7234130    -0.1680230
  H        1.3720670    -0.1781130     1.4478320
  H        0.8719920    -1.3105050     0.1837500
  H       -0.8516100     1.0739190     1.3211680
  H       -1.3679740     1.7845180    -0.2190030
  H        3.1302690     0.3666280     0.0389720
units angstrom
no_reorient  #important for SAPT in psi4, default
symmetry c1  #important for SAPT in psi4, default
}

set PROPERTIES_ORIGIN ["COM"]
properties('MP2/aug-cc-pvtz', properties = ['dipole'])
--------------------------------------------------------------------------

    Molecular point group: c1
  Charge       = 0
  Multiplicity = 1
  Basis Set: AUG-CC-PVTZ
    Blend: AUG-CC-PVTZ
  Basis Set: (AUG-CC-PVTZ AUX)
    Blend: AUG-CC-PVTZ-JKFIT

    Orbital Energies [Eh]
    ---------------------

    Doubly Occupied:

       1A   -104.826157     2A    -20.565181     3A    -11.300650
       4A    -11.282431     5A    -11.243063     6A    -10.550652
       7A     -8.017479     8A     -8.015711     9A     -8.015684
      10A     -1.362248    11A     -1.146021    12A     -1.035080
      13A     -0.912812    14A     -0.820622    15A     -0.703492
      16A     -0.646813    17A     -0.632935    18A     -0.608930
      19A     -0.569291    20A     -0.539046    21A     -0.520759
      22A     -0.488460    23A     -0.455220    24A     -0.436686
      25A     -0.431131

  @DF-RHF Final Energy:  -652.12923502343767

   => Energetics <=

    Nuclear Repulsion Energy =            225.1624035969198587
    One-Electron Energy =               -1344.3301717358078804
    Two-Electron Energy =                 467.0385331154503206
    Total Energy =                       -652.1292350234377864
  Basis Set: (AUG-CC-PVTZ AUX)
    Blend: AUG-CC-PVTZ-RI
    Molecular point group: c1

    Geometry (in Angstrom), charge = 0, multiplicity = 1:

       Center              X                  Y                   Z               Mass
    ------------   -----------------  -----------------  -----------------  -----------------
         CL          -1.810174505101    -0.451287619032    -0.109581966235    34.968852682000
         O            2.720593094899    -0.406167919032    -0.148385366235    15.994914619570
         C            0.606020094899     0.811223080968    -0.276936366235    12.000000000000
         C            1.406946094899    -0.296656919032     0.395989633765    12.000000000000
         C           -0.799279905101     0.976469080968     0.274646633765    12.000000000000
         H            0.570764094899     0.621558080968    -1.353756366235     1.007825032230
         H            1.126579094899     1.768370080968    -0.131601366235     1.007825032230
         H            1.437511094899    -0.133155919032     1.484253633765     1.007825032230
         H            0.937436094899    -1.265547919032     0.220171633765     1.007825032230
         H           -0.786165905101     1.118876080968     1.357589633765     1.007825032230
         H           -1.302529905101     1.829475080968    -0.182581366235     1.007825032230
         H            3.195713094899     0.411585080968     0.075393633765     1.007825032230

  Basis Set: AUG-CC-PVTZ
    Blend: AUG-CC-PVTZ
  Basis Set: (AUG-CC-PVTZ AUX)
    Blend: AUG-CC-PVTZ-JKFIT
	 Reference Energy          =    -652.1292350234376727 [Eh]
	 Singles Energy            =      -0.0000000000000000 [Eh]
	 Same-Spin Energy          =      -0.2531976054826328 [Eh]
	 Opposite-Spin Energy      =      -0.8304218969758927 [Eh]
	 Correlation Energy        =      -1.0836195024585256 [Eh]
	 Total Energy              =    -653.2128545258962049 [Eh]

	 ================> DF-SCS-MP2 Energies <==================
	-----------------------------------------------------------
	 SCS Same-Spin Scale       =       0.3333333333333333 [-]
	 SCS Opposite-Spin Scale   =       1.2000000000000000 [-]
	 SCS Same-Spin Energy      =      -0.0843992018275443 [Eh]
	 SCS Opposite-Spin Energy  =      -0.9965062763710713 [Eh]
	 SCS Correlation Energy    =      -1.0809054781986156 [Eh]
	 SCS Total Energy          =    -653.2101405016362605 [Eh]
	-----------------------------------------------------------

  Dipole Moment: [D]
     X:     0.5167      Y:     2.7678      Z:     1.1082     Total:     3.0259

*** Psi4 exiting successfully. Buy a developer a beer!
