                               Psi4 1.3.2 release

  ==> Input File <==

--------------------------------------------------------------------------
#psi4
#
memory 32 gb

molecule  {
0 1
 Cl       -1.7878920    -0.5554674    -0.1421455
  O        2.6551490    -0.4511250    -0.1848070
  C        0.5405760     0.7662660    -0.3133580
  C        1.3415020    -0.3416140     0.3595680
  C       -0.8647240     0.9315120     0.2382250
  H        0.5053200     0.5766010    -1.3901780
  H        1.0611350     1.7234130    -0.1680230
  H        1.3720670    -0.1781130     1.4478320
  H        0.8719920    -1.3105050     0.1837500
  H       -0.8516100     1.0739190     1.3211680
  H       -1.3679740     1.7845180    -0.2190030
  H        3.1302690     0.3666280     0.0389720
units angstrom
no_reorient  #important for SAPT in psi4, default
symmetry c1  #important for SAPT in psi4, default
}

set PROPERTIES_ORIGIN ["COM"]
properties('MP2/aug-cc-pvtz', properties = ['dipole'])
--------------------------------------------------------------------------

    Molecular point group: c1
  Charge       = 0
  Multiplicity = 1
  Basis Set: AUG-CC-PVTZ
    Blend: AUG-CC-PVTZ
  Basis Set: (AUG-CC-PVTZ AUX)
    Blend: AUG-CC-PVTZ-JKFIT

    Orbital Energies [Eh]
    ---------------------

    Doubly Occupied:

       1A   -104.826044     2A    -20.564396     3A    -11.300988
       4A    -11.281264     5A    -11.241878     6A    -10.550623
       7A     -8.017442     8A     -8.015676     9A     -8.015654
      10A     -1.361431    11A     -1.147435    12A     -1.032739
      13A     -0.913301    14A     -0.820225    15A     -0.702820
      16A     -0.647496    17A     -0.632552    18A     -0.607437
      19A     -0.570412    20A     -0.538018    21A     -0.520122
      22A     -0.487641    23A     -0.453780    24A     -0.436756
      25A     -0.431632

  @DF-RHF Final Energy:  -652.12806565730682

   => Energetics <=

    Nuclear Repulsion Energy =            226.4610293667186340
    One-Electron Energy =               -1346.9426654388062161
    Two-Electron Energy =                 468.3535704147808474
    Total Energy =                       -652.1280656573068200
  Basis Set: (AUG-CC-PVTZ AUX)
    Blend: AUG-CC-PVTZ-RI
    Molecular point group: c1

    Geometry (in Angstrom), charge = 0, multiplicity = 1:

       Center              X                  Y                   Z               Mass
    ------------   -----------------  -----------------  -----------------  -----------------
         CL          -1.755076559717    -0.488483282492    -0.107158831370    34.968852682000
         O            2.687964440283    -0.384140882492    -0.149820331370    15.994914619570
         C            0.573391440283     0.833250117508    -0.278371331370    12.000000000000
         C            1.374317440283    -0.274629882492     0.394554668630    12.000000000000
         C           -0.831908559717     0.998496117508     0.273211668630    12.000000000000
         H            0.538135440283     0.643585117508    -1.355191331370     1.007825032230
         H            1.093950440283     1.790397117508    -0.133036331370     1.007825032230
         H            1.404882440283    -0.111128882492     1.482818668630     1.007825032230
         H            0.904807440283    -1.243520882492     0.218736668630     1.007825032230
         H           -0.818794559717     1.140903117508     1.356154668630     1.007825032230
         H           -1.335158559717     1.851502117508    -0.184016331370     1.007825032230
         H            3.163084440283     0.433612117508     0.073958668630     1.007825032230

  Basis Set: AUG-CC-PVTZ
    Blend: AUG-CC-PVTZ
  Basis Set: (AUG-CC-PVTZ AUX)
    Blend: AUG-CC-PVTZ-JKFIT
	 Reference Energy          =    -652.1280656573068200 [Eh]
	 Singles Energy            =      -0.0000000000000000 [Eh]
	 Same-Spin Energy          =      -0.2534873954929847 [Eh]
	 Opposite-Spin Energy      =      -0.8308027385418919 [Eh]
	 Correlation Energy        =      -1.0842901340348767 [Eh]
	 Total Energy              =    -653.2123557913416789 [Eh]

	 ================> DF-SCS-MP2 Energies <==================
	-----------------------------------------------------------
	 SCS Same-Spin Scale       =       0.3333333333333333 [-]
	 SCS Opposite-Spin Scale   =       1.2000000000000000 [-]
	 SCS Same-Spin Energy      =      -0.0844957984976616 [Eh]
	 SCS Opposite-Spin Energy  =      -0.9969632862502702 [Eh]
	 SCS Correlation Energy    =      -1.0814590847479317 [Eh]
	 SCS Total Energy          =    -653.2095247420547821 [Eh]
	-----------------------------------------------------------

  Dipole Moment: [D]
     X:     0.4218      Y:     2.8072      Z:     1.1053     Total:     3.0463

*** Psi4 exiting successfully. Buy a developer a beer!
