                               Psi4 1.3.2 release

  ==> Input File <==

--------------------------------------------------------------------------
#psi4
#
memory 32 gb

molecule  {
0 1
 Cl       -1.8862660    -0.5037910    -0.0848630
  O        2.6551490    -0.4511250    -0.1848070
  C        0.5405760     0.7662660    -0.3133580
  C        1.3534898    -0.2966179     0.3771682
  C       -0.8647240     0.9315120     0.2382250
  H        0.5053200     0.5766010    -1.3901780
  H        1.0611350     1.7234130    -0.1680230
  H        1.3720670    -0.1781130     1.4478320
  H        0.8719920    -1.3105050     0.1837500
  H       -0.8516100     1.0739190     1.3211680
  H       -1.3679740     1.7845180    -0.2190030
  H        3.1302690     0.3666280     0.0389720
units angstrom
no_reorient  #important for SAPT in psi4, default
symmetry c1  #important for SAPT in psi4, default
}

set PROPERTIES_ORIGIN ["COM"]
properties('MP2/aug-cc-pvtz', properties = ['dipole'])
--------------------------------------------------------------------------

    Molecular point group: c1
  Charge       = 0
  Multiplicity = 1
  Basis Set: AUG-CC-PVTZ
    Blend: AUG-CC-PVTZ
  Basis Set: (AUG-CC-PVTZ AUX)
    Blend: AUG-CC-PVTZ-JKFIT

    Orbital Energies [Eh]
    ---------------------

    Doubly Occupied:

       1A   -104.825961     2A    -20.567051     3A    -11.301132
       4A    -11.282863     5A    -11.243424     6A    -10.550436
       7A     -8.017265     8A     -8.015494     9A     -8.015465
      10A     -1.364295    11A     -1.146106    12A     -1.038486
      13A     -0.911512    14A     -0.819887    15A     -0.705940
      16A     -0.645359    17A     -0.635161    18A     -0.611005
      19A     -0.563718    20A     -0.541557    21A     -0.522660
      22A     -0.479568    23A     -0.461308    24A     -0.436221
      25A     -0.431297

  @DF-RHF Final Energy:  -652.12588502776532

   => Energetics <=

    Nuclear Repulsion Energy =            225.0605879616424545
    One-Electron Energy =               -1344.1066035091025697
    Two-Electron Energy =                 466.9201305196948510
    Total Energy =                       -652.1258850277654346
  Basis Set: (AUG-CC-PVTZ AUX)
    Blend: AUG-CC-PVTZ-RI
    Molecular point group: c1

    Geometry (in Angstrom), charge = 0, multiplicity = 1:

       Center              X                  Y                   Z               Mass
    ------------   -----------------  -----------------  -----------------  -----------------
         CL          -1.818391812526    -0.461770230738    -0.073428129177    34.968852682000
         O            2.723023187474    -0.409104230738    -0.173372129177    15.994914619570
         C            0.608450187474     0.808286769262    -0.301923129177    12.000000000000
         C            1.421363987474    -0.254597130738     0.388603070823    12.000000000000
         C           -0.796849812526     0.973532769262     0.249659870823    12.000000000000
         H            0.573194187474     0.618621769262    -1.378743129177     1.007825032230
         H            1.129009187474     1.765433769262    -0.156588129177     1.007825032230
         H            1.439941187474    -0.136092230738     1.459266870823     1.007825032230
         H            0.939866187474    -1.268484230738     0.195184870823     1.007825032230
         H           -0.783735812526     1.115939769262     1.332602870823     1.007825032230
         H           -1.300099812526     1.826538769262    -0.207568129177     1.007825032230
         H            3.198143187474     0.408648769262     0.050406870823     1.007825032230

  Basis Set: AUG-CC-PVTZ
    Blend: AUG-CC-PVTZ
  Basis Set: (AUG-CC-PVTZ AUX)
    Blend: AUG-CC-PVTZ-JKFIT
	 Reference Energy          =    -652.1258850277653210 [Eh]
	 Singles Energy            =      -0.0000000000000000 [Eh]
	 Same-Spin Energy          =      -0.2534938665579575 [Eh]
	 Opposite-Spin Energy      =      -0.8309553810708330 [Eh]
	 Correlation Energy        =      -1.0844492476287906 [Eh]
	 Total Energy              =    -653.2103342753940751 [Eh]

	 ================> DF-SCS-MP2 Energies <==================
	-----------------------------------------------------------
	 SCS Same-Spin Scale       =       0.3333333333333333 [-]
	 SCS Opposite-Spin Scale   =       1.2000000000000000 [-]
	 SCS Same-Spin Energy      =      -0.0844979555193192 [Eh]
	 SCS Opposite-Spin Energy  =      -0.9971464572849995 [Eh]
	 SCS Correlation Energy    =      -1.0816444128043188 [Eh]
	 SCS Total Energy          =    -653.2075294405696013 [Eh]
	-----------------------------------------------------------

  Dipole Moment: [D]
     X:     0.5477      Y:     2.8191      Z:     1.0800     Total:     3.0682

*** Psi4 exiting successfully. Buy a developer a beer!
