                               Psi4 1.3.2 release

  ==> Input File <==

--------------------------------------------------------------------------
#psi4
#
memory 32 gb

molecule  {
0 1
 Cl       -1.8862660    -0.5037910    -0.0848630
  O        2.6551490    -0.4511250    -0.1848070
  C        0.5405760     0.7662660    -0.3133580
  C        1.3415020    -0.3416140     0.3595680
  C       -0.7506551     1.0917828     0.2743021
  H        0.5053200     0.5766010    -1.3901780
  H        1.0611350     1.7234130    -0.1680230
  H        1.3720670    -0.1781130     1.4478320
  H        0.8719920    -1.3105050     0.1837500
  H       -0.8516100     1.0739190     1.3211680
  H       -1.3679740     1.7845180    -0.2190030
  H        3.1302690     0.3666280     0.0389720
units angstrom
no_reorient  #important for SAPT in psi4, default
symmetry c1  #important for SAPT in psi4, default
}

set PROPERTIES_ORIGIN ["COM"]
properties('MP2/aug-cc-pvtz', properties = ['dipole'])
--------------------------------------------------------------------------

    Molecular point group: c1
  Charge       = 0
  Multiplicity = 1
  Basis Set: AUG-CC-PVTZ
    Blend: AUG-CC-PVTZ
  Basis Set: (AUG-CC-PVTZ AUX)
    Blend: AUG-CC-PVTZ-JKFIT

    Orbital Energies [Eh]
    ---------------------

    Doubly Occupied:

       1A   -104.802055     2A    -20.570340     3A    -11.315588
       4A    -11.288954     5A    -11.250903     6A    -10.525684
       7A     -7.992205     8A     -7.990829     9A     -7.990803
      10A     -1.367362    11A     -1.128690    12A     -1.030272
      13A     -0.930139    14A     -0.834597    15A     -0.713921
      16A     -0.658793    17A     -0.646333    18A     -0.631728
      19A     -0.567271    20A     -0.553966    21A     -0.508469
      22A     -0.459422    23A     -0.455692    24A     -0.425484
      25A     -0.424853

  @DF-RHF Final Energy:  -652.11181220246795

   => Energetics <=

    Nuclear Repulsion Energy =            222.9413355108117969
    One-Electron Energy =               -1339.9775921640109573
    Two-Electron Energy =                 464.9244444507312437
    Total Energy =                       -652.1118122024679451
  Basis Set: (AUG-CC-PVTZ AUX)
    Blend: AUG-CC-PVTZ-RI
    Molecular point group: c1

    Geometry (in Angstrom), charge = 0, multiplicity = 1:

       Center              X                  Y                   Z               Mass
    ------------   -----------------  -----------------  -----------------  -----------------
         CL          -1.831420872189    -0.476483247584    -0.075786417170    34.968852682000
         O            2.709994127811    -0.423817247584    -0.175730417170    15.994914619570
         C            0.595421127811     0.793573752416    -0.304281417170    12.000000000000
         C            1.396347127811    -0.314306247584     0.368644582830    12.000000000000
         C           -0.695809972189     1.119090552416     0.283378682830    12.000000000000
         H            0.560165127811     0.603908752416    -1.381101417170     1.007825032230
         H            1.115980127811     1.750720752416    -0.158946417170     1.007825032230
         H            1.426912127811    -0.150805247584     1.456908582830     1.007825032230
         H            0.926837127811    -1.283197247584     0.192826582830     1.007825032230
         H           -0.796764872189     1.101226752416     1.330244582830     1.007825032230
         H           -1.313128872189     1.811825752416    -0.209926417170     1.007825032230
         H            3.185114127811     0.393935752416     0.048048582830     1.007825032230

  Basis Set: AUG-CC-PVTZ
    Blend: AUG-CC-PVTZ
  Basis Set: (AUG-CC-PVTZ AUX)
    Blend: AUG-CC-PVTZ-JKFIT
	 Reference Energy          =    -652.1118122024679451 [Eh]
	 Singles Energy            =      -0.0000000000000000 [Eh]
	 Same-Spin Energy          =      -0.2527204855907946 [Eh]
	 Opposite-Spin Energy      =      -0.8298214997108635 [Eh]
	 Correlation Energy        =      -1.0825419853016580 [Eh]
	 Total Energy              =    -653.1943541877695907 [Eh]

	 ================> DF-SCS-MP2 Energies <==================
	-----------------------------------------------------------
	 SCS Same-Spin Scale       =       0.3333333333333333 [-]
	 SCS Opposite-Spin Scale   =       1.2000000000000000 [-]
	 SCS Same-Spin Energy      =      -0.0842401618635982 [Eh]
	 SCS Opposite-Spin Energy  =      -0.9957857996530362 [Eh]
	 SCS Correlation Energy    =      -1.0800259615166343 [Eh]
	 SCS Total Energy          =    -653.1918381639845848 [Eh]
	-----------------------------------------------------------

  Dipole Moment: [D]
     X:     1.1440      Y:     3.3072      Z:     1.1396     Total:     3.6804

*** Psi4 exiting successfully. Buy a developer a beer!
