                               Psi4 1.4a3.dev225

  ==> Input File <==

--------------------------------------------------------------------------
#psi4
#
memory 32 gb

molecule  {
0 1
 Cl       -1.8863280    -0.5037310    -0.0848350
  O        2.6552870    -0.4508740    -0.1847800
  C        0.5406420     0.7662540    -0.3132380
  C        1.3413940    -0.3419500     0.3592880
  C       -0.8361994     0.9715593     0.2472169
  H        0.5055580     0.5770700    -1.3901400
  H        1.0611570     1.7233420    -0.1673410
  H        1.3716790    -0.1791760     1.4476590
  H        0.8721100    -1.3108220     0.1827430
  H       -0.8516430     1.0741000     1.3211200
  H       -1.3678240     1.7844860    -0.2192100
  H        3.1303420     0.3666260     0.0401010
units angstrom
no_reorient  #important for SAPT in psi4, default
symmetry c1  #important for SAPT in psi4, default
}

set PROPERTIES_ORIGIN ["COM"]
properties('MP2/aug-cc-pvtz', properties = ['dipole'])
--------------------------------------------------------------------------

    Molecular point group: c1
  Charge       = 0
  Multiplicity = 1
  Basis Set: AUG-CC-PVTZ
    Blend: AUG-CC-PVTZ
  Basis Set: (AUG-CC-PVTZ AUX)
    Blend: AUG-CC-PVTZ-JKFIT

    Orbital Energies [Eh]
    ---------------------

    Doubly Occupied:

       1A   -104.821080     2A    -20.566394     3A    -11.303003
       4A    -11.283932     5A    -11.244746     6A    -10.545147
       7A     -8.011877     8A     -8.010234     9A     -8.010207
      10A     -1.363423    11A     -1.138149    12A     -1.035941
      13A     -0.917497    14A     -0.823808    15A     -0.705718
      16A     -0.647797    17A     -0.638009    18A     -0.613247
      19A     -0.567895    20A     -0.542934    21A     -0.513580
      22A     -0.485057    23A     -0.455582    24A     -0.435444
      25A     -0.431924

  @DF-RHF Final Energy:  -652.12886092155031

   => Energetics <=

    Nuclear Repulsion Energy =            224.4360190736733784
    One-Electron Energy =               -1342.9045067083200138
    Two-Electron Energy =                 466.3396267130962656
    Total Energy =                       -652.1288609215503129
  Basis Set: (AUG-CC-PVTZ AUX)
    Blend: AUG-CC-PVTZ-RI
    Molecular point group: c1

    Geometry (in Angstrom), charge = 0, multiplicity = 1:

       Center              X                  Y                   Z               Mass
    ------------   -----------------  -----------------  -----------------  -----------------
         CL          -1.820561463129    -0.461090243685    -0.072300437913    34.968852682000
         O            2.721053536871    -0.408233243685    -0.172245437913    15.994914619570
         C            0.606408536871     0.808894756315    -0.300703437913    12.000000000000
         C            1.407160536871    -0.299309243685     0.371822562087    12.000000000000
         C           -0.770432863129     1.014200056315     0.259751462087    12.000000000000
         H            0.571324536871     0.619710756315    -1.377605437913     1.007825032230
         H            1.126923536871     1.765982756315    -0.154806437913     1.007825032230
         H            1.437445536871    -0.136535243685     1.460193562087     1.007825032230
         H            0.937876536871    -1.268181243685     0.195277562087     1.007825032230
         H           -0.785876463129     1.116740756315     1.333654562087     1.007825032230
         H           -1.302057463129     1.827126756315    -0.206675437913     1.007825032230
         H            3.196108536871     0.409266756315     0.052635562087     1.007825032230

  Basis Set: AUG-CC-PVTZ
    Blend: AUG-CC-PVTZ
  Basis Set: (AUG-CC-PVTZ AUX)
    Blend: AUG-CC-PVTZ-JKFIT
	 Reference Energy          =    -652.1288609215503129 [Eh]
	 Singles Energy            =      -0.0000000000000000 [Eh]
	 Same-Spin Energy          =      -0.2529022364045257 [Eh]
	 Opposite-Spin Energy      =      -0.8300430935895522 [Eh]
	 Correlation Energy        =      -1.0829453299940779 [Eh]
	 Total Energy              =    -653.2118062515444308 [Eh]

	 ================> DF-SCS-MP2 Energies <==================
	-----------------------------------------------------------
	 SCS Same-Spin Scale       =       0.3333333333333333 [-]
	 SCS Opposite-Spin Scale   =       1.2000000000000000 [-]
	 SCS Same-Spin Energy      =      -0.0843007454681752 [Eh]
	 SCS Opposite-Spin Energy  =      -0.9960517123074626 [Eh]
	 SCS Correlation Energy    =      -1.0803524577756378 [Eh]
	 SCS Total Energy          =    -653.2092133793260018 [Eh]
	-----------------------------------------------------------

  Dipole Moment: [D]
     X:     0.6701      Y:     2.9023      Z:     1.0825     Total:     3.1693

*** Psi4 exiting successfully. Buy a developer a beer!
