                               Psi4 1.3.2 release

  ==> Input File <==

--------------------------------------------------------------------------
#psi4
#
memory 32 gb

molecule  {
0 1
 Cl       -1.8862660    -0.5037910    -0.0848630
  O        2.6641873    -0.4885073    -0.1532001
  C        0.5405760     0.7662660    -0.3133580
  C        1.3415020    -0.3416140     0.3595680
  C       -0.8647240     0.9315120     0.2382250
  H        0.5053200     0.5766010    -1.3901780
  H        1.0611350     1.7234130    -0.1680230
  H        1.3720670    -0.1781130     1.4478320
  H        0.8719920    -1.3105050     0.1837500
  H       -0.8516100     1.0739190     1.3211680
  H       -1.3679740     1.7845180    -0.2190030
  H        3.1302690     0.3666280     0.0389720
units angstrom
no_reorient  #important for SAPT in psi4, default
symmetry c1  #important for SAPT in psi4, default
}

set PROPERTIES_ORIGIN ["COM"]
properties('MP2/aug-cc-pvtz', properties = ['dipole'])
--------------------------------------------------------------------------

    Molecular point group: c1
  Charge       = 0
  Multiplicity = 1
  Basis Set: AUG-CC-PVTZ
    Blend: AUG-CC-PVTZ
  Basis Set: (AUG-CC-PVTZ AUX)
    Blend: AUG-CC-PVTZ-JKFIT

    Orbital Energies [Eh]
    ---------------------

    Doubly Occupied:

       1A   -104.826535     2A    -20.567902     3A    -11.301521
       4A    -11.281881     5A    -11.244887     6A    -10.551012
       7A     -8.017841     8A     -8.016071     9A     -8.016042
      10A     -1.358581    11A     -1.146181    12A     -1.035864
      13A     -0.911648    14A     -0.820589    15A     -0.700256
      16A     -0.646240    17A     -0.630928    18A     -0.610766
      19A     -0.568350    20A     -0.540335    21A     -0.521434
      22A     -0.488418    23A     -0.454092    24A     -0.436798
      25A     -0.432299

  @DF-RHF Final Energy:  -652.12739372272029

   => Energetics <=

    Nuclear Repulsion Energy =            224.6724933436534570
    One-Electron Energy =               -1343.3468296247865510
    Two-Electron Energy =                 466.5469425584126952
    Total Energy =                       -652.1273937227203987
  Basis Set: (AUG-CC-PVTZ AUX)
    Blend: AUG-CC-PVTZ-RI
    Molecular point group: c1

    Geometry (in Angstrom), charge = 0, multiplicity = 1:

       Center              X                  Y                   Z               Mass
    ------------   -----------------  -----------------  -----------------  -----------------
         CL          -1.818399398655    -0.449667512847    -0.076558865508    34.968852682000
         O            2.732053901345    -0.434383812847    -0.144895965508    15.994914619570
         C            0.608442601345     0.820389487153    -0.305053865508    12.000000000000
         C            1.409368601345    -0.287490512847     0.367872134492    12.000000000000
         C           -0.796857398655     0.985635487153     0.246529134492    12.000000000000
         H            0.573186601345     0.630724487153    -1.381873865508     1.007825032230
         H            1.129001601345     1.777536487153    -0.159718865508     1.007825032230
         H            1.439933601345    -0.123989512847     1.456136134492     1.007825032230
         H            0.939858601345    -1.256381512847     0.192054134492     1.007825032230
         H           -0.783743398655     1.128042487153     1.329472134492     1.007825032230
         H           -1.300107398655     1.838641487153    -0.210698865508     1.007825032230
         H            3.198135601345     0.420751487153     0.047276134492     1.007825032230

  Basis Set: AUG-CC-PVTZ
    Blend: AUG-CC-PVTZ
  Basis Set: (AUG-CC-PVTZ AUX)
    Blend: AUG-CC-PVTZ-JKFIT
	 Reference Energy          =    -652.1273937227202850 [Eh]
	 Singles Energy            =      -0.0000000000000000 [Eh]
	 Same-Spin Energy          =      -0.2534345343250889 [Eh]
	 Opposite-Spin Energy      =      -0.8311415187773975 [Eh]
	 Correlation Energy        =      -1.0845760531024864 [Eh]
	 Total Energy              =    -653.2119697758228085 [Eh]

	 ================> DF-SCS-MP2 Energies <==================
	-----------------------------------------------------------
	 SCS Same-Spin Scale       =       0.3333333333333333 [-]
	 SCS Opposite-Spin Scale   =       1.2000000000000000 [-]
	 SCS Same-Spin Energy      =      -0.0844781781083630 [Eh]
	 SCS Opposite-Spin Energy  =      -0.9973698225328770 [Eh]
	 SCS Correlation Energy    =      -1.0818480006412399 [Eh]
	 SCS Total Energy          =    -653.2092417233615151 [Eh]
	-----------------------------------------------------------

  Dipole Moment: [D]
     X:     0.4892      Y:     2.8430      Z:     0.9737     Total:     3.0447

*** Psi4 exiting successfully. Buy a developer a beer!
