                               Psi4 1.3.2 release

  ==> Input File <==

--------------------------------------------------------------------------
#psi4
#
memory 32 gb

molecule  {
0 1
 Cl       -1.8862660    -0.5037910    -0.0848630
  O        2.6551490    -0.4511250    -0.1848070
  C        0.5405760     0.7662660    -0.3133580
  C        1.3311147    -0.3867435     0.3413046
  C       -0.8647240     0.9315120     0.2382250
  H        0.5053200     0.5766010    -1.3901780
  H        1.0611350     1.7234130    -0.1680230
  H        1.3720670    -0.1781130     1.4478320
  H        0.8719920    -1.3105050     0.1837500
  H       -0.8516100     1.0739190     1.3211680
  H       -1.3679740     1.7845180    -0.2190030
  H        3.1302690     0.3666280     0.0389720
units angstrom
no_reorient  #important for SAPT in psi4, default
symmetry c1  #important for SAPT in psi4, default
}

set PROPERTIES_ORIGIN ["COM"]
properties('MP2/aug-cc-pvtz', properties = ['dipole'])
--------------------------------------------------------------------------

    Molecular point group: c1
  Charge       = 0
  Multiplicity = 1
  Basis Set: AUG-CC-PVTZ
    Blend: AUG-CC-PVTZ
  Basis Set: (AUG-CC-PVTZ AUX)
    Blend: AUG-CC-PVTZ-JKFIT

    Orbital Energies [Eh]
    ---------------------

    Doubly Occupied:

       1A   -104.826363     2A    -20.563885     3A    -11.300015
       4A    -11.282971     5A    -11.244023     6A    -10.550851
       7A     -8.017678     8A     -8.015916     9A     -8.015889
      10A     -1.360766    11A     -1.145238    12A     -1.032923
      13A     -0.915042    14A     -0.821811    15A     -0.700650
      16A     -0.649882    17A     -0.630742    18A     -0.607310
      19A     -0.576777    20A     -0.538050    21A     -0.517984
      22A     -0.494440    23A     -0.449567    24A     -0.436458
      25A     -0.430345

  @DF-RHF Final Energy:  -652.12713259334873

   => Energetics <=

    Nuclear Repulsion Energy =            224.8490224679484015
    One-Electron Energy =               -1343.7011544869362751
    Two-Electron Energy =                 466.7249994256391687
    Total Energy =                       -652.1271325933487333
  Basis Set: (AUG-CC-PVTZ AUX)
    Blend: AUG-CC-PVTZ-RI
    Molecular point group: c1

    Geometry (in Angstrom), charge = 0, multiplicity = 1:

       Center              X                  Y                   Z               Mass
    ------------   -----------------  -----------------  -----------------  -----------------
         CL          -1.815535980126    -0.450267104111    -0.068850700210    34.968852682000
         O            2.725879019874    -0.397601104111    -0.168794700210    15.994914619570
         C            0.611306019874     0.819789895889    -0.297345700210    12.000000000000
         C            1.401844719874    -0.333219604111     0.357316899790    12.000000000000
         C           -0.793993980126     0.985035895889     0.254237299790    12.000000000000
         H            0.576050019874     0.630124895889    -1.374165700210     1.007825032230
         H            1.131865019874     1.776936895889    -0.152010700210     1.007825032230
         H            1.442797019874    -0.124589104111     1.463844299790     1.007825032230
         H            0.942722019874    -1.256981104111     0.199762299790     1.007825032230
         H           -0.780879980126     1.127442895889     1.337180299790     1.007825032230
         H           -1.297243980126     1.838041895889    -0.202990700210     1.007825032230
         H            3.200999019874     0.420151895889     0.054984299790     1.007825032230

  Basis Set: AUG-CC-PVTZ
    Blend: AUG-CC-PVTZ
  Basis Set: (AUG-CC-PVTZ AUX)
    Blend: AUG-CC-PVTZ-JKFIT
	 Reference Energy          =    -652.1271325933487333 [Eh]
	 Singles Energy            =      -0.0000000000000000 [Eh]
	 Same-Spin Energy          =      -0.2529200336191256 [Eh]
	 Opposite-Spin Energy      =      -0.8300608186146691 [Eh]
	 Correlation Energy        =      -1.0829808522337947 [Eh]
	 Total Energy              =    -653.2101134455825786 [Eh]

	 ================> DF-SCS-MP2 Energies <==================
	-----------------------------------------------------------
	 SCS Same-Spin Scale       =       0.3333333333333333 [-]
	 SCS Opposite-Spin Scale   =       1.2000000000000000 [-]
	 SCS Same-Spin Energy      =      -0.0843066778730419 [Eh]
	 SCS Opposite-Spin Energy  =      -0.9960729823376029 [Eh]
	 SCS Correlation Energy    =      -1.0803796602106448 [Eh]
	 SCS Total Energy          =    -653.2075122535593437 [Eh]
	-----------------------------------------------------------

  Dipole Moment: [D]
     X:     0.5240      Y:     2.7341      Z:     1.0323     Total:     2.9691

*** Psi4 exiting successfully. Buy a developer a beer!
