                               Psi4 1.4a3.dev225

  ==> Input File <==

--------------------------------------------------------------------------
#psi4
#
memory 32 gb

molecule  {
1 1
  N       -2.8138210    -0.0000810     0.0131690
  C       -1.3233890    -0.0000370    -0.0148680
  C        0.7280520     1.2302730    -0.0129860
  C        0.7281180    -1.2302340    -0.0129780
  C       -0.6725800    -1.2264340    -0.0069900
  C       -0.6726490     1.2263940    -0.0069970
  C        1.3988940     0.0000390    -0.0107890
  C        1.4942690     2.5253230     0.0134310
  C        1.4944180    -2.5252350     0.0134270
  H       -1.2241800    -2.1659650    -0.0138510
  H       -1.2242990     2.1658960    -0.0138630
  H        2.4879510     0.0000680    -0.0240190
  H       -3.1956820     0.8285560    -0.4636260
  H       -3.1956410    -0.8285950    -0.4638730
  H       -3.1827690    -0.0002330     0.9749950
  H        0.8779320     3.3605910    -0.3276200
  H        1.8358100     2.7495590     1.0289260
  H        2.4166440     2.4649357    -0.6584118
  H        2.3762540    -2.4675350    -0.6292720
  H        0.8780380    -3.3605930    -0.3273260
  H        1.8362550    -2.7492930     1.0288600
units angstrom
no_reorient  #important for SAPT in psi4, default
symmetry c1  #important for SAPT in psi4, default
}

set PROPERTIES_ORIGIN ["COM"]
properties('MP2/aug-cc-pvtz', properties = ['dipole'])
--------------------------------------------------------------------------

    Molecular point group: c1
  Charge       = 1
  Multiplicity = 1
  Basis Set: AUG-CC-PVTZ
    Blend: AUG-CC-PVTZ
  Basis Set: (AUG-CC-PVTZ AUX)
    Blend: AUG-CC-PVTZ-JKFIT

    Orbital Energies [Eh]
    ---------------------

    Doubly Occupied:

       1A    -15.888803     2A    -11.459031     3A    -11.395135
       4A    -11.394878     5A    -11.393771     6A    -11.393593
       7A    -11.371577     8A    -11.350594     9A    -11.345002
      10A     -1.502641    11A     -1.309319    12A     -1.204623
      13A     -1.181824    14A     -1.082018    15A     -1.068675
      16A     -0.988630    17A     -0.965446    18A     -0.949754
      19A     -0.907584    20A     -0.855580    21A     -0.820442
      22A     -0.794482    23A     -0.724246    24A     -0.715369
      25A     -0.709862    26A     -0.688993    27A     -0.677183
      28A     -0.653815    29A     -0.639448    30A     -0.633830
      31A     -0.628553    32A     -0.486315    33A     -0.475019

  @DF-RHF Final Energy:  -364.29221272052206

   => Energetics <=

    Nuclear Repulsion Energy =            432.1292480809208882
    One-Electron Energy =               -1337.5308459745556320
    Two-Electron Energy =                 541.1093851731127415
    Total Energy =                       -364.2922127205220022
  Basis Set: (AUG-CC-PVTZ AUX)
    Blend: AUG-CC-PVTZ-RI
    Molecular point group: c1

    Geometry (in Angstrom), charge = 1, multiplicity = 1:

       Center              X                  Y                   Z               Mass
    ------------   -----------------  -----------------  -----------------  -----------------
         N           -2.808834273016    -0.000058927717     0.014551559830    14.003074004430
         C           -1.318402273016    -0.000014927717    -0.013485440170    12.000000000000
         C            0.733038726984     1.230295072283    -0.011603440170    12.000000000000
         C            0.733104726984    -1.230211927717    -0.011595440170    12.000000000000
         C           -0.667593273016    -1.226411927717    -0.005607440170    12.000000000000
         C           -0.667662273016     1.226416072283    -0.005614440170    12.000000000000
         C            1.403880726984     0.000061072283    -0.009406440170    12.000000000000
         C            1.499255726984     2.525345072283     0.014813559830    12.000000000000
         C            1.499404726984    -2.525212927717     0.014809559830    12.000000000000
         H           -1.219193273016    -2.165942927717    -0.012468440170     1.007825032230
         H           -1.219312273016     2.165918072283    -0.012480440170     1.007825032230
         H            2.492937726984     0.000090072283    -0.022636440170     1.007825032230
         H           -3.190695273016     0.828578072283    -0.462243440170     1.007825032230
         H           -3.190654273016    -0.828572927717    -0.462490440170     1.007825032230
         H           -3.177782273016    -0.000210927717     0.976377559830     1.007825032230
         H            0.882918726984     3.360613072283    -0.326237440170     1.007825032230
         H            1.840796726984     2.749581072283     1.030308559830     1.007825032230
         H            2.421630726984     2.464957772283    -0.657029240170     1.007825032230
         H            2.381240726984    -2.467512927717    -0.627889440170     1.007825032230
         H            0.883024726984    -3.360570927717    -0.325943440170     1.007825032230
         H            1.841241726984    -2.749270927717     1.030242559830     1.007825032230

  Basis Set: AUG-CC-PVTZ
    Blend: AUG-CC-PVTZ
  Basis Set: (AUG-CC-PVTZ AUX)
    Blend: AUG-CC-PVTZ-JKFIT
	 Reference Energy          =    -364.2922127205220590 [Eh]
	 Singles Energy            =      -0.0000000000000000 [Eh]
	 Same-Spin Energy          =      -0.3971789718174366 [Eh]
	 Opposite-Spin Energy      =      -1.3056656036672867 [Eh]
	 Correlation Energy        =      -1.7028445754847232 [Eh]
	 Total Energy              =    -365.9950572960067916 [Eh]

	 ================> DF-SCS-MP2 Energies <==================
	-----------------------------------------------------------
	 SCS Same-Spin Scale       =       0.3333333333333333 [-]
	 SCS Opposite-Spin Scale   =       1.2000000000000000 [-]
	 SCS Same-Spin Energy      =      -0.1323929906058122 [Eh]
	 SCS Opposite-Spin Energy  =      -1.5667987244007440 [Eh]
	 SCS Correlation Energy    =      -1.6991917150065561 [Eh]
	 SCS Total Energy          =    -365.9914044355286364 [Eh]
	-----------------------------------------------------------

  Dipole Moment: [D]
     X:    -8.3769      Y:    -0.0042      Z:     0.1752     Total:     8.3788

*** Psi4 exiting successfully. Buy a developer a beer!
