                               Psi4 1.4a3.dev225

  ==> Input File <==

--------------------------------------------------------------------------
#psi4
#
memory 32 gb

molecule  {
1 1
  N       -2.8138210    -0.0000810     0.0131690
  C       -1.3233890    -0.0000370    -0.0148680
  C        0.7280520     1.2302730    -0.0129860
  C        0.7281180    -1.2302340    -0.0129780
  C       -0.6725800    -1.2264340    -0.0069900
  C       -0.6726490     1.2263940    -0.0069970
  C        1.3988940     0.0000390    -0.0107890
  C        1.4942690     2.5253230     0.0134310
  C        1.4944180    -2.5252350     0.0134270
  H       -1.2241800    -2.1659650    -0.0138510
  H       -1.2242990     2.1658960    -0.0138630
  H        2.4879510     0.0000680    -0.0240190
  H       -3.2327753     0.9090483    -0.5099410
  H       -3.1956410    -0.8285950    -0.4638730
  H       -3.1827690    -0.0002330     0.9749950
  H        0.8779320     3.3605910    -0.3276200
  H        1.8358100     2.7495590     1.0289260
  H        2.3762850     2.4675780    -0.6290150
  H        2.3762540    -2.4675350    -0.6292720
  H        0.8780380    -3.3605930    -0.3273260
  H        1.8362550    -2.7492930     1.0288600
units angstrom
no_reorient  #important for SAPT in psi4, default
symmetry c1  #important for SAPT in psi4, default
}

set PROPERTIES_ORIGIN ["COM"]
properties('MP2/aug-cc-pvtz', properties = ['dipole'])
--------------------------------------------------------------------------

    Molecular point group: c1
  Charge       = 1
  Multiplicity = 1
  Basis Set: AUG-CC-PVTZ
    Blend: AUG-CC-PVTZ
  Basis Set: (AUG-CC-PVTZ AUX)
    Blend: AUG-CC-PVTZ-JKFIT

    Orbital Energies [Eh]
    ---------------------

    Doubly Occupied:

       1A    -15.893683     2A    -11.458022     3A    -11.394284
       4A    -11.394210     5A    -11.392898     6A    -11.392727
       7A    -11.370895     8A    -11.344680     9A    -11.344578
      10A     -1.488651    11A     -1.307539    12A     -1.204247
      13A     -1.179690    14A     -1.081831    15A     -1.069882
      16A     -0.986365    17A     -0.957740    18A     -0.938277
      19A     -0.895304    20A     -0.853609    21A     -0.819212
      22A     -0.792207    23A     -0.723507    24A     -0.714834
      25A     -0.710193    26A     -0.689974    27A     -0.678695
      28A     -0.656309    29A     -0.640556    30A     -0.633681
      31A     -0.628020    32A     -0.485563    33A     -0.474459

  @DF-RHF Final Energy:  -364.28458641610683

   => Energetics <=

    Nuclear Repulsion Energy =            431.8521915029670026
    One-Electron Energy =               -1337.0809029854517576
    Two-Electron Energy =                 540.9441250663778646
    Total Energy =                       -364.2845864161068903
  Basis Set: (AUG-CC-PVTZ AUX)
    Blend: AUG-CC-PVTZ-RI
    Molecular point group: c1

    Geometry (in Angstrom), charge = 1, multiplicity = 1:

       Center              X                  Y                   Z               Mass
    ------------   -----------------  -----------------  -----------------  -----------------
         N           -2.808194958511    -0.000745145629     0.014691207725    14.003074004430
         C           -1.317762958511    -0.000701145629    -0.013345792275    12.000000000000
         C            0.733678041489     1.229608854371    -0.011463792275    12.000000000000
         C            0.733744041489    -1.230898145629    -0.011455792275    12.000000000000
         C           -0.666953958511    -1.227098145629    -0.005467792275    12.000000000000
         C           -0.667022958511     1.225729854371    -0.005474792275    12.000000000000
         C            1.404520041489    -0.000625145629    -0.009266792275    12.000000000000
         C            1.499895041489     2.524658854371     0.014953207725    12.000000000000
         C            1.500044041489    -2.525899145629     0.014949207725    12.000000000000
         H           -1.218553958511    -2.166629145629    -0.012328792275     1.007825032230
         H           -1.218672958511     2.165231854371    -0.012340792275     1.007825032230
         H            2.493577041489    -0.000596145629    -0.022496792275     1.007825032230
         H           -3.227149258511     0.908384154371    -0.508418792275     1.007825032230
         H           -3.190014958511    -0.829259145629    -0.462350792275     1.007825032230
         H           -3.177142958511    -0.000897145629     0.976517207725     1.007825032230
         H            0.883558041489     3.359926854371    -0.326097792275     1.007825032230
         H            1.841436041489     2.748894854371     1.030448207725     1.007825032230
         H            2.381911041489     2.466913854371    -0.627492792275     1.007825032230
         H            2.381880041489    -2.468199145629    -0.627749792275     1.007825032230
         H            0.883664041489    -3.361257145629    -0.325803792275     1.007825032230
         H            1.841881041489    -2.749957145629     1.030382207725     1.007825032230

  Basis Set: AUG-CC-PVTZ
    Blend: AUG-CC-PVTZ
  Basis Set: (AUG-CC-PVTZ AUX)
    Blend: AUG-CC-PVTZ-JKFIT
	 Reference Energy          =    -364.2845864161068334 [Eh]
	 Singles Energy            =      -0.0000000000000000 [Eh]
	 Same-Spin Energy          =      -0.3977851527584848 [Eh]
	 Opposite-Spin Energy      =      -1.3071940125482100 [Eh]
	 Correlation Energy        =      -1.7049791653066948 [Eh]
	 Total Energy              =    -365.9895655814135011 [Eh]

	 ================> DF-SCS-MP2 Energies <==================
	-----------------------------------------------------------
	 SCS Same-Spin Scale       =       0.3333333333333333 [-]
	 SCS Opposite-Spin Scale   =       1.2000000000000000 [-]
	 SCS Same-Spin Energy      =      -0.1325950509194949 [Eh]
	 SCS Opposite-Spin Energy  =      -1.5686328150578519 [Eh]
	 SCS Correlation Energy    =      -1.7012278659773468 [Eh]
	 SCS Total Energy          =    -365.9858142820841636 [Eh]
	-----------------------------------------------------------

  Dipole Moment: [D]
     X:    -8.4353      Y:     0.1064      Z:     0.1007     Total:     8.4366

*** Psi4 exiting successfully. Buy a developer a beer!
