                               Psi4 1.4a3.dev225

  ==> Input File <==

--------------------------------------------------------------------------
#psi4
#
memory 32 gb

molecule  {
1 1
  N       -2.8138210    -0.0000810     0.0131690
  C       -1.3233890    -0.0000370    -0.0148680
  C        0.7280520     1.2302730    -0.0129860
  C        0.7281180    -1.2302340    -0.0129780
  C       -0.6725800    -1.2264340    -0.0069900
  C       -0.6726490     1.2263940    -0.0069970
  C        1.3988940     0.0000390    -0.0107890
  C        1.4942690     2.5253230     0.0134310
  C        1.4944180    -2.5252350     0.0134270
  H       -1.2241800    -2.1659650    -0.0138510
  H       -1.2242990     2.1658960    -0.0138630
  H        2.4879510     0.0000680    -0.0240190
  H       -3.1594259     0.8083906    -0.5222949
  H       -3.1956410    -0.8285950    -0.4638730
  H       -3.1827690    -0.0002330     0.9749950
  H        0.8779320     3.3605910    -0.3276200
  H        1.8358100     2.7495590     1.0289260
  H        2.3762850     2.4675780    -0.6290150
  H        2.3762540    -2.4675350    -0.6292720
  H        0.8780380    -3.3605930    -0.3273260
  H        1.8362550    -2.7492930     1.0288600
units angstrom
no_reorient  #important for SAPT in psi4, default
symmetry c1  #important for SAPT in psi4, default
}

set PROPERTIES_ORIGIN ["COM"]
properties('MP2/aug-cc-pvtz', properties = ['dipole'])
--------------------------------------------------------------------------

    Molecular point group: c1
  Charge       = 1
  Multiplicity = 1
  Basis Set: AUG-CC-PVTZ
    Blend: AUG-CC-PVTZ
  Basis Set: (AUG-CC-PVTZ AUX)
    Blend: AUG-CC-PVTZ-JKFIT

    Orbital Energies [Eh]
    ---------------------

    Doubly Occupied:

       1A    -15.888474     2A    -11.458548     3A    -11.394964
       4A    -11.394797     5A    -11.393622     6A    -11.393411
       7A    -11.371646     8A    -11.345071     9A    -11.345013
      10A     -1.502646    11A     -1.309150    12A     -1.204925
      13A     -1.181681    14A     -1.083108    15A     -1.070434
      16A     -0.988013    17A     -0.965229    18A     -0.955046
      19A     -0.906092    20A     -0.855292    21A     -0.820062
      22A     -0.794421    23A     -0.724150    24A     -0.715420
      25A     -0.710826    26A     -0.690398    27A     -0.679168
      28A     -0.656867    29A     -0.641145    30A     -0.634807
      31A     -0.628550    32A     -0.486605    33A     -0.475090

  @DF-RHF Final Energy:  -364.29384073929850

   => Energetics <=

    Nuclear Repulsion Energy =            432.3990205222242480
    One-Electron Energy =               -1338.0563812472694281
    Two-Electron Energy =                 541.3635199857467342
    Total Energy =                       -364.2938407392985027
  Basis Set: (AUG-CC-PVTZ AUX)
    Blend: AUG-CC-PVTZ-RI
    Molecular point group: c1

    Geometry (in Angstrom), charge = 1, multiplicity = 1:

       Center              X                  Y                   Z               Mass
    ------------   -----------------  -----------------  -----------------  -----------------
         N           -2.808800406449     0.000085713204     0.014793180519    14.003074004430
         C           -1.318368406449     0.000129713204    -0.013243819481    12.000000000000
         C            0.733072593551     1.230439713204    -0.011361819481    12.000000000000
         C            0.733138593551    -1.230067286796    -0.011353819481    12.000000000000
         C           -0.667559406449    -1.226267286796    -0.005365819481    12.000000000000
         C           -0.667628406449     1.226560713204    -0.005372819481    12.000000000000
         C            1.403914593551     0.000205713204    -0.009164819481    12.000000000000
         C            1.499289593551     2.525489713204     0.015055180519    12.000000000000
         C            1.499438593551    -2.525068286796     0.015051180519    12.000000000000
         H           -1.219159406449    -2.165798286796    -0.012226819481     1.007825032230
         H           -1.219278406449     2.166062713204    -0.012238819481     1.007825032230
         H            2.492971593551     0.000234713204    -0.022394819481     1.007825032230
         H           -3.154405306449     0.808557313204    -0.520670719481     1.007825032230
         H           -3.190620406449    -0.828428286796    -0.462248819481     1.007825032230
         H           -3.177748406449    -0.000066286796     0.976619180519     1.007825032230
         H            0.882952593551     3.360757713204    -0.325995819481     1.007825032230
         H            1.840830593551     2.749725713204     1.030550180519     1.007825032230
         H            2.381305593551     2.467744713204    -0.627390819481     1.007825032230
         H            2.381274593551    -2.467368286796    -0.627647819481     1.007825032230
         H            0.883058593551    -3.360426286796    -0.325701819481     1.007825032230
         H            1.841275593551    -2.749126286796     1.030484180519     1.007825032230

  Basis Set: AUG-CC-PVTZ
    Blend: AUG-CC-PVTZ
  Basis Set: (AUG-CC-PVTZ AUX)
    Blend: AUG-CC-PVTZ-JKFIT
	 Reference Energy          =    -364.2938407392985027 [Eh]
	 Singles Energy            =      -0.0000000000000000 [Eh]
	 Same-Spin Energy          =      -0.3971980220020715 [Eh]
	 Opposite-Spin Energy      =      -1.3054087579125455 [Eh]
	 Correlation Energy        =      -1.7026067799146172 [Eh]
	 Total Energy              =    -365.9964475192131204 [Eh]

	 ================> DF-SCS-MP2 Energies <==================
	-----------------------------------------------------------
	 SCS Same-Spin Scale       =       0.3333333333333333 [-]
	 SCS Opposite-Spin Scale   =       1.2000000000000000 [-]
	 SCS Same-Spin Energy      =      -0.1323993406673572 [Eh]
	 SCS Opposite-Spin Energy  =      -1.5664905094950545 [Eh]
	 SCS Correlation Energy    =      -1.6988898501624117 [Eh]
	 SCS Total Energy          =    -365.9927305894609049 [Eh]
	-----------------------------------------------------------

  Dipole Moment: [D]
     X:    -8.3280      Y:    -0.0252      Z:     0.1145     Total:     8.3288

*** Psi4 exiting successfully. Buy a developer a beer!
