                               Psi4 1.4a3.dev225

  ==> Input File <==

--------------------------------------------------------------------------
#psi4
#
memory 32 gb

molecule  {
1 1
  N       -2.8138210    -0.0000810     0.0131690
  C       -1.3233890    -0.0000370    -0.0148680
  C        0.7280520     1.2302730    -0.0129860
  C        0.7281180    -1.2302340    -0.0129780
  C       -0.6725800    -1.2264340    -0.0069900
  C       -0.6726490     1.2263940    -0.0069970
  C        1.3988940     0.0000390    -0.0107890
  C        1.4942690     2.5253230     0.0134310
  C        1.4944180    -2.5252350     0.0134270
  H       -1.2241800    -2.1659650    -0.0138510
  H       -1.2242990     2.1658960    -0.0138630
  H        2.4879510     0.0000680    -0.0240190
  H       -3.1956820     0.8285560    -0.4636260
  H       -3.1956410    -0.8285950    -0.4638730
  H       -3.2185836    -0.0002478     1.0683616
  H        0.8779320     3.3605910    -0.3276200
  H        1.8358100     2.7495590     1.0289260
  H        2.3762850     2.4675780    -0.6290150
  H        2.3762540    -2.4675350    -0.6292720
  H        0.8780380    -3.3605930    -0.3273260
  H        1.8362550    -2.7492930     1.0288600
units angstrom
no_reorient  #important for SAPT in psi4, default
symmetry c1  #important for SAPT in psi4, default
}

set PROPERTIES_ORIGIN ["COM"]
properties('MP2/aug-cc-pvtz', properties = ['dipole'])
--------------------------------------------------------------------------

    Molecular point group: c1
  Charge       = 1
  Multiplicity = 1
  Basis Set: AUG-CC-PVTZ
    Blend: AUG-CC-PVTZ
  Basis Set: (AUG-CC-PVTZ AUX)
    Blend: AUG-CC-PVTZ-JKFIT

    Orbital Energies [Eh]
    ---------------------

    Doubly Occupied:

       1A    -15.893736     2A    -11.457955     3A    -11.394175
       4A    -11.394170     5A    -11.392720     6A    -11.392717
       7A    -11.370942     8A    -11.344579     9A    -11.344578
      10A     -1.488768    11A     -1.307488    12A     -1.204230
      13A     -1.179602    14A     -1.082344    15A     -1.069838
      16A     -0.986200    17A     -0.963918    18A     -0.919369
      19A     -0.906174    20A     -0.853977    21A     -0.818894
      22A     -0.793964    23A     -0.723410    24A     -0.714802
      25A     -0.710026    26A     -0.689941    27A     -0.678638
      28A     -0.656359    29A     -0.640443    30A     -0.633167
      31A     -0.627970    32A     -0.485275    33A     -0.474405

  @DF-RHF Final Energy:  -364.28482478489195

   => Energetics <=

    Nuclear Repulsion Energy =            431.8434044321936653
    One-Electron Energy =               -1337.0669118653693204
    Two-Electron Energy =                 540.9386826482837023
    Total Energy =                       -364.2848247848919527
  Basis Set: (AUG-CC-PVTZ AUX)
    Blend: AUG-CC-PVTZ-RI
    Molecular point group: c1

    Geometry (in Angstrom), charge = 1, multiplicity = 1:

       Center              X                  Y                   Z               Mass
    ------------   -----------------  -----------------  -----------------  -----------------
         N           -2.808205513284    -0.000080615889     0.013538233921    14.003074004430
         C           -1.317773513284    -0.000036615889    -0.014498766079    12.000000000000
         C            0.733667486716     1.230273384111    -0.012616766079    12.000000000000
         C            0.733733486716    -1.230233615889    -0.012608766079    12.000000000000
         C           -0.666964513284    -1.226433615889    -0.006620766079    12.000000000000
         C           -0.667033513284     1.226394384111    -0.006627766079    12.000000000000
         C            1.404509486716     0.000039384111    -0.010419766079    12.000000000000
         C            1.499884486716     2.525323384111     0.013800233921    12.000000000000
         C            1.500033486716    -2.525234615889     0.013796233921    12.000000000000
         H           -1.218564513284    -2.165964615889    -0.013481766079     1.007825032230
         H           -1.218683513284     2.165896384111    -0.013493766079     1.007825032230
         H            2.493566486716     0.000068384111    -0.023649766079     1.007825032230
         H           -3.190066513284     0.828556384111    -0.463256766079     1.007825032230
         H           -3.190025513284    -0.828594615889    -0.463503766079     1.007825032230
         H           -3.212968113284    -0.000247415889     1.068730833921     1.007825032230
         H            0.883547486716     3.360591384111    -0.327250766079     1.007825032230
         H            1.841425486716     2.749559384111     1.029295233921     1.007825032230
         H            2.381900486716     2.467578384111    -0.628645766079     1.007825032230
         H            2.381869486716    -2.467534615889    -0.628902766079     1.007825032230
         H            0.883653486716    -3.360592615889    -0.326956766079     1.007825032230
         H            1.841870486716    -2.749292615889     1.029229233921     1.007825032230

  Basis Set: AUG-CC-PVTZ
    Blend: AUG-CC-PVTZ
  Basis Set: (AUG-CC-PVTZ AUX)
    Blend: AUG-CC-PVTZ-JKFIT
	 Reference Energy          =    -364.2848247848919527 [Eh]
	 Singles Energy            =      -0.0000000000000000 [Eh]
	 Same-Spin Energy          =      -0.3977388226607857 [Eh]
	 Opposite-Spin Energy      =      -1.3070624628069747 [Eh]
	 Correlation Energy        =      -1.7048012854677603 [Eh]
	 Total Energy              =    -365.9896260703596909 [Eh]

	 ================> DF-SCS-MP2 Energies <==================
	-----------------------------------------------------------
	 SCS Same-Spin Scale       =       0.3333333333333333 [-]
	 SCS Opposite-Spin Scale   =       1.2000000000000000 [-]
	 SCS Same-Spin Energy      =      -0.1325796075535952 [Eh]
	 SCS Opposite-Spin Energy  =      -1.5684749553683697 [Eh]
	 SCS Correlation Energy    =      -1.7010545629219649 [Eh]
	 SCS Total Energy          =    -365.9858793478139205 [Eh]
	-----------------------------------------------------------

  Dipole Moment: [D]
     X:    -8.4295      Y:    -0.0003      Z:     0.3125     Total:     8.4353

*** Psi4 exiting successfully. Buy a developer a beer!
