                               Psi4 1.4a3.dev225

  ==> Input File <==

--------------------------------------------------------------------------
#psi4
#
memory 32 gb

molecule  {
1 1
  N       -2.8138210    -0.0000810     0.0131690
  C       -1.3233890    -0.0000370    -0.0148680
  C        0.7280520     1.2302730    -0.0129860
  C        0.7281180    -1.2302340    -0.0129780
  C       -0.6725800    -1.2264340    -0.0069900
  C       -0.6726490     1.2263940    -0.0069970
  C        1.3988940     0.0000390    -0.0107890
  C        1.4942690     2.5253230     0.0134310
  C        1.4944180    -2.5252350     0.0134270
  H       -1.2241800    -2.1659650    -0.0138510
  H       -1.2242990     2.1658960    -0.0138630
  H        2.4879510     0.0000680    -0.0240190
  H       -3.1956820     0.8285560    -0.4636260
  H       -3.1956410    -0.8285950    -0.4638730
  H       -3.1827690    -0.0002330     0.9749950
  H        0.9907482     3.2077010    -0.2651930
  H        1.8358100     2.7495590     1.0289260
  H        2.3762850     2.4675780    -0.6290150
  H        2.3762540    -2.4675350    -0.6292720
  H        0.8780380    -3.3605930    -0.3273260
  H        1.8362550    -2.7492930     1.0288600
units angstrom
no_reorient  #important for SAPT in psi4, default
symmetry c1  #important for SAPT in psi4, default
}

set PROPERTIES_ORIGIN ["COM"]
properties('MP2/aug-cc-pvtz', properties = ['dipole'])
--------------------------------------------------------------------------

    Molecular point group: c1
  Charge       = 1
  Multiplicity = 1
  Basis Set: AUG-CC-PVTZ
    Blend: AUG-CC-PVTZ
  Basis Set: (AUG-CC-PVTZ AUX)
    Blend: AUG-CC-PVTZ-JKFIT

    Orbital Energies [Eh]
    ---------------------

    Doubly Occupied:

       1A    -15.888632     2A    -11.458853     3A    -11.394425
       4A    -11.394272     5A    -11.393189     6A    -11.392980
       7A    -11.370656     8A    -11.344653     9A    -11.321019
      10A     -1.502469    11A     -1.309248    12A     -1.207978
      13A     -1.183045    14A     -1.095602    15A     -1.076312
      16A     -0.988846    17A     -0.969433    18A     -0.949592
      19A     -0.911901    20A     -0.856874    21A     -0.820138
      22A     -0.797225    23A     -0.733566    24A     -0.720160
      25A     -0.711328    26A     -0.697673    27A     -0.686576
      28A     -0.661045    29A     -0.642011    30A     -0.635127
      31A     -0.630564    32A     -0.485892    33A     -0.475013

  @DF-RHF Final Energy:  -364.26025530049367

   => Energetics <=

    Nuclear Repulsion Energy =            433.3154212686400797
    One-Electron Energy =               -1339.7387579350743181
    Two-Electron Energy =                 542.1630813659405703
    Total Energy =                       -364.2602553004936681
  Basis Set: (AUG-CC-PVTZ AUX)
    Blend: AUG-CC-PVTZ-RI
    Molecular point group: c1

    Geometry (in Angstrom), charge = 1, multiplicity = 1:

       Center              X                  Y                   Z               Mass
    ------------   -----------------  -----------------  -----------------  -----------------
         N           -2.809432356468     0.001181261845     0.013793618655    14.003074004430
         C           -1.319000356468     0.001225261845    -0.014243381345    12.000000000000
         C            0.732440643532     1.231535261845    -0.012361381345    12.000000000000
         C            0.732506643532    -1.228971738155    -0.012353381345    12.000000000000
         C           -0.668191356468    -1.225171738155    -0.006365381345    12.000000000000
         C           -0.668260356468     1.227656261845    -0.006372381345    12.000000000000
         C            1.403282643532     0.001301261845    -0.010164381345    12.000000000000
         C            1.498657643532     2.526585261845     0.014055618655    12.000000000000
         C            1.498806643532    -2.523972738155     0.014051618655    12.000000000000
         H           -1.219791356468    -2.164702738155    -0.013226381345     1.007825032230
         H           -1.219910356468     2.167158261845    -0.013238381345     1.007825032230
         H            2.492339643532     0.001330261845    -0.023394381345     1.007825032230
         H           -3.191293356468     0.829818261845    -0.463001381345     1.007825032230
         H           -3.191252356468    -0.827332738155    -0.463248381345     1.007825032230
         H           -3.178380356468     0.001029261845     0.975619618655     1.007825032230
         H            0.995136843532     3.208963261845    -0.264568381345     1.007825032230
         H            1.840198643532     2.750821261845     1.029550618655     1.007825032230
         H            2.380673643532     2.468840261845    -0.628390381345     1.007825032230
         H            2.380642643532    -2.466272738155    -0.628647381345     1.007825032230
         H            0.882426643532    -3.359330738155    -0.326701381345     1.007825032230
         H            1.840643643532    -2.748030738155     1.029484618655     1.007825032230

  Basis Set: AUG-CC-PVTZ
    Blend: AUG-CC-PVTZ
  Basis Set: (AUG-CC-PVTZ AUX)
    Blend: AUG-CC-PVTZ-JKFIT
	 Reference Energy          =    -364.2602553004936681 [Eh]
	 Singles Energy            =      -0.0000000000000000 [Eh]
	 Same-Spin Energy          =      -0.3972077485519581 [Eh]
	 Opposite-Spin Energy      =      -1.3046010086600393 [Eh]
	 Correlation Energy        =      -1.7018087572119973 [Eh]
	 Total Energy              =    -365.9620640577056747 [Eh]

	 ================> DF-SCS-MP2 Energies <==================
	-----------------------------------------------------------
	 SCS Same-Spin Scale       =       0.3333333333333333 [-]
	 SCS Opposite-Spin Scale   =       1.2000000000000000 [-]
	 SCS Same-Spin Energy      =      -0.1324025828506527 [Eh]
	 SCS Opposite-Spin Energy  =      -1.5655212103920471 [Eh]
	 SCS Correlation Energy    =      -1.6979237932426998 [Eh]
	 SCS Total Energy          =    -365.9581790937363621 [Eh]
	-----------------------------------------------------------

  Dipole Moment: [D]
     X:    -8.3835      Y:     0.0508      Z:     0.1605     Total:     8.3851

*** Psi4 exiting successfully. Buy a developer a beer!
