                               Psi4 1.4a3.dev225

  ==> Input File <==

--------------------------------------------------------------------------
#psi4
#
memory 32 gb

molecule  {
1 1
  N       -2.8138210    -0.0000810     0.0131690
  C       -1.3231267    -0.0000408     0.0111479
  C        0.7280520     1.2302730    -0.0129860
  C        0.7281180    -1.2302340    -0.0129780
  C       -0.6725800    -1.2264340    -0.0069900
  C       -0.6726490     1.2263940    -0.0069970
  C        1.3988940     0.0000390    -0.0107890
  C        1.4942690     2.5253230     0.0134310
  C        1.4944180    -2.5252350     0.0134270
  H       -1.2241800    -2.1659650    -0.0138510
  H       -1.2242990     2.1658960    -0.0138630
  H        2.4879510     0.0000680    -0.0240190
  H       -3.1956820     0.8285560    -0.4636260
  H       -3.1956410    -0.8285950    -0.4638730
  H       -3.1827690    -0.0002330     0.9749950
  H        0.8779320     3.3605910    -0.3276200
  H        1.8358100     2.7495590     1.0289260
  H        2.3762850     2.4675780    -0.6290150
  H        2.3762540    -2.4675350    -0.6292720
  H        0.8780380    -3.3605930    -0.3273260
  H        1.8362550    -2.7492930     1.0288600
units angstrom
no_reorient  #important for SAPT in psi4, default
symmetry c1  #important for SAPT in psi4, default
}

set PROPERTIES_ORIGIN ["COM"]
properties('MP2/aug-cc-pvtz', properties = ['dipole'])
--------------------------------------------------------------------------

    Molecular point group: c1
  Charge       = 1
  Multiplicity = 1
  Basis Set: AUG-CC-PVTZ
    Blend: AUG-CC-PVTZ
  Basis Set: (AUG-CC-PVTZ AUX)
    Blend: AUG-CC-PVTZ-JKFIT

    Orbital Energies [Eh]
    ---------------------

    Doubly Occupied:

       1A    -15.888726     2A    -11.458985     3A    -11.394805
       4A    -11.394795     5A    -11.393479     6A    -11.393477
       7A    -11.371453     8A    -11.344967     9A    -11.344967
      10A     -1.502610    11A     -1.309240    12A     -1.204828
      13A     -1.182054    14A     -1.083069    15A     -1.070350
      16A     -0.988906    17A     -0.965998    18A     -0.949773
      19A     -0.907828    20A     -0.856022    21A     -0.820408
      22A     -0.794905    23A     -0.724132    24A     -0.715377
      25A     -0.710697    26A     -0.690296    27A     -0.679070
      28A     -0.656847    29A     -0.640971    30A     -0.634683
      31A     -0.628483    32A     -0.486363    33A     -0.474972

  @DF-RHF Final Energy:  -364.29429982245125

   => Energetics <=

    Nuclear Repulsion Energy =            432.3401106949276027
    One-Electron Energy =               -1337.9417504995537911
    Two-Electron Energy =                 541.3073399821749945
    Total Energy =                       -364.2942998224511939
  Basis Set: (AUG-CC-PVTZ AUX)
    Blend: AUG-CC-PVTZ-RI
    Molecular point group: c1

    Geometry (in Angstrom), charge = 1, multiplicity = 1:

       Center              X                  Y                   Z               Mass
    ------------   -----------------  -----------------  -----------------  -----------------
         N           -2.808526917239    -0.000080364579     0.011752001261    14.003074004430
         C           -1.317832617239    -0.000040164579     0.009730901261    12.000000000000
         C            0.733346082761     1.230273635421    -0.014402998739    12.000000000000
         C            0.733412082761    -1.230233364579    -0.014394998739    12.000000000000
         C           -0.667285917239    -1.226433364579    -0.008406998739    12.000000000000
         C           -0.667354917239     1.226394635421    -0.008413998739    12.000000000000
         C            1.404188082761     0.000039635421    -0.012205998739    12.000000000000
         C            1.499563082761     2.525323635421     0.012014001261    12.000000000000
         C            1.499712082761    -2.525234364579     0.012010001261    12.000000000000
         H           -1.218885917239    -2.165964364579    -0.015267998739     1.007825032230
         H           -1.219004917239     2.165896635421    -0.015279998739     1.007825032230
         H            2.493245082761     0.000068635421    -0.025435998739     1.007825032230
         H           -3.190387917239     0.828556635421    -0.465042998739     1.007825032230
         H           -3.190346917239    -0.828594364579    -0.465289998739     1.007825032230
         H           -3.177474917239    -0.000232364579     0.973578001261     1.007825032230
         H            0.883226082761     3.360591635421    -0.329036998739     1.007825032230
         H            1.841104082761     2.749559635421     1.027509001261     1.007825032230
         H            2.381579082761     2.467578635421    -0.630431998739     1.007825032230
         H            2.381548082761    -2.467534364579    -0.630688998739     1.007825032230
         H            0.883332082761    -3.360592364579    -0.328742998739     1.007825032230
         H            1.841549082761    -2.749292364579     1.027443001261     1.007825032230

  Basis Set: AUG-CC-PVTZ
    Blend: AUG-CC-PVTZ
  Basis Set: (AUG-CC-PVTZ AUX)
    Blend: AUG-CC-PVTZ-JKFIT
	 Reference Energy          =    -364.2942998224512507 [Eh]
	 Singles Energy            =      -0.0000000000000000 [Eh]
	 Same-Spin Energy          =      -0.3971557310200264 [Eh]
	 Opposite-Spin Energy      =      -1.3053189149890752 [Eh]
	 Correlation Energy        =      -1.7024746460091016 [Eh]
	 Total Energy              =    -365.9967744684603304 [Eh]

	 ================> DF-SCS-MP2 Energies <==================
	-----------------------------------------------------------
	 SCS Same-Spin Scale       =       0.3333333333333333 [-]
	 SCS Opposite-Spin Scale   =       1.2000000000000000 [-]
	 SCS Same-Spin Energy      =      -0.1323852436733421 [Eh]
	 SCS Opposite-Spin Energy  =      -1.5663826979868902 [Eh]
	 SCS Correlation Energy    =      -1.6987679416602324 [Eh]
	 SCS Total Energy          =    -365.9930677641114585 [Eh]
	-----------------------------------------------------------

  Dipole Moment: [D]
     X:    -8.3734      Y:    -0.0002      Z:     0.1475     Total:     8.3747

*** Psi4 exiting successfully. Buy a developer a beer!
