                               Psi4 1.4a3.dev225

  ==> Input File <==

--------------------------------------------------------------------------
#psi4
#
memory 32 gb

molecule  {
1 1
  N       -2.8138210    -0.0000810     0.0131690
  C       -1.3233890    -0.0000370    -0.0148680
  C        0.7280520     1.2302730    -0.0129860
  C        0.7281180    -1.2302340    -0.0129780
  C       -0.6725800    -1.2264340    -0.0069900
  C       -0.6726490     1.2263940    -0.0069970
  C        1.3988940     0.0000390    -0.0107890
  C        1.4942690     2.5253230     0.0134310
  C        1.4944180    -2.5252350     0.0134270
  H       -1.2241800    -2.1659650    -0.0138510
  H       -1.2242990     2.1658960    -0.0138630
  H        2.4879510     0.0000680    -0.0240190
  H       -3.1867856     0.8238896    -0.4785224
  H       -3.1956410    -0.8285950    -0.4638730
  H       -3.1827690    -0.0002330     0.9749950
  H        0.8779320     3.3605910    -0.3276200
  H        1.8358100     2.7495590     1.0289260
  H        2.3762850     2.4675780    -0.6290150
  H        2.3762540    -2.4675350    -0.6292720
  H        0.8780380    -3.3605930    -0.3273260
  H        1.8362550    -2.7492930     1.0288600
units angstrom
no_reorient  #important for SAPT in psi4, default
symmetry c1  #important for SAPT in psi4, default
}

set PROPERTIES_ORIGIN ["COM"]
properties('MP2/aug-cc-pvtz', properties = ['dipole'])
--------------------------------------------------------------------------

    Molecular point group: c1
  Charge       = 1
  Multiplicity = 1
  Basis Set: AUG-CC-PVTZ
    Blend: AUG-CC-PVTZ
  Basis Set: (AUG-CC-PVTZ AUX)
    Blend: AUG-CC-PVTZ-JKFIT

    Orbital Energies [Eh]
    ---------------------

    Doubly Occupied:

       1A    -15.888662     2A    -11.458820     3A    -11.394863
       4A    -11.394819     5A    -11.393535     6A    -11.393481
       7A    -11.371569     8A    -11.345001     9A    -11.344986
      10A     -1.502560    11A     -1.309223    12A     -1.204871
      13A     -1.181965    14A     -1.083100    15A     -1.070394
      16A     -0.988619    17A     -0.965668    18A     -0.951184
      19A     -0.907434    20A     -0.855804    21A     -0.820378
      22A     -0.794765    23A     -0.724121    24A     -0.715389
      25A     -0.710748    26A     -0.690347    27A     -0.679117
      28A     -0.656864    29A     -0.641134    30A     -0.634667
      31A     -0.628507    32A     -0.486469    33A     -0.475025

  @DF-RHF Final Energy:  -364.29435000687937

   => Energetics <=

    Nuclear Repulsion Energy =            432.3523776960409464
    One-Electron Energy =               -1337.9652824604568195
    Two-Electron Energy =                 541.3185547575363898
    Total Energy =                       -364.2943500068794265
  Basis Set: (AUG-CC-PVTZ AUX)
    Blend: AUG-CC-PVTZ-RI
    Molecular point group: c1

    Geometry (in Angstrom), charge = 1, multiplicity = 1:

       Center              X                  Y                   Z               Mass
    ------------   -----------------  -----------------  -----------------  -----------------
         N           -2.808574571283    -0.000042220188     0.014431869181    14.003074004430
         C           -1.318142571283     0.000001779812    -0.013605130819    12.000000000000
         C            0.733298428717     1.230311779812    -0.011723130819    12.000000000000
         C            0.733364428717    -1.230195220188    -0.011715130819    12.000000000000
         C           -0.667333571283    -1.226395220188    -0.005727130819    12.000000000000
         C           -0.667402571283     1.226432779812    -0.005734130819    12.000000000000
         C            1.404140428717     0.000077779812    -0.009526130819    12.000000000000
         C            1.499515428717     2.525361779812     0.014693869181    12.000000000000
         C            1.499664428717    -2.525196220188     0.014689869181    12.000000000000
         H           -1.218933571283    -2.165926220188    -0.012588130819     1.007825032230
         H           -1.219052571283     2.165934779812    -0.012600130819     1.007825032230
         H            2.493197428717     0.000106779812    -0.022756130819     1.007825032230
         H           -3.181539171283     0.823928379812    -0.477259530819     1.007825032230
         H           -3.190394571283    -0.828556220188    -0.462610130819     1.007825032230
         H           -3.177522571283    -0.000194220188     0.976257869181     1.007825032230
         H            0.883178428717     3.360629779812    -0.326357130819     1.007825032230
         H            1.841056428717     2.749597779812     1.030188869181     1.007825032230
         H            2.381531428717     2.467616779812    -0.627752130819     1.007825032230
         H            2.381500428717    -2.467496220188    -0.628009130819     1.007825032230
         H            0.883284428717    -3.360554220188    -0.326063130819     1.007825032230
         H            1.841501428717    -2.749254220188     1.030122869181     1.007825032230

  Basis Set: AUG-CC-PVTZ
    Blend: AUG-CC-PVTZ
  Basis Set: (AUG-CC-PVTZ AUX)
    Blend: AUG-CC-PVTZ-JKFIT
	 Reference Energy          =    -364.2943500068793696 [Eh]
	 Singles Energy            =      -0.0000000000000000 [Eh]
	 Same-Spin Energy          =      -0.3971625806733487 [Eh]
	 Opposite-Spin Energy      =      -1.3053282666841750 [Eh]
	 Correlation Energy        =      -1.7024908473575238 [Eh]
	 Total Energy              =    -365.9968408542368934 [Eh]

	 ================> DF-SCS-MP2 Energies <==================
	-----------------------------------------------------------
	 SCS Same-Spin Scale       =       0.3333333333333333 [-]
	 SCS Opposite-Spin Scale   =       1.2000000000000000 [-]
	 SCS Same-Spin Energy      =      -0.1323875268911162 [Eh]
	 SCS Opposite-Spin Energy  =      -1.5663939200210100 [Eh]
	 SCS Correlation Energy    =      -1.6987814469121263 [Eh]
	 SCS Total Energy          =    -365.9931314537914773 [Eh]
	-----------------------------------------------------------

  Dipole Moment: [D]
     X:    -8.3569      Y:    -0.0061      Z:     0.1559     Total:     8.3584

*** Psi4 exiting successfully. Buy a developer a beer!
