                               Psi4 1.4a3.dev225

  ==> Input File <==

--------------------------------------------------------------------------
#psi4
#
memory 32 gb

molecule  {
1 1
  N       -2.8138210    -0.0000810     0.0131690
  C       -1.3233890    -0.0000370    -0.0148680
  C        0.8376553     1.1770436    -0.1128304
  C        0.7281180    -1.2302340    -0.0129780
  C       -0.6725800    -1.2264340    -0.0069900
  C       -0.6726490     1.2263940    -0.0069970
  C        1.3988940     0.0000390    -0.0107890
  C        1.4942690     2.5253230     0.0134310
  C        1.4944180    -2.5252350     0.0134270
  H       -1.2241800    -2.1659650    -0.0138510
  H       -1.2242990     2.1658960    -0.0138630
  H        2.4879510     0.0000680    -0.0240190
  H       -3.1956820     0.8285560    -0.4636260
  H       -3.1956410    -0.8285950    -0.4638730
  H       -3.1827690    -0.0002330     0.9749950
  H        0.8779320     3.3605910    -0.3276200
  H        1.8358100     2.7495590     1.0289260
  H        2.3762850     2.4675780    -0.6290150
  H        2.3762540    -2.4675350    -0.6292720
  H        0.8780380    -3.3605930    -0.3273260
  H        1.8362550    -2.7492930     1.0288600
units angstrom
no_reorient  #important for SAPT in psi4, default
symmetry c1  #important for SAPT in psi4, default
}

set PROPERTIES_ORIGIN ["COM"]
properties('MP2/aug-cc-pvtz', properties = ['dipole'])
--------------------------------------------------------------------------

    Molecular point group: c1
  Charge       = 1
  Multiplicity = 1
  Basis Set: AUG-CC-PVTZ
    Blend: AUG-CC-PVTZ
  Basis Set: (AUG-CC-PVTZ AUX)
    Blend: AUG-CC-PVTZ-JKFIT

    Orbital Energies [Eh]
    ---------------------

    Doubly Occupied:

       1A    -15.887844     2A    -11.458990     3A    -11.403971
       4A    -11.399078     5A    -11.394577     6A    -11.389386
       7A    -11.360043     8A    -11.346385     9A    -11.345579
      10A     -1.502013    11A     -1.308915    12A     -1.200876
      13A     -1.187644    14A     -1.080917    15A     -1.077814
      16A     -0.984155    17A     -0.960783    18A     -0.949106
      19A     -0.915903    20A     -0.852304    21A     -0.818881
      22A     -0.791426    23A     -0.728122    24A     -0.719272
      25A     -0.711216    26A     -0.689993    27A     -0.678426
      28A     -0.653979    29A     -0.647102    30A     -0.632538
      31A     -0.612534    32A     -0.502871    33A     -0.463753

  @DF-RHF Final Energy:  -364.27296628458345

   => Energetics <=

    Nuclear Repulsion Energy =            432.1397038273527755
    One-Electron Energy =               -1337.5125466275499093
    Two-Electron Energy =                 541.0998765156135732
    Total Energy =                       -364.2729662845835037
  Basis Set: (AUG-CC-PVTZ AUX)
    Blend: AUG-CC-PVTZ-RI
    Molecular point group: c1

    Geometry (in Angstrom), charge = 1, multiplicity = 1:

       Center              X                  Y                   Z               Mass
    ------------   -----------------  -----------------  -----------------  -----------------
         N           -2.819273227756     0.005150782246     0.024121870437    14.003074004430
         C           -1.328841227756     0.005194782246    -0.003915129563    12.000000000000
         C            0.832203072244     1.182275382246    -0.101877529563    12.000000000000
         C            0.722665772244    -1.225002217754    -0.002025129563    12.000000000000
         C           -0.678032227756    -1.221202217754     0.003962870437    12.000000000000
         C           -0.678101227756     1.231625782246     0.003955870437    12.000000000000
         C            1.393441772244     0.005270782246     0.000163870437    12.000000000000
         C            1.488816772244     2.530554782246     0.024383870437    12.000000000000
         C            1.488965772244    -2.520003217754     0.024379870437    12.000000000000
         H           -1.229632227756    -2.160733217754    -0.002898129563     1.007825032230
         H           -1.229751227756     2.171127782246    -0.002910129563     1.007825032230
         H            2.482498772244     0.005299782246    -0.013066129563     1.007825032230
         H           -3.201134227756     0.833787782246    -0.452673129563     1.007825032230
         H           -3.201093227756    -0.823363217754    -0.452920129563     1.007825032230
         H           -3.188221227756     0.004998782246     0.985947870437     1.007825032230
         H            0.872479772244     3.365822782246    -0.316667129563     1.007825032230
         H            1.830357772244     2.754790782246     1.039878870437     1.007825032230
         H            2.370832772244     2.472809782246    -0.618062129563     1.007825032230
         H            2.370801772244    -2.462303217754    -0.618319129563     1.007825032230
         H            0.872585772244    -3.355361217754    -0.316373129563     1.007825032230
         H            1.830802772244    -2.744061217754     1.039812870437     1.007825032230

  Basis Set: AUG-CC-PVTZ
    Blend: AUG-CC-PVTZ
  Basis Set: (AUG-CC-PVTZ AUX)
    Blend: AUG-CC-PVTZ-JKFIT
	 Reference Energy          =    -364.2729662845834468 [Eh]
	 Singles Energy            =      -0.0000000000000000 [Eh]
	 Same-Spin Energy          =      -0.3969483162690008 [Eh]
	 Opposite-Spin Energy      =      -1.3064250242527369 [Eh]
	 Correlation Energy        =      -1.7033733405217377 [Eh]
	 Total Energy              =    -365.9763396251051972 [Eh]

	 ================> DF-SCS-MP2 Energies <==================
	-----------------------------------------------------------
	 SCS Same-Spin Scale       =       0.3333333333333333 [-]
	 SCS Opposite-Spin Scale   =       1.2000000000000000 [-]
	 SCS Same-Spin Energy      =      -0.1323161054230003 [Eh]
	 SCS Opposite-Spin Energy  =      -1.5677100291032842 [Eh]
	 SCS Correlation Energy    =      -1.7000261345262844 [Eh]
	 SCS Total Energy          =    -365.9729924191097439 [Eh]
	-----------------------------------------------------------

  Dipole Moment: [D]
     X:    -8.4301      Y:     0.0123      Z:     0.2420     Total:     8.4336

*** Psi4 exiting successfully. Buy a developer a beer!
