                               Psi4 1.4a3.dev225

  ==> Input File <==

--------------------------------------------------------------------------
#psi4
#
memory 32 gb

molecule  {
1 1
  N       -2.8138210    -0.0000810     0.0131690
  C       -1.3233890    -0.0000370    -0.0148680
  C        0.7280520     1.2302730    -0.0129860
  C        0.7281180    -1.2302340    -0.0129780
  C       -0.8043292    -1.2877487    -0.0085840
  C       -0.6726490     1.2263940    -0.0069970
  C        1.3988940     0.0000390    -0.0107890
  C        1.4942690     2.5253230     0.0134310
  C        1.4944180    -2.5252350     0.0134270
  H       -1.2241800    -2.1659650    -0.0138510
  H       -1.2242990     2.1658960    -0.0138630
  H        2.4879510     0.0000680    -0.0240190
  H       -3.1956820     0.8285560    -0.4636260
  H       -3.1956410    -0.8285950    -0.4638730
  H       -3.1827690    -0.0002330     0.9749950
  H        0.8779320     3.3605910    -0.3276200
  H        1.8358100     2.7495590     1.0289260
  H        2.3762850     2.4675780    -0.6290150
  H        2.3762540    -2.4675350    -0.6292720
  H        0.8780380    -3.3605930    -0.3273260
  H        1.8362550    -2.7492930     1.0288600
units angstrom
no_reorient  #important for SAPT in psi4, default
symmetry c1  #important for SAPT in psi4, default
}

set PROPERTIES_ORIGIN ["COM"]
properties('MP2/aug-cc-pvtz', properties = ['dipole'])
--------------------------------------------------------------------------

    Molecular point group: c1
  Charge       = 1
  Multiplicity = 1
  Basis Set: AUG-CC-PVTZ
    Blend: AUG-CC-PVTZ
  Basis Set: (AUG-CC-PVTZ AUX)
    Blend: AUG-CC-PVTZ-JKFIT

    Orbital Energies [Eh]
    ---------------------

    Doubly Occupied:

       1A    -15.882315     2A    -11.464896     3A    -11.411008
       4A    -11.400716     5A    -11.396875     6A    -11.390644
       7A    -11.370043     8A    -11.347213     9A    -11.345962
      10A     -1.500208    11A     -1.299938    12A     -1.199335
      13A     -1.183052    14A     -1.090641    15A     -1.071127
      16A     -0.986022    17A     -0.958781    18A     -0.945929
      19A     -0.911370    20A     -0.864835    21A     -0.823187
      22A     -0.787806    23A     -0.743426    24A     -0.715276
      25A     -0.709197    26A     -0.690911    27A     -0.681034
      28A     -0.657968    29A     -0.634448    30A     -0.631720
      31A     -0.624985    32A     -0.491818    33A     -0.464337

  @DF-RHF Final Energy:  -364.26592808385749

   => Energetics <=

    Nuclear Repulsion Energy =            430.4733799066880806
    One-Electron Energy =               -1334.1245702576279655
    Two-Electron Energy =                 539.3852622670824530
    Total Energy =                       -364.2659280838574887
  Basis Set: (AUG-CC-PVTZ AUX)
    Blend: AUG-CC-PVTZ-RI
    Molecular point group: c1

    Geometry (in Angstrom), charge = 1, multiplicity = 1:

       Center              X                  Y                   Z               Mass
    ------------   -----------------  -----------------  -----------------  -----------------
         N           -2.795552492541     0.005945426016     0.014465572188    14.003074004430
         C           -1.305120492541     0.005989426016    -0.013571427812    12.000000000000
         C            0.746320507459     1.236299426016    -0.011689427812    12.000000000000
         C            0.746386507459    -1.224207573984    -0.011681427812    12.000000000000
         C           -0.786060692541    -1.281722273984    -0.007287427812    12.000000000000
         C           -0.654380492541     1.232420426016    -0.005700427812    12.000000000000
         C            1.417162507459     0.006065426016    -0.009492427812    12.000000000000
         C            1.512537507459     2.531349426016     0.014727572188    12.000000000000
         C            1.512686507459    -2.519208573984     0.014723572188    12.000000000000
         H           -1.205911492541    -2.159938573984    -0.012554427812     1.007825032230
         H           -1.206030492541     2.171922426016    -0.012566427812     1.007825032230
         H            2.506219507459     0.006094426016    -0.022722427812     1.007825032230
         H           -3.177413492541     0.834582426016    -0.462329427812     1.007825032230
         H           -3.177372492541    -0.822568573984    -0.462576427812     1.007825032230
         H           -3.164500492541     0.005793426016     0.976291572188     1.007825032230
         H            0.896200507459     3.366617426016    -0.326323427812     1.007825032230
         H            1.854078507459     2.755585426016     1.030222572188     1.007825032230
         H            2.394553507459     2.473604426016    -0.627718427812     1.007825032230
         H            2.394522507459    -2.461508573984    -0.627975427812     1.007825032230
         H            0.896306507459    -3.354566573984    -0.326029427812     1.007825032230
         H            1.854523507459    -2.743266573984     1.030156572188     1.007825032230

  Basis Set: AUG-CC-PVTZ
    Blend: AUG-CC-PVTZ
  Basis Set: (AUG-CC-PVTZ AUX)
    Blend: AUG-CC-PVTZ-JKFIT
	 Reference Energy          =    -364.2659280838574887 [Eh]
	 Singles Energy            =      -0.0000000000000000 [Eh]
	 Same-Spin Energy          =      -0.3972589719113790 [Eh]
	 Opposite-Spin Energy      =      -1.3070189755122095 [Eh]
	 Correlation Energy        =      -1.7042779474235885 [Eh]
	 Total Energy              =    -365.9702060312810659 [Eh]

	 ================> DF-SCS-MP2 Energies <==================
	-----------------------------------------------------------
	 SCS Same-Spin Scale       =       0.3333333333333333 [-]
	 SCS Opposite-Spin Scale   =       1.2000000000000000 [-]
	 SCS Same-Spin Energy      =      -0.1324196573037930 [Eh]
	 SCS Opposite-Spin Energy  =      -1.5684227706146514 [Eh]
	 SCS Correlation Energy    =      -1.7008424279184444 [Eh]
	 SCS Total Energy          =    -365.9667705117759056 [Eh]
	-----------------------------------------------------------

  Dipole Moment: [D]
     X:    -8.1444      Y:     0.0338      Z:     0.1747     Total:     8.1464

*** Psi4 exiting successfully. Buy a developer a beer!
