                               Psi4 1.4a3.dev225

  ==> Input File <==

--------------------------------------------------------------------------
#psi4
#
memory 32 gb

molecule  {
1 1
  N       -2.8138210    -0.0000810     0.0131690
  C       -1.3233890    -0.0000370    -0.0148680
  C        0.7280520     1.2302730    -0.0129860
  C        0.7281180    -1.2302340    -0.0129780
  C       -0.6725800    -1.2264340    -0.0069900
  C       -0.6726490     1.2263940    -0.0069970
  C        1.3988940     0.0000390    -0.0107890
  C        1.4942690     2.5253230     0.0134310
  C        1.4944180    -2.5252350     0.0134270
  H       -1.2241800    -2.1659650    -0.0138510
  H       -1.2242990     2.1658960    -0.0138630
  H        2.4879510     0.0000680    -0.0240190
  H       -3.2131231     0.8371302    -0.4334021
  H       -3.1956410    -0.8285950    -0.4638730
  H       -3.1827690    -0.0002330     0.9749950
  H        0.8779320     3.3605910    -0.3276200
  H        1.8358100     2.7495590     1.0289260
  H        2.3762850     2.4675780    -0.6290150
  H        2.3762540    -2.4675350    -0.6292720
  H        0.8780380    -3.3605930    -0.3273260
  H        1.8362550    -2.7492930     1.0288600
units angstrom
no_reorient  #important for SAPT in psi4, default
symmetry c1  #important for SAPT in psi4, default
}

set PROPERTIES_ORIGIN ["COM"]
properties('MP2/aug-cc-pvtz', properties = ['dipole'])
--------------------------------------------------------------------------

    Molecular point group: c1
  Charge       = 1
  Multiplicity = 1
  Basis Set: AUG-CC-PVTZ
    Blend: AUG-CC-PVTZ
  Basis Set: (AUG-CC-PVTZ AUX)
    Blend: AUG-CC-PVTZ-JKFIT

    Orbital Energies [Eh]
    ---------------------

    Doubly Occupied:

       1A    -15.888783     2A    -11.459117     3A    -11.394850
       4A    -11.394762     5A    -11.393551     6A    -11.393446
       7A    -11.371492     8A    -11.344964     9A    -11.344932
      10A     -1.502563    11A     -1.309307    12A     -1.204820
      13A     -1.182270    14A     -1.083094    15A     -1.070358
      16A     -0.989439    17A     -0.966939    18A     -0.946493
      19A     -0.908430    20A     -0.856275    21A     -0.820670
      22A     -0.795034    23A     -0.724089    24A     -0.715359
      25A     -0.710672    26A     -0.690298    27A     -0.679067
      28A     -0.656861    29A     -0.641127    30A     -0.634525
      31A     -0.628465    32A     -0.486336    33A     -0.474965

  @DF-RHF Final Energy:  -364.29421395203042

   => Energetics <=

    Nuclear Repulsion Energy =            432.3087197540992292
    One-Electron Energy =               -1337.8791623294519013
    Two-Electron Energy =                 541.2762286233222540
    Total Energy =                       -364.2942139520304181
  Basis Set: (AUG-CC-PVTZ AUX)
    Blend: AUG-CC-PVTZ-RI
    Molecular point group: c1

    Geometry (in Angstrom), charge = 1, multiplicity = 1:

       Center              X                  Y                   Z               Mass
    ------------   -----------------  -----------------  -----------------  -----------------
         N           -2.808357173662    -0.000151512070     0.014059432697    14.003074004430
         C           -1.317925173662    -0.000107512070    -0.013977567303    12.000000000000
         C            0.733515826338     1.230202487930    -0.012095567303    12.000000000000
         C            0.733581826338    -1.230304512070    -0.012087567303    12.000000000000
         C           -0.667116173662    -1.226504512070    -0.006099567303    12.000000000000
         C           -0.667185173662     1.226323487930    -0.006106567303    12.000000000000
         C            1.404357826338    -0.000031512070    -0.009898567303    12.000000000000
         C            1.499732826338     2.525252487930     0.014321432697    12.000000000000
         C            1.499881826338    -2.525305512070     0.014317432697    12.000000000000
         H           -1.218716173662    -2.166035512070    -0.012960567303     1.007825032230
         H           -1.218835173662     2.165825487930    -0.012972567303     1.007825032230
         H            2.493414826338    -0.000002512070    -0.023128567303     1.007825032230
         H           -3.207659273662     0.837059687930    -0.432511667303     1.007825032230
         H           -3.190177173662    -0.828665512070    -0.462982567303     1.007825032230
         H           -3.177305173662    -0.000303512070     0.975885432697     1.007825032230
         H            0.883395826338     3.360520487930    -0.326729567303     1.007825032230
         H            1.841273826338     2.749488487930     1.029816432697     1.007825032230
         H            2.381748826338     2.467507487930    -0.628124567303     1.007825032230
         H            2.381717826338    -2.467605512070    -0.628381567303     1.007825032230
         H            0.883501826338    -3.360663512070    -0.326435567303     1.007825032230
         H            1.841718826338    -2.749363512070     1.029750432697     1.007825032230

  Basis Set: AUG-CC-PVTZ
    Blend: AUG-CC-PVTZ
  Basis Set: (AUG-CC-PVTZ AUX)
    Blend: AUG-CC-PVTZ-JKFIT
	 Reference Energy          =    -364.2942139520304181 [Eh]
	 Singles Energy            =      -0.0000000000000000 [Eh]
	 Same-Spin Energy          =      -0.3971544826969363 [Eh]
	 Opposite-Spin Energy      =      -1.3052868111011875 [Eh]
	 Correlation Energy        =      -1.7024412937981239 [Eh]
	 Total Energy              =    -365.9966552458285491 [Eh]

	 ================> DF-SCS-MP2 Energies <==================
	-----------------------------------------------------------
	 SCS Same-Spin Scale       =       0.3333333333333333 [-]
	 SCS Opposite-Spin Scale   =       1.2000000000000000 [-]
	 SCS Same-Spin Energy      =      -0.1323848275656454 [Eh]
	 SCS Opposite-Spin Energy  =      -1.5663441733214249 [Eh]
	 SCS Correlation Energy    =      -1.6987290008870704 [Eh]
	 SCS Total Energy          =    -365.9929429529174740 [Eh]
	-----------------------------------------------------------

  Dipole Moment: [D]
     X:    -8.3846      Y:     0.0107      Z:     0.1996     Total:     8.3870

*** Psi4 exiting successfully. Buy a developer a beer!
