                               Psi4 1.4a3.dev225

  ==> Input File <==

--------------------------------------------------------------------------
#psi4
#
memory 32 gb

molecule  {
1 1
  N       -2.8138210    -0.0000810     0.0131690
  C       -1.3233890    -0.0000370    -0.0148680
  C        0.7280520     1.2302730    -0.0129860
  C        0.7281180    -1.2302340    -0.0129780
  C       -0.6725800    -1.2264340    -0.0069900
  C       -0.6726490     1.2263940    -0.0069970
  C        1.3988940     0.0000390    -0.0107890
  C        1.4942690     2.5253230     0.0134310
  C        1.4944180    -2.5252350     0.0134270
  H       -1.2241800    -2.1659650    -0.0138510
  H       -1.2242990     2.1658960    -0.0138630
  H        2.4879510     0.0000680    -0.0240190
  H       -3.1956820     0.8285560    -0.4636260
  H       -3.1956410    -0.8285950    -0.4638730
  H       -3.1827690    -0.0002330     0.9749950
  H        0.8683955     3.3232102    -0.3934082
  H        1.8358100     2.7495590     1.0289260
  H        2.3762850     2.4675780    -0.6290150
  H        2.3762540    -2.4675350    -0.6292720
  H        0.8780380    -3.3605930    -0.3273260
  H        1.8362550    -2.7492930     1.0288600
units angstrom
no_reorient  #important for SAPT in psi4, default
symmetry c1  #important for SAPT in psi4, default
}

set PROPERTIES_ORIGIN ["COM"]
properties('MP2/aug-cc-pvtz', properties = ['dipole'])
--------------------------------------------------------------------------

    Molecular point group: c1
  Charge       = 1
  Multiplicity = 1
  Basis Set: AUG-CC-PVTZ
    Blend: AUG-CC-PVTZ
  Basis Set: (AUG-CC-PVTZ AUX)
    Blend: AUG-CC-PVTZ-JKFIT

    Orbital Energies [Eh]
    ---------------------

    Doubly Occupied:

       1A    -15.888709     2A    -11.458912     3A    -11.394721
       4A    -11.394460     5A    -11.393442     6A    -11.393274
       7A    -11.371275     8A    -11.345108     9A    -11.344916
      10A     -1.502548    11A     -1.309202    12A     -1.204988
      13A     -1.182041    14A     -1.083113    15A     -1.070413
      16A     -0.988809    17A     -0.965847    18A     -0.949665
      19A     -0.907474    20A     -0.855831    21A     -0.820411
      22A     -0.794920    23A     -0.723695    24A     -0.714401
      25A     -0.712599    26A     -0.692875    27A     -0.677236
      28A     -0.657093    29A     -0.641231    30A     -0.635415
      31A     -0.626035    32A     -0.486450    33A     -0.475127

  @DF-RHF Final Energy:  -364.29380050911283

   => Energetics <=

    Nuclear Repulsion Energy =            432.4002769288662194
    One-Electron Energy =               -1338.0636880667739206
    Two-Electron Energy =                 541.3696106287949306
    Total Energy =                       -364.2938005091127707
  Basis Set: (AUG-CC-PVTZ AUX)
    Blend: AUG-CC-PVTZ-RI
    Molecular point group: c1

    Geometry (in Angstrom), charge = 1, multiplicity = 1:

       Center              X                  Y                   Z               Mass
    ------------   -----------------  -----------------  -----------------  -----------------
         N           -2.808422420600     0.000227814277     0.014851945356    14.003074004430
         C           -1.317990420600     0.000271814277    -0.013185054644    12.000000000000
         C            0.733450579400     1.230581814277    -0.011303054644    12.000000000000
         C            0.733516579400    -1.229925185723    -0.011295054644    12.000000000000
         C           -0.667181420600    -1.226125185723    -0.005307054644    12.000000000000
         C           -0.667250420600     1.226702814277    -0.005314054644    12.000000000000
         C            1.404292579400     0.000347814277    -0.009106054644    12.000000000000
         C            1.499667579400     2.525631814277     0.015113945356    12.000000000000
         C            1.499816579400    -2.524926185723     0.015109945356    12.000000000000
         H           -1.218781420600    -2.165656185723    -0.012168054644     1.007825032230
         H           -1.218900420600     2.166204814277    -0.012180054644     1.007825032230
         H            2.493349579400     0.000376814277    -0.022336054644     1.007825032230
         H           -3.190283420600     0.828864814277    -0.461943054644     1.007825032230
         H           -3.190242420600    -0.828286185723    -0.462190054644     1.007825032230
         H           -3.177370420600     0.000075814277     0.976677945356     1.007825032230
         H            0.873794079400     3.323519014277    -0.391725254644     1.007825032230
         H            1.841208579400     2.749867814277     1.030608945356     1.007825032230
         H            2.381683579400     2.467886814277    -0.627332054644     1.007825032230
         H            2.381652579400    -2.467226185723    -0.627589054644     1.007825032230
         H            0.883436579400    -3.360284185723    -0.325643054644     1.007825032230
         H            1.841653579400    -2.748984185723     1.030542945356     1.007825032230

  Basis Set: AUG-CC-PVTZ
    Blend: AUG-CC-PVTZ
  Basis Set: (AUG-CC-PVTZ AUX)
    Blend: AUG-CC-PVTZ-JKFIT
	 Reference Energy          =    -364.2938005091128275 [Eh]
	 Singles Energy            =      -0.0000000000000000 [Eh]
	 Same-Spin Energy          =      -0.3971885996194691 [Eh]
	 Opposite-Spin Energy      =      -1.3053864391762757 [Eh]
	 Correlation Energy        =      -1.7025750387957448 [Eh]
	 Total Energy              =    -365.9963755479085989 [Eh]

	 ================> DF-SCS-MP2 Energies <==================
	-----------------------------------------------------------
	 SCS Same-Spin Scale       =       0.3333333333333333 [-]
	 SCS Opposite-Spin Scale   =       1.2000000000000000 [-]
	 SCS Same-Spin Energy      =      -0.1323961998731563 [Eh]
	 SCS Opposite-Spin Energy  =      -1.5664637270115309 [Eh]
	 SCS Correlation Energy    =      -1.6988599268846873 [Eh]
	 SCS Total Energy          =    -365.9926604359974931 [Eh]
	-----------------------------------------------------------

  Dipole Moment: [D]
     X:    -8.3599      Y:    -0.0161      Z:     0.1507     Total:     8.3613

*** Psi4 exiting successfully. Buy a developer a beer!
