                               Psi4 1.4a3.dev225

  ==> Input File <==

--------------------------------------------------------------------------
#psi4
#
memory 32 gb

molecule  {
1 1
  N       -2.8138210    -0.0000810     0.0131690
  C       -1.3233890    -0.0000370    -0.0148680
  C        0.7280520     1.2302730    -0.0129860
  C        0.7281180    -1.2302340    -0.0129780
  C       -0.6725800    -1.2264340    -0.0069900
  C       -0.6726490     1.2263940    -0.0069970
  C        1.3988940     0.0000390    -0.0107890
  C        1.4942690     2.5253230     0.0134310
  C        1.4944180    -2.5252350     0.0134270
  H       -1.2241800    -2.1659650    -0.0138510
  H       -1.2242990     2.1658960    -0.0138630
  H        2.4879510     0.0000680    -0.0240190
  H       -3.1956820     0.8285560    -0.4636260
  H       -3.1956410    -0.8285950    -0.4638730
  H       -3.1827690    -0.0002330     0.9749950
  H        0.8779320     3.3605910    -0.3276200
  H        1.8358100     2.7495590     1.0289260
  H        2.3762850     2.4675780    -0.6290150
  H        2.4166047    -2.4648948    -0.6586804
  H        0.8780380    -3.3605930    -0.3273260
  H        1.8362550    -2.7492930     1.0288600
units angstrom
no_reorient  #important for SAPT in psi4, default
symmetry c1  #important for SAPT in psi4, default
}

set PROPERTIES_ORIGIN ["COM"]
properties('MP2/aug-cc-pvtz', properties = ['dipole'])
--------------------------------------------------------------------------

    Molecular point group: c1
  Charge       = 1
  Multiplicity = 1
  Basis Set: AUG-CC-PVTZ
    Blend: AUG-CC-PVTZ
  Basis Set: (AUG-CC-PVTZ AUX)
    Blend: AUG-CC-PVTZ-JKFIT

    Orbital Energies [Eh]
    ---------------------

    Doubly Occupied:

       1A    -15.888803     2A    -11.459031     3A    -11.395135
       4A    -11.394878     5A    -11.393770     6A    -11.393594
       7A    -11.371577     8A    -11.350594     9A    -11.345002
      10A     -1.502641    11A     -1.309319    12A     -1.204623
      13A     -1.181824    14A     -1.082018    15A     -1.068675
      16A     -0.988630    17A     -0.965446    18A     -0.949754
      19A     -0.907584    20A     -0.855581    21A     -0.820442
      22A     -0.794482    23A     -0.724246    24A     -0.715369
      25A     -0.709861    26A     -0.688991    27A     -0.677184
      28A     -0.653817    29A     -0.639449    30A     -0.633829
      31A     -0.628553    32A     -0.486315    33A     -0.475019

  @DF-RHF Final Energy:  -364.29221273732207

   => Energetics <=

    Nuclear Repulsion Energy =            432.1292465847626545
    One-Electron Energy =               -1337.5308435865349566
    Two-Electron Energy =                 541.1093842644502274
    Total Energy =                       -364.2922127373220746
  Basis Set: (AUG-CC-PVTZ AUX)
    Blend: AUG-CC-PVTZ-RI
    Molecular point group: c1

    Geometry (in Angstrom), charge = 1, multiplicity = 1:

       Center              X                  Y                   Z               Mass
    ------------   -----------------  -----------------  -----------------  -----------------
         N           -2.808834204505    -0.000102531055     0.014551655580    14.003074004430
         C           -1.318402204505    -0.000058531055    -0.013485344420    12.000000000000
         C            0.733038795495     1.230251468945    -0.011603344420    12.000000000000
         C            0.733104795495    -1.230255531055    -0.011595344420    12.000000000000
         C           -0.667593204505    -1.226455531055    -0.005607344420    12.000000000000
         C           -0.667662204505     1.226372468945    -0.005614344420    12.000000000000
         C            1.403880795495     0.000017468945    -0.009406344420    12.000000000000
         C            1.499255795495     2.525301468945     0.014813655580    12.000000000000
         C            1.499404795495    -2.525256531055     0.014809655580    12.000000000000
         H           -1.219193204505    -2.165986531055    -0.012468344420     1.007825032230
         H           -1.219312204505     2.165874468945    -0.012480344420     1.007825032230
         H            2.492937795495     0.000046468945    -0.022636344420     1.007825032230
         H           -3.190695204505     0.828534468945    -0.462243344420     1.007825032230
         H           -3.190654204505    -0.828616531055    -0.462490344420     1.007825032230
         H           -3.177782204505    -0.000254531055     0.976377655580     1.007825032230
         H            0.882918795495     3.360569468945    -0.326237344420     1.007825032230
         H            1.840796795495     2.749537468945     1.030308655580     1.007825032230
         H            2.381271795495     2.467556468945    -0.627632344420     1.007825032230
         H            2.421591495495    -2.464916331055    -0.657297744420     1.007825032230
         H            0.883024795495    -3.360614531055    -0.325943344420     1.007825032230
         H            1.841241795495    -2.749314531055     1.030242655580     1.007825032230

  Basis Set: AUG-CC-PVTZ
    Blend: AUG-CC-PVTZ
  Basis Set: (AUG-CC-PVTZ AUX)
    Blend: AUG-CC-PVTZ-JKFIT
	 Reference Energy          =    -364.2922127373220746 [Eh]
	 Singles Energy            =      -0.0000000000000000 [Eh]
	 Same-Spin Energy          =      -0.3971789636415055 [Eh]
	 Opposite-Spin Energy      =      -1.3056655826887349 [Eh]
	 Correlation Energy        =      -1.7028445463302404 [Eh]
	 Total Energy              =    -365.9950572836523293 [Eh]

	 ================> DF-SCS-MP2 Energies <==================
	-----------------------------------------------------------
	 SCS Same-Spin Scale       =       0.3333333333333333 [-]
	 SCS Opposite-Spin Scale   =       1.2000000000000000 [-]
	 SCS Same-Spin Energy      =      -0.1323929878805018 [Eh]
	 SCS Opposite-Spin Energy  =      -1.5667986992264817 [Eh]
	 SCS Correlation Energy    =      -1.6991916871069837 [Eh]
	 SCS Total Energy          =    -365.9914044244290494 [Eh]
	-----------------------------------------------------------

  Dipole Moment: [D]
     X:    -8.3769      Y:     0.0038      Z:     0.1752     Total:     8.3788

*** Psi4 exiting successfully. Buy a developer a beer!
