                               Psi4 1.4a3.dev225

  ==> Input File <==

--------------------------------------------------------------------------
#psi4
#
memory 32 gb

molecule  {
1 1
  N       -2.8138210    -0.0000810     0.0131690
  C       -1.3233890    -0.0000370    -0.0148680
  C        0.7280520     1.2302730    -0.0129860
  C        0.7281180    -1.2302340    -0.0129780
  C       -0.7225794    -1.2262984    -0.0067763
  C       -0.6726490     1.2263940    -0.0069970
  C        1.3988940     0.0000390    -0.0107890
  C        1.4942690     2.5253230     0.0134310
  C        1.4944180    -2.5252350     0.0134270
  H       -1.2241800    -2.1659650    -0.0138510
  H       -1.2242990     2.1658960    -0.0138630
  H        2.4879510     0.0000680    -0.0240190
  H       -3.1956820     0.8285560    -0.4636260
  H       -3.1956410    -0.8285950    -0.4638730
  H       -3.1827690    -0.0002330     0.9749950
  H        0.8779320     3.3605910    -0.3276200
  H        1.8358100     2.7495590     1.0289260
  H        2.3762850     2.4675780    -0.6290150
  H        2.3762540    -2.4675350    -0.6292720
  H        0.8780380    -3.3605930    -0.3273260
  H        1.8362550    -2.7492930     1.0288600
units angstrom
no_reorient  #important for SAPT in psi4, default
symmetry c1  #important for SAPT in psi4, default
}

set PROPERTIES_ORIGIN ["COM"]
properties('MP2/aug-cc-pvtz', properties = ['dipole'])
--------------------------------------------------------------------------

    Molecular point group: c1
  Charge       = 1
  Multiplicity = 1
  Basis Set: AUG-CC-PVTZ
    Blend: AUG-CC-PVTZ
  Basis Set: (AUG-CC-PVTZ AUX)
    Blend: AUG-CC-PVTZ-JKFIT

    Orbital Energies [Eh]
    ---------------------

    Doubly Occupied:

       1A    -15.886547     2A    -11.458439     3A    -11.400946
       4A    -11.396331     5A    -11.394416     6A    -11.391344
       7A    -11.370506     8A    -11.346005     9A    -11.345445
      10A     -1.502121    11A     -1.306949    12A     -1.201922
      13A     -1.184593    14A     -1.085877    15A     -1.070582
      16A     -0.985731    17A     -0.964188    18A     -0.948580
      19A     -0.908112    20A     -0.858272    21A     -0.819351
      22A     -0.794584    23A     -0.727933    24A     -0.716163
      25A     -0.710227    26A     -0.690549    27A     -0.679528
      28A     -0.657875    29A     -0.637275    30A     -0.635072
      31A     -0.630714    32A     -0.489612    33A     -0.470132

  @DF-RHF Final Energy:  -364.29131464680904

   => Energetics <=

    Nuclear Repulsion Energy =            431.9654358898778241
    One-Electron Energy =               -1337.1816595173040696
    Two-Electron Energy =                 540.9249089806171469
    Total Energy =                       -364.2913146468090417
  Basis Set: (AUG-CC-PVTZ AUX)
    Blend: AUG-CC-PVTZ-RI
    Molecular point group: c1

    Geometry (in Angstrom), charge = 1, multiplicity = 1:

       Center              X                  Y                   Z               Mass
    ------------   -----------------  -----------------  -----------------  -----------------
         N           -2.803587070015    -0.000094065165     0.014287906852    14.003074004430
         C           -1.313155070015    -0.000050065165    -0.013749093148    12.000000000000
         C            0.738285929985     1.230259934835    -0.011867093148    12.000000000000
         C            0.738351929985    -1.230247065165    -0.011859093148    12.000000000000
         C           -0.712345470015    -1.226311465165    -0.005657393148    12.000000000000
         C           -0.662415070015     1.226380934835    -0.005878093148    12.000000000000
         C            1.409127929985     0.000025934835    -0.009670093148    12.000000000000
         C            1.504502929985     2.525309934835     0.014549906852    12.000000000000
         C            1.504651929985    -2.525248065165     0.014545906852    12.000000000000
         H           -1.213946070015    -2.165978065165    -0.012732093148     1.007825032230
         H           -1.214065070015     2.165882934835    -0.012744093148     1.007825032230
         H            2.498184929985     0.000054934835    -0.022900093148     1.007825032230
         H           -3.185448070015     0.828542934835    -0.462507093148     1.007825032230
         H           -3.185407070015    -0.828608065165    -0.462754093148     1.007825032230
         H           -3.172535070015    -0.000246065165     0.976113906852     1.007825032230
         H            0.888165929985     3.360577934835    -0.326501093148     1.007825032230
         H            1.846043929985     2.749545934835     1.030044906852     1.007825032230
         H            2.386518929985     2.467564934835    -0.627896093148     1.007825032230
         H            2.386487929985    -2.467548065165    -0.628153093148     1.007825032230
         H            0.888271929985    -3.360606065165    -0.326207093148     1.007825032230
         H            1.846488929985    -2.749306065165     1.029978906852     1.007825032230

  Basis Set: AUG-CC-PVTZ
    Blend: AUG-CC-PVTZ
  Basis Set: (AUG-CC-PVTZ AUX)
    Blend: AUG-CC-PVTZ-JKFIT
	 Reference Energy          =    -364.2913146468090417 [Eh]
	 Singles Energy            =      -0.0000000000000000 [Eh]
	 Same-Spin Energy          =      -0.3970733067153100 [Eh]
	 Opposite-Spin Energy      =      -1.3053648844914261 [Eh]
	 Correlation Energy        =      -1.7024381912067361 [Eh]
	 Total Energy              =    -365.9937528380157801 [Eh]

	 ================> DF-SCS-MP2 Energies <==================
	-----------------------------------------------------------
	 SCS Same-Spin Scale       =       0.3333333333333333 [-]
	 SCS Opposite-Spin Scale   =       1.2000000000000000 [-]
	 SCS Same-Spin Energy      =      -0.1323577689051033 [Eh]
	 SCS Opposite-Spin Energy  =      -1.5664378613897112 [Eh]
	 SCS Correlation Energy    =      -1.6987956302948146 [Eh]
	 SCS Total Energy          =    -365.9901102771038381 [Eh]
	-----------------------------------------------------------

  Dipole Moment: [D]
     X:    -8.2913      Y:    -0.0298      Z:     0.1706     Total:     8.2931

*** Psi4 exiting successfully. Buy a developer a beer!
