                               Psi4 1.4a3.dev225

  ==> Input File <==

--------------------------------------------------------------------------
#psi4
#
memory 32 gb

molecule  {
1 1
  N       -2.8138210    -0.0000810     0.0131690
  C       -1.3233890    -0.0000370    -0.0148680
  C        0.7280520     1.2302730    -0.0129860
  C        0.7281180    -1.2302340    -0.0129780
  C       -0.6725800    -1.2264340    -0.0069900
  C       -0.6726490     1.2263940    -0.0069970
  C        1.3988940     0.0000390    -0.0107890
  C        1.4942690     2.5253230     0.0134310
  C        1.4944180    -2.5252350     0.0134270
  H       -1.2241800    -2.1659650    -0.0138510
  H       -1.2242990     2.1658960    -0.0138630
  H        2.4879510     0.0000680    -0.0240190
  H       -3.1956820     0.8285560    -0.4636260
  H       -3.1956410    -0.8285950    -0.4638730
  H       -3.1827690    -0.0002330     0.9749950
  H        0.8779320     3.3605910    -0.3276200
  H        1.8358100     2.7495590     1.0289260
  H        2.3762850     2.4675780    -0.6290150
  H        2.3762540    -2.4675350    -0.6292720
  H        0.8780380    -3.3605930    -0.3273260
  H        1.8518696    -2.7595277     1.0752436
units angstrom
no_reorient  #important for SAPT in psi4, default
symmetry c1  #important for SAPT in psi4, default
}

set PROPERTIES_ORIGIN ["COM"]
properties('MP2/aug-cc-pvtz', properties = ['dipole'])
--------------------------------------------------------------------------

    Molecular point group: c1
  Charge       = 1
  Multiplicity = 1
  Basis Set: AUG-CC-PVTZ
    Blend: AUG-CC-PVTZ
  Basis Set: (AUG-CC-PVTZ AUX)
    Blend: AUG-CC-PVTZ-JKFIT

    Orbital Energies [Eh]
    ---------------------

    Doubly Occupied:

       1A    -15.888768     2A    -11.458995     3A    -11.395076
       4A    -11.394888     5A    -11.393682     6A    -11.393580
       7A    -11.371641     8A    -11.350597     9A    -11.345013
      10A     -1.502608    11A     -1.309300    12A     -1.204566
      13A     -1.181874    14A     -1.082100    15A     -1.068517
      16A     -0.988758    17A     -0.965438    18A     -0.949720
      19A     -0.907425    20A     -0.855658    21A     -0.820538
      22A     -0.794941    23A     -0.724043    24A     -0.715280
      25A     -0.708263    26A     -0.685389    27A     -0.679326
      28A     -0.656650    29A     -0.641217    30A     -0.632483
      31A     -0.628528    32A     -0.486199    33A     -0.474712

  @DF-RHF Final Energy:  -364.29227297485909

   => Energetics <=

    Nuclear Repulsion Energy =            432.1270608684104673
    One-Electron Energy =               -1337.5271192341263031
    Two-Electron Energy =                 541.1077853908567477
    Total Energy =                       -364.2922729748590882
  Basis Set: (AUG-CC-PVTZ AUX)
    Blend: AUG-CC-PVTZ-RI
    Molecular point group: c1

    Geometry (in Angstrom), charge = 1, multiplicity = 1:

       Center              X                  Y                   Z               Mass
    ------------   -----------------  -----------------  -----------------  -----------------
         N           -2.808630025320     0.000003742229     0.013926045689    14.003074004430
         C           -1.318198025320     0.000047742229    -0.014110954311    12.000000000000
         C            0.733242974680     1.230357742229    -0.012228954311    12.000000000000
         C            0.733308974680    -1.230149257771    -0.012220954311    12.000000000000
         C           -0.667389025320    -1.226349257771    -0.006232954311    12.000000000000
         C           -0.667458025320     1.226478742229    -0.006239954311    12.000000000000
         C            1.404084974680     0.000123742229    -0.010031954311    12.000000000000
         C            1.499459974680     2.525407742229     0.014188045689    12.000000000000
         C            1.499608974680    -2.525150257771     0.014184045689    12.000000000000
         H           -1.218989025320    -2.165880257771    -0.013093954311     1.007825032230
         H           -1.219108025320     2.165980742229    -0.013105954311     1.007825032230
         H            2.493141974680     0.000152742229    -0.023261954311     1.007825032230
         H           -3.190491025320     0.828640742229    -0.462868954311     1.007825032230
         H           -3.190450025320    -0.828510257771    -0.463115954311     1.007825032230
         H           -3.177578025320    -0.000148257771     0.975752045689     1.007825032230
         H            0.883122974680     3.360675742229    -0.326862954311     1.007825032230
         H            1.841000974680     2.749643742229     1.029683045689     1.007825032230
         H            2.381475974680     2.467662742229    -0.628257954311     1.007825032230
         H            2.381444974680    -2.467450257771    -0.628514954311     1.007825032230
         H            0.883228974680    -3.360508257771    -0.326568954311     1.007825032230
         H            1.857060574680    -2.759442957771     1.076000645689     1.007825032230

  Basis Set: AUG-CC-PVTZ
    Blend: AUG-CC-PVTZ
  Basis Set: (AUG-CC-PVTZ AUX)
    Blend: AUG-CC-PVTZ-JKFIT
	 Reference Energy          =    -364.2922729748590882 [Eh]
	 Singles Energy            =      -0.0000000000000000 [Eh]
	 Same-Spin Energy          =      -0.3971684186835729 [Eh]
	 Opposite-Spin Energy      =      -1.3056430114733817 [Eh]
	 Correlation Energy        =      -1.7028114301569546 [Eh]
	 Total Energy              =    -365.9950844050160299 [Eh]

	 ================> DF-SCS-MP2 Energies <==================
	-----------------------------------------------------------
	 SCS Same-Spin Scale       =       0.3333333333333333 [-]
	 SCS Opposite-Spin Scale   =       1.2000000000000000 [-]
	 SCS Same-Spin Energy      =      -0.1323894728945243 [Eh]
	 SCS Opposite-Spin Energy  =      -1.5667716137680581 [Eh]
	 SCS Correlation Energy    =      -1.6991610866625824 [Eh]
	 SCS Total Energy          =    -365.9914340615216588 [Eh]
	-----------------------------------------------------------

  Dipole Moment: [D]
     X:    -8.3698      Y:     0.0038      Z:     0.1632     Total:     8.3714

*** Psi4 exiting successfully. Buy a developer a beer!
