                               Psi4 1.4a3.dev225

  ==> Input File <==

--------------------------------------------------------------------------
#psi4
#
memory 32 gb

molecule  {
1 1
  N       -2.8138210    -0.0000810     0.0131690
  C       -1.3233890    -0.0000370    -0.0148680
  C        0.7280520     1.2302730    -0.0129860
  C        0.7281180    -1.2302340    -0.0129780
  C       -0.6725800    -1.2264340    -0.0069900
  C       -0.6726490     1.2263940    -0.0069970
  C        1.3988940     0.0000390    -0.0107890
  C        1.4942690     2.5253230     0.0134310
  C        1.4944180    -2.5252350     0.0134270
  H       -1.2241800    -2.1659650    -0.0138510
  H       -1.2242990     2.1658960    -0.0138630
  H        2.4879510     0.0000680    -0.0240190
  H       -3.1956820     0.8285560    -0.4636260
  H       -3.1956410    -0.8285950    -0.4638730
  H       -3.1827690    -0.0002330     0.9749950
  H        0.8904712     3.3939025    -0.2601702
  H        1.8358100     2.7495590     1.0289260
  H        2.3762850     2.4675780    -0.6290150
  H        2.3762540    -2.4675350    -0.6292720
  H        0.8780380    -3.3605930    -0.3273260
  H        1.8362550    -2.7492930     1.0288600
units angstrom
no_reorient  #important for SAPT in psi4, default
symmetry c1  #important for SAPT in psi4, default
}

set PROPERTIES_ORIGIN ["COM"]
properties('MP2/aug-cc-pvtz', properties = ['dipole'])
--------------------------------------------------------------------------

    Molecular point group: c1
  Charge       = 1
  Multiplicity = 1
  Basis Set: AUG-CC-PVTZ
    Blend: AUG-CC-PVTZ
  Basis Set: (AUG-CC-PVTZ AUX)
    Blend: AUG-CC-PVTZ-JKFIT

    Orbital Energies [Eh]
    ---------------------

    Doubly Occupied:

       1A    -15.888703     2A    -11.458913     3A    -11.395307
       4A    -11.394928     5A    -11.393633     6A    -11.393553
       7A    -11.371788     8A    -11.345034     9A    -11.344864
      10A     -1.502546    11A     -1.309297    12A     -1.204750
      13A     -1.182094    14A     -1.083134    15A     -1.070426
      16A     -0.988926    17A     -0.966257    18A     -0.949662
      19A     -0.908154    20A     -0.856114    21A     -0.820533
      22A     -0.794807    23A     -0.724749    24A     -0.716657
      25A     -0.709494    26A     -0.688958    27A     -0.679460
      28A     -0.656235    29A     -0.641052    30A     -0.633588
      31A     -0.630163    32A     -0.486378    33A     -0.474861

  @DF-RHF Final Energy:  -364.29384913023182

   => Energetics <=

    Nuclear Repulsion Energy =            432.2799413064844885
    One-Electron Energy =               -1337.8175435998157354
    Two-Electron Energy =                 541.2437531630994272
    Total Energy =                       -364.2938491302318198
  Basis Set: (AUG-CC-PVTZ AUX)
    Blend: AUG-CC-PVTZ-RI
    Molecular point group: c1

    Geometry (in Angstrom), charge = 1, multiplicity = 1:

       Center              X                  Y                   Z               Mass
    ------------   -----------------  -----------------  -----------------  -----------------
         N           -2.808604640046    -0.000355701161     0.013752158958    14.003074004430
         C           -1.318172640046    -0.000311701161    -0.014284841042    12.000000000000
         C            0.733268359954     1.229998298839    -0.012402841042    12.000000000000
         C            0.733334359954    -1.230508701161    -0.012394841042    12.000000000000
         C           -0.667363640046    -1.226708701161    -0.006406841042    12.000000000000
         C           -0.667432640046     1.226119298839    -0.006413841042    12.000000000000
         C            1.404110359954    -0.000235701161    -0.010205841042    12.000000000000
         C            1.499485359954     2.525048298839     0.014014158958    12.000000000000
         C            1.499634359954    -2.525509701161     0.014010158958    12.000000000000
         H           -1.218963640046    -2.166239701161    -0.013267841042     1.007825032230
         H           -1.219082640046     2.165621298839    -0.013279841042     1.007825032230
         H            2.493167359954    -0.000206701161    -0.023435841042     1.007825032230
         H           -3.190465640046     0.828281298839    -0.463042841042     1.007825032230
         H           -3.190424640046    -0.828869701161    -0.463289841042     1.007825032230
         H           -3.177552640046    -0.000507701161     0.975578158958     1.007825032230
         H            0.895687559954     3.393627798839    -0.259587041042     1.007825032230
         H            1.841026359954     2.749284298839     1.029509158958     1.007825032230
         H            2.381501359954     2.467303298839    -0.628431841042     1.007825032230
         H            2.381470359954    -2.467809701161    -0.628688841042     1.007825032230
         H            0.883254359954    -3.360867701161    -0.326742841042     1.007825032230
         H            1.841471359954    -2.749567701161     1.029443158958     1.007825032230

  Basis Set: AUG-CC-PVTZ
    Blend: AUG-CC-PVTZ
  Basis Set: (AUG-CC-PVTZ AUX)
    Blend: AUG-CC-PVTZ-JKFIT
	 Reference Energy          =    -364.2938491302318198 [Eh]
	 Singles Energy            =      -0.0000000000000000 [Eh]
	 Same-Spin Energy          =      -0.3971778469280698 [Eh]
	 Opposite-Spin Energy      =      -1.3053068880468337 [Eh]
	 Correlation Energy        =      -1.7024847349749035 [Eh]
	 Total Energy              =    -365.9963338652067364 [Eh]

	 ================> DF-SCS-MP2 Energies <==================
	-----------------------------------------------------------
	 SCS Same-Spin Scale       =       0.3333333333333333 [-]
	 SCS Opposite-Spin Scale   =       1.2000000000000000 [-]
	 SCS Same-Spin Energy      =      -0.1323926156426899 [Eh]
	 SCS Opposite-Spin Energy  =      -1.5663682656562004 [Eh]
	 SCS Correlation Energy    =      -1.6987608812988904 [Eh]
	 SCS Total Energy          =    -365.9926100115307008 [Eh]
	-----------------------------------------------------------

  Dipole Moment: [D]
     X:    -8.3705      Y:     0.0155      Z:     0.1925     Total:     8.3727

*** Psi4 exiting successfully. Buy a developer a beer!
