                               Psi4 1.4a3.dev225

  ==> Input File <==

--------------------------------------------------------------------------
#psi4
#
memory 32 gb

molecule  {
1 1
  N       -2.8138210    -0.0000810     0.0131690
  C       -1.3233890    -0.0000370    -0.0148680
  C        0.7280520     1.2302730    -0.0129860
  C        0.7281180    -1.2302340    -0.0129780
  C       -0.6725800    -1.2264340    -0.0069900
  C       -0.6726490     1.2263940    -0.0069970
  C        1.4084689    -0.0175201    -0.0107576
  C        1.4942690     2.5253230     0.0134310
  C        1.4944180    -2.5252350     0.0134270
  H       -1.2241800    -2.1659650    -0.0138510
  H       -1.2242990     2.1658960    -0.0138630
  H        2.4879510     0.0000680    -0.0240190
  H       -3.1956820     0.8285560    -0.4636260
  H       -3.1956410    -0.8285950    -0.4638730
  H       -3.1827690    -0.0002330     0.9749950
  H        0.8779320     3.3605910    -0.3276200
  H        1.8358100     2.7495590     1.0289260
  H        2.3762850     2.4675780    -0.6290150
  H        2.3762540    -2.4675350    -0.6292720
  H        0.8780380    -3.3605930    -0.3273260
  H        1.8362550    -2.7492930     1.0288600
units angstrom
no_reorient  #important for SAPT in psi4, default
symmetry c1  #important for SAPT in psi4, default
}

set PROPERTIES_ORIGIN ["COM"]
properties('MP2/aug-cc-pvtz', properties = ['dipole'])
--------------------------------------------------------------------------

    Molecular point group: c1
  Charge       = 1
  Multiplicity = 1
  Basis Set: AUG-CC-PVTZ
    Blend: AUG-CC-PVTZ
  Basis Set: (AUG-CC-PVTZ AUX)
    Blend: AUG-CC-PVTZ-JKFIT

    Orbital Energies [Eh]
    ---------------------

    Doubly Occupied:

       1A    -15.888764     2A    -11.459114     3A    -11.397202
       4A    -11.394589     5A    -11.393233     6A    -11.392570
       7A    -11.371786     8A    -11.345429     9A    -11.344161
      10A     -1.502615    11A     -1.308464    12A     -1.204593
      13A     -1.181931    14A     -1.083136    15A     -1.069823
      16A     -0.989481    17A     -0.965675    18A     -0.949722
      19A     -0.906886    20A     -0.855942    21A     -0.822070
      22A     -0.794459    23A     -0.724181    24A     -0.715238
      25A     -0.710416    26A     -0.690242    27A     -0.680435
      28A     -0.656826    29A     -0.642978    30A     -0.634391
      31A     -0.626266    32A     -0.486004    33A     -0.474619

  @DF-RHF Final Energy:  -364.29380919079227

   => Energetics <=

    Nuclear Repulsion Energy =            432.1837535069469141
    One-Electron Energy =               -1337.6286397529561327
    Two-Electron Energy =                 541.1510770552170015
    Total Energy =                       -364.2938091907922171
  Basis Set: (AUG-CC-PVTZ AUX)
    Blend: AUG-CC-PVTZ-RI
    Molecular point group: c1

    Geometry (in Angstrom), charge = 1, multiplicity = 1:

       Center              X                  Y                   Z               Mass
    ------------   -----------------  -----------------  -----------------  -----------------
         N           -2.809442183162     0.001645014785     0.014305823758    14.003074004430
         C           -1.319010183162     0.001689014785    -0.013731176242    12.000000000000
         C            0.732430816838     1.231999014785    -0.011849176242    12.000000000000
         C            0.732496816838    -1.228507985215    -0.011841176242    12.000000000000
         C           -0.668201183162    -1.224707985215    -0.005853176242    12.000000000000
         C           -0.668270183162     1.228120014785    -0.005860176242    12.000000000000
         C            1.412847716838    -0.015794085215    -0.009620776242    12.000000000000
         C            1.498647816838     2.527049014785     0.014567823758    12.000000000000
         C            1.498796816838    -2.523508985215     0.014563823758    12.000000000000
         H           -1.219801183162    -2.164238985215    -0.012714176242     1.007825032230
         H           -1.219920183162     2.167622014785    -0.012726176242     1.007825032230
         H            2.492329816838     0.001794014785    -0.022882176242     1.007825032230
         H           -3.191303183162     0.830282014785    -0.462489176242     1.007825032230
         H           -3.191262183162    -0.826868985215    -0.462736176242     1.007825032230
         H           -3.178390183162     0.001493014785     0.976131823758     1.007825032230
         H            0.882310816838     3.362317014785    -0.326483176242     1.007825032230
         H            1.840188816838     2.751285014785     1.030062823758     1.007825032230
         H            2.380663816838     2.469304014785    -0.627878176242     1.007825032230
         H            2.380632816838    -2.465808985215    -0.628135176242     1.007825032230
         H            0.882416816838    -3.358866985215    -0.326189176242     1.007825032230
         H            1.840633816838    -2.747566985215     1.029996823758     1.007825032230

  Basis Set: AUG-CC-PVTZ
    Blend: AUG-CC-PVTZ
  Basis Set: (AUG-CC-PVTZ AUX)
    Blend: AUG-CC-PVTZ-JKFIT
	 Reference Energy          =    -364.2938091907922740 [Eh]
	 Singles Energy            =      -0.0000000000000000 [Eh]
	 Same-Spin Energy          =      -0.3971286336780367 [Eh]
	 Opposite-Spin Energy      =      -1.3053422249309943 [Eh]
	 Correlation Energy        =      -1.7024708586090309 [Eh]
	 Total Energy              =    -365.9962800494013209 [Eh]

	 ================> DF-SCS-MP2 Energies <==================
	-----------------------------------------------------------
	 SCS Same-Spin Scale       =       0.3333333333333333 [-]
	 SCS Opposite-Spin Scale   =       1.2000000000000000 [-]
	 SCS Same-Spin Energy      =      -0.1323762112260122 [Eh]
	 SCS Opposite-Spin Energy  =      -1.5664106699171931 [Eh]
	 SCS Correlation Energy    =      -1.6987868811432054 [Eh]
	 SCS Total Energy          =    -365.9925960719354521 [Eh]
	-----------------------------------------------------------

  Dipole Moment: [D]
     X:    -8.3665      Y:     0.0340      Z:     0.1702     Total:     8.3683

*** Psi4 exiting successfully. Buy a developer a beer!
