                               Psi4 1.4a3.dev225

  ==> Input File <==

--------------------------------------------------------------------------
#psi4
#
memory 32 gb

molecule  {
1 1
  N       -2.8138210    -0.0000810     0.0131690
  C       -1.3233890    -0.0000370    -0.0148680
  C        0.7280520     1.2302730    -0.0129860
  C        0.7281180    -1.2302340    -0.0129780
  C       -0.6725800    -1.2264340    -0.0069900
  C       -0.6726490     1.2263940    -0.0069970
  C        1.3988940     0.0000390    -0.0107890
  C        1.4942690     2.5253230     0.0134310
  C        1.4944180    -2.5252350     0.0134270
  H       -1.2241800    -2.1659650    -0.0138510
  H       -1.1230332     1.9934326    -0.0126026
  H        2.4879510     0.0000680    -0.0240190
  H       -3.1956820     0.8285560    -0.4636260
  H       -3.1956410    -0.8285950    -0.4638730
  H       -3.1827690    -0.0002330     0.9749950
  H        0.8779320     3.3605910    -0.3276200
  H        1.8358100     2.7495590     1.0289260
  H        2.3762850     2.4675780    -0.6290150
  H        2.3762540    -2.4675350    -0.6292720
  H        0.8780380    -3.3605930    -0.3273260
  H        1.8362550    -2.7492930     1.0288600
units angstrom
no_reorient  #important for SAPT in psi4, default
symmetry c1  #important for SAPT in psi4, default
}

set PROPERTIES_ORIGIN ["COM"]
properties('MP2/aug-cc-pvtz', properties = ['dipole'])
--------------------------------------------------------------------------

    Molecular point group: c1
  Charge       = 1
  Multiplicity = 1
  Basis Set: AUG-CC-PVTZ
    Blend: AUG-CC-PVTZ
  Basis Set: (AUG-CC-PVTZ AUX)
    Blend: AUG-CC-PVTZ-JKFIT

    Orbital Energies [Eh]
    ---------------------

    Doubly Occupied:

       1A    -15.889340     2A    -11.457960     3A    -11.394506
       4A    -11.393319     5A    -11.392812     6A    -11.370635
       7A    -11.370394     8A    -11.344981     9A    -11.344762
      10A     -1.503261    11A     -1.310553    12A     -1.210084
      13A     -1.182951    14A     -1.092047    15A     -1.070733
      16A     -0.993318    17A     -0.966504    18A     -0.950311
      19A     -0.918238    20A     -0.871616    21A     -0.830048
      22A     -0.794508    23A     -0.739902    24A     -0.715925
      25A     -0.710400    26A     -0.690242    27A     -0.679966
      28A     -0.657313    29A     -0.640764    30A     -0.634117
      31A     -0.629200    32A     -0.485748    33A     -0.474741

  @DF-RHF Final Energy:  -364.26040667775470

   => Energetics <=

    Nuclear Repulsion Energy =            433.5066053755876396
    One-Electron Energy =               -1340.1116169432389142
    Two-Electron Energy =                 542.3446048898964591
    Total Energy =                       -364.2604066777547587
  Basis Set: (AUG-CC-PVTZ AUX)
    Blend: AUG-CC-PVTZ-RI
    Molecular point group: c1

    Geometry (in Angstrom), charge = 1, multiplicity = 1:

       Center              X                  Y                   Z               Mass
    ------------   -----------------  -----------------  -----------------  -----------------
         N           -2.809337016003     0.001342826557     0.014298506110    14.003074004430
         C           -1.318905016003     0.001386826557    -0.013738493890    12.000000000000
         C            0.732535983997     1.231696826557    -0.011856493890    12.000000000000
         C            0.732601983997    -1.228810173443    -0.011848493890    12.000000000000
         C           -0.668096016003    -1.225010173443    -0.005860493890    12.000000000000
         C           -0.668165016003     1.227817826557    -0.005867493890    12.000000000000
         C            1.403377983997     0.001462826557    -0.009659493890    12.000000000000
         C            1.498752983997     2.526746826557     0.014560506110    12.000000000000
         C            1.498901983997    -2.523811173443     0.014556506110    12.000000000000
         H           -1.219696016003    -2.164541173443    -0.012721493890     1.007825032230
         H           -1.118549216003     1.994856426557    -0.011473093890     1.007825032230
         H            2.492434983997     0.001491826557    -0.022889493890     1.007825032230
         H           -3.191198016003     0.829979826557    -0.462496493890     1.007825032230
         H           -3.191157016003    -0.827171173443    -0.462743493890     1.007825032230
         H           -3.178285016003     0.001190826557     0.976124506110     1.007825032230
         H            0.882415983997     3.362014826557    -0.326490493890     1.007825032230
         H            1.840293983997     2.750982826557     1.030055506110     1.007825032230
         H            2.380768983997     2.469001826557    -0.627885493890     1.007825032230
         H            2.380737983997    -2.466111173443    -0.628142493890     1.007825032230
         H            0.882521983997    -3.359169173443    -0.326196493890     1.007825032230
         H            1.840738983997    -2.747869173443     1.029989506110     1.007825032230

  Basis Set: AUG-CC-PVTZ
    Blend: AUG-CC-PVTZ
  Basis Set: (AUG-CC-PVTZ AUX)
    Blend: AUG-CC-PVTZ-JKFIT
	 Reference Energy          =    -364.2604066777547018 [Eh]
	 Singles Energy            =      -0.0000000000000000 [Eh]
	 Same-Spin Energy          =      -0.3968213636571093 [Eh]
	 Opposite-Spin Energy      =      -1.3046313680434833 [Eh]
	 Correlation Energy        =      -1.7014527317005927 [Eh]
	 Total Energy              =    -365.9618594094553146 [Eh]

	 ================> DF-SCS-MP2 Energies <==================
	-----------------------------------------------------------
	 SCS Same-Spin Scale       =       0.3333333333333333 [-]
	 SCS Opposite-Spin Scale   =       1.2000000000000000 [-]
	 SCS Same-Spin Energy      =      -0.1322737878857031 [Eh]
	 SCS Opposite-Spin Energy  =      -1.5655576416521799 [Eh]
	 SCS Correlation Energy    =      -1.6978314295378829 [Eh]
	 SCS Total Energy          =    -365.9582381072925727 [Eh]
	-----------------------------------------------------------

  Dipole Moment: [D]
     X:    -8.4000      Y:    -0.0117      Z:     0.1679     Total:     8.4017

*** Psi4 exiting successfully. Buy a developer a beer!
