                               Psi4 1.4a3.dev225

  ==> Input File <==

--------------------------------------------------------------------------
#psi4
#
memory 32 gb

molecule  {
1 1
  N       -2.8138210    -0.0000810     0.0131690
  C       -1.3233890    -0.0000370    -0.0148680
  C        0.7280520     1.2302730    -0.0129860
  C        0.7281180    -1.2302340    -0.0129780
  C       -0.6725800    -1.2264340    -0.0069900
  C       -0.6726490     1.2263940    -0.0069970
  C        1.3988940     0.0000390    -0.0107890
  C        1.4942690     2.5253230     0.0134310
  C        1.4944180    -2.5252350     0.0134270
  H       -1.2241800    -2.1659650    -0.0138510
  H       -1.2344256     2.1831423    -0.0139890
  H        2.4879510     0.0000680    -0.0240190
  H       -3.1956820     0.8285560    -0.4636260
  H       -3.1956410    -0.8285950    -0.4638730
  H       -3.1827690    -0.0002330     0.9749950
  H        0.8779320     3.3605910    -0.3276200
  H        1.8358100     2.7495590     1.0289260
  H        2.3762850     2.4675780    -0.6290150
  H        2.3762540    -2.4675350    -0.6292720
  H        0.8780380    -3.3605930    -0.3273260
  H        1.8362550    -2.7492930     1.0288600
units angstrom
no_reorient  #important for SAPT in psi4, default
symmetry c1  #important for SAPT in psi4, default
}

set PROPERTIES_ORIGIN ["COM"]
properties('MP2/aug-cc-pvtz', properties = ['dipole'])
--------------------------------------------------------------------------

    Molecular point group: c1
  Charge       = 1
  Multiplicity = 1
  Basis Set: AUG-CC-PVTZ
    Blend: AUG-CC-PVTZ
  Basis Set: (AUG-CC-PVTZ AUX)
    Blend: AUG-CC-PVTZ-JKFIT

    Orbital Energies [Eh]
    ---------------------

    Doubly Occupied:

       1A    -15.888646     2A    -11.459070     3A    -11.396307
       4A    -11.394895     5A    -11.394420     6A    -11.393596
       7A    -11.371684     8A    -11.345018     9A    -11.344982
      10A     -1.502485    11A     -1.309230    12A     -1.204582
      13A     -1.182032    14A     -1.082562    15A     -1.070343
      16A     -0.988621    17A     -0.966003    18A     -0.949601
      19A     -0.907275    20A     -0.854860    21A     -0.819218
      22A     -0.794922    23A     -0.722433    24A     -0.714989
      25A     -0.710771    26A     -0.690348    27A     -0.678953
      28A     -0.656798    29A     -0.641171    30A     -0.634700
      31A     -0.628374    32A     -0.486518    33A     -0.475074

  @DF-RHF Final Energy:  -364.29371047374025

   => Energetics <=

    Nuclear Repulsion Energy =            432.2354116638298933
    One-Electron Energy =               -1337.7372858223636740
    Two-Electron Energy =                 541.2081636847935897
    Total Energy =                       -364.2937104737402478
  Basis Set: (AUG-CC-PVTZ AUX)
    Blend: AUG-CC-PVTZ-RI
    Molecular point group: c1

    Geometry (in Angstrom), charge = 1, multiplicity = 1:

       Center              X                  Y                   Z               Mass
    ------------   -----------------  -----------------  -----------------  -----------------
         N           -2.808417549738    -0.000223094184     0.014309949871    14.003074004430
         C           -1.317985549738    -0.000179094184    -0.013727050129    12.000000000000
         C            0.733455450262     1.230130905816    -0.011845050129    12.000000000000
         C            0.733521450262    -1.230376094184    -0.011837050129    12.000000000000
         C           -0.667176549738    -1.226576094184    -0.005849050129    12.000000000000
         C           -0.667245549738     1.226251905816    -0.005856050129    12.000000000000
         C            1.404297450262    -0.000103094184    -0.009648050129    12.000000000000
         C            1.499672450262     2.525180905816     0.014571949871    12.000000000000
         C            1.499821450262    -2.525377094184     0.014567949871    12.000000000000
         H           -1.218776549738    -2.166107094184    -0.012710050129     1.007825032230
         H           -1.229022149738     2.183000205816    -0.012848050129     1.007825032230
         H            2.493354450262    -0.000074094184    -0.022878050129     1.007825032230
         H           -3.190278549738     0.828413905816    -0.462485050129     1.007825032230
         H           -3.190237549738    -0.828737094184    -0.462732050129     1.007825032230
         H           -3.177365549738    -0.000375094184     0.976135949871     1.007825032230
         H            0.883335450262     3.360448905816    -0.326479050129     1.007825032230
         H            1.841213450262     2.749416905816     1.030066949871     1.007825032230
         H            2.381688450262     2.467435905816    -0.627874050129     1.007825032230
         H            2.381657450262    -2.467677094184    -0.628131050129     1.007825032230
         H            0.883441450262    -3.360735094184    -0.326185050129     1.007825032230
         H            1.841658450262    -2.749435094184     1.030000949871     1.007825032230

  Basis Set: AUG-CC-PVTZ
    Blend: AUG-CC-PVTZ
  Basis Set: (AUG-CC-PVTZ AUX)
    Blend: AUG-CC-PVTZ-JKFIT
	 Reference Energy          =    -364.2937104737402478 [Eh]
	 Singles Energy            =      -0.0000000000000000 [Eh]
	 Same-Spin Energy          =      -0.3972120237320629 [Eh]
	 Opposite-Spin Energy      =      -1.3054763410368653 [Eh]
	 Correlation Energy        =      -1.7026883647689282 [Eh]
	 Total Energy              =    -365.9963988385091511 [Eh]

	 ================> DF-SCS-MP2 Energies <==================
	-----------------------------------------------------------
	 SCS Same-Spin Scale       =       0.3333333333333333 [-]
	 SCS Opposite-Spin Scale   =       1.2000000000000000 [-]
	 SCS Same-Spin Energy      =      -0.1324040079106876 [Eh]
	 SCS Opposite-Spin Energy  =      -1.5665716092442383 [Eh]
	 SCS Correlation Energy    =      -1.6989756171549260 [Eh]
	 SCS Total Energy          =    -365.9926860908951767 [Eh]
	-----------------------------------------------------------

  Dipole Moment: [D]
     X:    -8.3616      Y:    -0.0006      Z:     0.1704     Total:     8.3633

*** Psi4 exiting successfully. Buy a developer a beer!
