                               Psi4 1.4a3.dev225

  ==> Input File <==

--------------------------------------------------------------------------
#psi4
#
memory 32 gb

molecule  {
1 1
  N       -2.8138210    -0.0000810     0.0131690
  C       -1.3233890    -0.0000370    -0.0148680
  C        0.7280520     1.2302730    -0.0129860
  C        0.7281180    -1.2302340    -0.0129780
  C       -0.5725813    -1.2267053    -0.0074175
  C       -0.6726490     1.2263940    -0.0069970
  C        1.3988940     0.0000390    -0.0107890
  C        1.4942690     2.5253230     0.0134310
  C        1.4944180    -2.5252350     0.0134270
  H       -1.2241800    -2.1659650    -0.0138510
  H       -1.2242990     2.1658960    -0.0138630
  H        2.4879510     0.0000680    -0.0240190
  H       -3.1956820     0.8285560    -0.4636260
  H       -3.1956410    -0.8285950    -0.4638730
  H       -3.1827690    -0.0002330     0.9749950
  H        0.8779320     3.3605910    -0.3276200
  H        1.8358100     2.7495590     1.0289260
  H        2.3762850     2.4675780    -0.6290150
  H        2.3762540    -2.4675350    -0.6292720
  H        0.8780380    -3.3605930    -0.3273260
  H        1.8362550    -2.7492930     1.0288600
units angstrom
no_reorient  #important for SAPT in psi4, default
symmetry c1  #important for SAPT in psi4, default
}

set PROPERTIES_ORIGIN ["COM"]
properties('MP2/aug-cc-pvtz', properties = ['dipole'])
--------------------------------------------------------------------------

    Molecular point group: c1
  Charge       = 1
  Multiplicity = 1
  Basis Set: AUG-CC-PVTZ
    Blend: AUG-CC-PVTZ
  Basis Set: (AUG-CC-PVTZ AUX)
    Blend: AUG-CC-PVTZ-JKFIT

    Orbital Energies [Eh]
    ---------------------

    Doubly Occupied:

       1A    -15.892502     2A    -11.459876     3A    -11.399191
       4A    -11.392007     5A    -11.391036     6A    -11.379364
       7A    -11.373866     8A    -11.344195     9A    -11.343150
      10A     -1.503344    11A     -1.315859    12A     -1.214117
      13A     -1.175761    14A     -1.078210    15A     -1.069931
      16A     -0.996675    17A     -0.968297    18A     -0.951529
      19A     -0.906628    20A     -0.854710    21A     -0.821691
      22A     -0.796064    23A     -0.724275    24A     -0.712616
      25A     -0.704980    26A     -0.690246    27A     -0.678596
      28A     -0.653384    29A     -0.646165    30A     -0.633916
      31A     -0.620730    32A     -0.491626    33A     -0.476545

  @DF-RHF Final Energy:  -364.28086992970009

   => Energetics <=

    Nuclear Repulsion Energy =            433.2011960688486738
    One-Electron Energy =               -1339.6419678209747417
    Two-Electron Energy =                 542.1599018224259225
    Total Energy =                       -364.2808699297000885
  Basis Set: (AUG-CC-PVTZ AUX)
    Blend: AUG-CC-PVTZ-RI
    Molecular point group: c1

    Geometry (in Angstrom), charge = 1, multiplicity = 1:

       Center              X                  Y                   Z               Mass
    ------------   -----------------  -----------------  -----------------  -----------------
         N           -2.818329263332    -0.000054074002     0.014350925612    14.003074004430
         C           -1.327897263332    -0.000010074002    -0.013686074388    12.000000000000
         C            0.723543736668     1.230299925998    -0.011804074388    12.000000000000
         C            0.723609736668    -1.230207074002    -0.011796074388    12.000000000000
         C           -0.577089563332    -1.226678374002    -0.006235574388    12.000000000000
         C           -0.677157263332     1.226420925998    -0.005815074388    12.000000000000
         C            1.394385736668     0.000065925998    -0.009607074388    12.000000000000
         C            1.489760736668     2.525349925998     0.014612925612    12.000000000000
         C            1.489909736668    -2.525208074002     0.014608925612    12.000000000000
         H           -1.228688263332    -2.165938074002    -0.012669074388     1.007825032230
         H           -1.228807263332     2.165922925998    -0.012681074388     1.007825032230
         H            2.483442736668     0.000094925998    -0.022837074388     1.007825032230
         H           -3.200190263332     0.828582925998    -0.462444074388     1.007825032230
         H           -3.200149263332    -0.828568074002    -0.462691074388     1.007825032230
         H           -3.187277263332    -0.000206074002     0.976176925612     1.007825032230
         H            0.873423736668     3.360617925998    -0.326438074388     1.007825032230
         H            1.831301736668     2.749585925998     1.030107925612     1.007825032230
         H            2.371776736668     2.467604925998    -0.627833074388     1.007825032230
         H            2.371745736668    -2.467508074002    -0.628090074388     1.007825032230
         H            0.873529736668    -3.360566074002    -0.326144074388     1.007825032230
         H            1.831746736668    -2.749266074002     1.030041925612     1.007825032230

  Basis Set: AUG-CC-PVTZ
    Blend: AUG-CC-PVTZ
  Basis Set: (AUG-CC-PVTZ AUX)
    Blend: AUG-CC-PVTZ-JKFIT
	 Reference Energy          =    -364.2808699297000885 [Eh]
	 Singles Energy            =      -0.0000000000000000 [Eh]
	 Same-Spin Energy          =      -0.3970757404746412 [Eh]
	 Opposite-Spin Energy      =      -1.3058511451319808 [Eh]
	 Correlation Energy        =      -1.7029268856066220 [Eh]
	 Total Energy              =    -365.9837968153067322 [Eh]

	 ================> DF-SCS-MP2 Energies <==================
	-----------------------------------------------------------
	 SCS Same-Spin Scale       =       0.3333333333333333 [-]
	 SCS Opposite-Spin Scale   =       1.2000000000000000 [-]
	 SCS Same-Spin Energy      =      -0.1323585801582137 [Eh]
	 SCS Opposite-Spin Energy  =      -1.5670213741583769 [Eh]
	 SCS Correlation Energy    =      -1.6993799543165906 [Eh]
	 SCS Total Energy          =    -365.9802498840167004 [Eh]
	-----------------------------------------------------------

  Dipole Moment: [D]
     X:    -8.4992      Y:     0.0789      Z:     0.1694     Total:     8.5013

*** Psi4 exiting successfully. Buy a developer a beer!
