                               Psi4 1.4a3.dev225

  ==> Input File <==

--------------------------------------------------------------------------
#psi4
#
memory 32 gb

molecule  {
1 1
  N       -2.8138210    -0.0000810     0.0131690
  C       -1.3233185    -0.0000447     0.0371644
  C        0.7280520     1.2302730    -0.0129860
  C        0.7281180    -1.2302340    -0.0129780
  C       -0.6725800    -1.2264340    -0.0069900
  C       -0.6726490     1.2263940    -0.0069970
  C        1.3988940     0.0000390    -0.0107890
  C        1.4942690     2.5253230     0.0134310
  C        1.4944180    -2.5252350     0.0134270
  H       -1.2241800    -2.1659650    -0.0138510
  H       -1.2242990     2.1658960    -0.0138630
  H        2.4879510     0.0000680    -0.0240190
  H       -3.1956820     0.8285560    -0.4636260
  H       -3.1956410    -0.8285950    -0.4638730
  H       -3.1827690    -0.0002330     0.9749950
  H        0.8779320     3.3605910    -0.3276200
  H        1.8358100     2.7495590     1.0289260
  H        2.3762850     2.4675780    -0.6290150
  H        2.3762540    -2.4675350    -0.6292720
  H        0.8780380    -3.3605930    -0.3273260
  H        1.8362550    -2.7492930     1.0288600
units angstrom
no_reorient  #important for SAPT in psi4, default
symmetry c1  #important for SAPT in psi4, default
}

set PROPERTIES_ORIGIN ["COM"]
properties('MP2/aug-cc-pvtz', properties = ['dipole'])
--------------------------------------------------------------------------

    Molecular point group: c1
  Charge       = 1
  Multiplicity = 1
  Basis Set: AUG-CC-PVTZ
    Blend: AUG-CC-PVTZ
  Basis Set: (AUG-CC-PVTZ AUX)
    Blend: AUG-CC-PVTZ-JKFIT

    Orbital Energies [Eh]
    ---------------------

    Doubly Occupied:

       1A    -15.888671     2A    -11.459106     3A    -11.394821
       4A    -11.394807     5A    -11.393560     6A    -11.393554
       7A    -11.371497     8A    -11.344968     9A    -11.344967
      10A     -1.502608    11A     -1.309144    12A     -1.204784
      13A     -1.181966    14A     -1.082936    15A     -1.070342
      16A     -0.989039    17A     -0.965911    18A     -0.949763
      19A     -0.907823    20A     -0.855908    21A     -0.820364
      22A     -0.794796    23A     -0.724097    24A     -0.715463
      25A     -0.710591    26A     -0.690275    27A     -0.679066
      28A     -0.656810    29A     -0.640948    30A     -0.634533
      31A     -0.628480    32A     -0.486331    33A     -0.474883

  @DF-RHF Final Energy:  -364.29375193658785

   => Energetics <=

    Nuclear Repulsion Energy =            432.3205653078389901
    One-Electron Energy =               -1337.9030104603316431
    Two-Electron Energy =                 541.2886932159048001
    Total Energy =                       -364.2937519365879098
  Basis Set: (AUG-CC-PVTZ AUX)
    Blend: AUG-CC-PVTZ-RI
    Molecular point group: c1

    Geometry (in Angstrom), charge = 1, multiplicity = 1:

       Center              X                  Y                   Z               Mass
    ------------   -----------------  -----------------  -----------------  -----------------
         N           -2.808508066649    -0.000079981277     0.009195033723    14.003074004430
         C           -1.318005566649    -0.000043681277     0.033190433723    12.000000000000
         C            0.733364933351     1.230274018723    -0.016959966277    12.000000000000
         C            0.733430933351    -1.230232981277    -0.016951966277    12.000000000000
         C           -0.667267066649    -1.226432981277    -0.010963966277    12.000000000000
         C           -0.667336066649     1.226395018723    -0.010970966277    12.000000000000
         C            1.404206933351     0.000040018723    -0.014762966277    12.000000000000
         C            1.499581933351     2.525324018723     0.009457033723    12.000000000000
         C            1.499730933351    -2.525233981277     0.009453033723    12.000000000000
         H           -1.218867066649    -2.165963981277    -0.017824966277     1.007825032230
         H           -1.218986066649     2.165897018723    -0.017836966277     1.007825032230
         H            2.493263933351     0.000069018723    -0.027992966277     1.007825032230
         H           -3.190369066649     0.828557018723    -0.467599966277     1.007825032230
         H           -3.190328066649    -0.828593981277    -0.467846966277     1.007825032230
         H           -3.177456066649    -0.000231981277     0.971021033723     1.007825032230
         H            0.883244933351     3.360592018723    -0.331593966277     1.007825032230
         H            1.841122933351     2.749560018723     1.024952033723     1.007825032230
         H            2.381597933351     2.467579018723    -0.632988966277     1.007825032230
         H            2.381566933351    -2.467533981277    -0.633245966277     1.007825032230
         H            0.883350933351    -3.360591981277    -0.331299966277     1.007825032230
         H            1.841567933351    -2.749291981277     1.024886033723     1.007825032230

  Basis Set: AUG-CC-PVTZ
    Blend: AUG-CC-PVTZ
  Basis Set: (AUG-CC-PVTZ AUX)
    Blend: AUG-CC-PVTZ-JKFIT
	 Reference Energy          =    -364.2937519365878529 [Eh]
	 Singles Energy            =      -0.0000000000000000 [Eh]
	 Same-Spin Energy          =      -0.3971779010844497 [Eh]
	 Opposite-Spin Energy      =      -1.3053926686335080 [Eh]
	 Correlation Energy        =      -1.7025705697179578 [Eh]
	 Total Energy              =    -365.9963225063058303 [Eh]

	 ================> DF-SCS-MP2 Energies <==================
	-----------------------------------------------------------
	 SCS Same-Spin Scale       =       0.3333333333333333 [-]
	 SCS Opposite-Spin Scale   =       1.2000000000000000 [-]
	 SCS Same-Spin Energy      =      -0.1323926336948166 [Eh]
	 SCS Opposite-Spin Energy  =      -1.5664712023602096 [Eh]
	 SCS Correlation Energy    =      -1.6988638360550261 [Eh]
	 SCS Total Energy          =    -365.9926157726428642 [Eh]
	-----------------------------------------------------------

  Dipole Moment: [D]
     X:    -8.3754      Y:    -0.0002      Z:     0.1249     Total:     8.3764

*** Psi4 exiting successfully. Buy a developer a beer!
