                               Psi4 1.4a3.dev225

  ==> Input File <==

--------------------------------------------------------------------------
#psi4
#
memory 32 gb

molecule  {
1 1
  N       -2.8138210    -0.0000810     0.0131690
  C       -1.3233890    -0.0000370    -0.0148680
  C        0.7280520     1.2302730    -0.0129860
  C        0.7281180    -1.2302340    -0.0129780
  C       -0.6725800    -1.2264340    -0.0069900
  C       -0.6726490     1.2263940    -0.0069970
  C        1.3988940     0.0000390    -0.0107890
  C        1.4942690     2.5253230     0.0134310
  C        1.4944180    -2.5252350     0.0134270
  H       -1.2241800    -2.1659650    -0.0138510
  H       -1.2242990     2.1658960    -0.0138630
  H        2.4879510     0.0000680    -0.0240190
  H       -3.1956820     0.8285560    -0.4636260
  H       -3.1956410    -0.8285950    -0.4638730
  H       -3.1827690    -0.0002330     0.9749950
  H        0.8779320     3.3605910    -0.3276200
  H        1.8358100     2.7495590     1.0289260
  H        2.3762850     2.4675780    -0.6290150
  H        2.3923943    -2.4664789    -0.6410353
  H        0.8780380    -3.3605930    -0.3273260
  H        1.8362550    -2.7492930     1.0288600
units angstrom
no_reorient  #important for SAPT in psi4, default
symmetry c1  #important for SAPT in psi4, default
}

set PROPERTIES_ORIGIN ["COM"]
properties('MP2/aug-cc-pvtz', properties = ['dipole'])
--------------------------------------------------------------------------

    Molecular point group: c1
  Charge       = 1
  Multiplicity = 1
  Basis Set: AUG-CC-PVTZ
    Blend: AUG-CC-PVTZ
  Basis Set: (AUG-CC-PVTZ AUX)
    Blend: AUG-CC-PVTZ-JKFIT

    Orbital Energies [Eh]
    ---------------------

    Doubly Occupied:

       1A    -15.888745     2A    -11.458960     3A    -11.394946
       4A    -11.394846     5A    -11.393606     6A    -11.393538
       7A    -11.371553     8A    -11.347248     9A    -11.344986
      10A     -1.502585    11A     -1.309273    12A     -1.204746
      13A     -1.181958    14A     -1.082601    15A     -1.069693
      16A     -0.988765    17A     -0.965792    18A     -0.949699
      19A     -0.907710    20A     -0.855799    21A     -0.820460
      22A     -0.794698    23A     -0.724159    24A     -0.715346
      25A     -0.710330    26A     -0.689675    27A     -0.678328
      28A     -0.655642    29A     -0.640512    30A     -0.634416
      31A     -0.628535    32A     -0.486380    33A     -0.475009

  @DF-RHF Final Energy:  -364.29383731739915

   => Energetics <=

    Nuclear Repulsion Energy =            432.2527109636641853
    One-Electron Energy =               -1337.7720147522747993
    Two-Electron Energy =                 541.2254664712114618
    Total Energy =                       -364.2938373173991522
  Basis Set: (AUG-CC-PVTZ AUX)
    Blend: AUG-CC-PVTZ-RI
    Molecular point group: c1

    Geometry (in Angstrom), charge = 1, multiplicity = 1:

       Center              X                  Y                   Z               Mass
    ------------   -----------------  -----------------  -----------------  -----------------
         N           -2.808634364605    -0.000089455419     0.014406007634    14.003074004430
         C           -1.318202364605    -0.000045455419    -0.013630992366    12.000000000000
         C            0.733238635395     1.230264544581    -0.011748992366    12.000000000000
         C            0.733304635395    -1.230242455419    -0.011740992366    12.000000000000
         C           -0.667393364605    -1.226442455419    -0.005752992366    12.000000000000
         C           -0.667462364605     1.226385544581    -0.005759992366    12.000000000000
         C            1.404080635395     0.000030544581    -0.009551992366    12.000000000000
         C            1.499455635395     2.525314544581     0.014668007634    12.000000000000
         C            1.499604635395    -2.525243455419     0.014664007634    12.000000000000
         H           -1.218993364605    -2.165973455419    -0.012613992366     1.007825032230
         H           -1.219112364605     2.165887544581    -0.012625992366     1.007825032230
         H            2.493137635395     0.000059544581    -0.022781992366     1.007825032230
         H           -3.190495364605     0.828547544581    -0.462388992366     1.007825032230
         H           -3.190454364605    -0.828603455419    -0.462635992366     1.007825032230
         H           -3.177582364605    -0.000241455419     0.976232007634     1.007825032230
         H            0.883118635395     3.360582544581    -0.326382992366     1.007825032230
         H            1.840996635395     2.749550544581     1.030163007634     1.007825032230
         H            2.381471635395     2.467569544581    -0.627777992366     1.007825032230
         H            2.397580935395    -2.466487355419    -0.639798292366     1.007825032230
         H            0.883224635395    -3.360601455419    -0.326088992366     1.007825032230
         H            1.841441635395    -2.749301455419     1.030097007634     1.007825032230

  Basis Set: AUG-CC-PVTZ
    Blend: AUG-CC-PVTZ
  Basis Set: (AUG-CC-PVTZ AUX)
    Blend: AUG-CC-PVTZ-JKFIT
	 Reference Energy          =    -364.2938373173991522 [Eh]
	 Singles Energy            =      -0.0000000000000000 [Eh]
	 Same-Spin Energy          =      -0.3971648852171077 [Eh]
	 Opposite-Spin Energy      =      -1.3054455413119490 [Eh]
	 Correlation Energy        =      -1.7026104265290567 [Eh]
	 Total Energy              =    -365.9964477439282291 [Eh]

	 ================> DF-SCS-MP2 Energies <==================
	-----------------------------------------------------------
	 SCS Same-Spin Scale       =       0.3333333333333333 [-]
	 SCS Opposite-Spin Scale   =       1.2000000000000000 [-]
	 SCS Same-Spin Energy      =      -0.1323882950723692 [Eh]
	 SCS Opposite-Spin Energy  =      -1.5665346495743389 [Eh]
	 SCS Correlation Energy    =      -1.6989229446467080 [Eh]
	 SCS Total Energy          =    -365.9927602620458629 [Eh]
	-----------------------------------------------------------

  Dipole Moment: [D]
     X:    -8.3703      Y:     0.0012      Z:     0.1721     Total:     8.3720

*** Psi4 exiting successfully. Buy a developer a beer!
