                               Psi4 1.4a3.dev225

  ==> Input File <==

--------------------------------------------------------------------------
#psi4
#
memory 32 gb

molecule  {
1 1
  N       -2.8138210    -0.0000810     0.0131690
  C       -1.3233890    -0.0000370    -0.0148680
  C        0.7280520     1.2302730    -0.0129860
  C        0.7281180    -1.2302340    -0.0129780
  C       -0.6725800    -1.2264340    -0.0069900
  C       -0.6726490     1.2263940    -0.0069970
  C        1.3988940     0.0000390    -0.0107890
  C        1.4942690     2.5253230     0.0134310
  C        1.4944180    -2.5252350     0.0134270
  H       -1.2241800    -2.1659650    -0.0138510
  H       -1.2242990     2.1658960    -0.0138630
  H        2.4879510     0.0000680    -0.0240190
  H       -3.1214954     0.6675714    -0.3709960
  H       -3.1956410    -0.8285950    -0.4638730
  H       -3.1827690    -0.0002330     0.9749950
  H        0.8779320     3.3605910    -0.3276200
  H        1.8358100     2.7495590     1.0289260
  H        2.3762850     2.4675780    -0.6290150
  H        2.3762540    -2.4675350    -0.6292720
  H        0.8780380    -3.3605930    -0.3273260
  H        1.8362550    -2.7492930     1.0288600
units angstrom
no_reorient  #important for SAPT in psi4, default
symmetry c1  #important for SAPT in psi4, default
}

set PROPERTIES_ORIGIN ["COM"]
properties('MP2/aug-cc-pvtz', properties = ['dipole'])
--------------------------------------------------------------------------

    Molecular point group: c1
  Charge       = 1
  Multiplicity = 1
  Basis Set: AUG-CC-PVTZ
    Blend: AUG-CC-PVTZ
  Basis Set: (AUG-CC-PVTZ AUX)
    Blend: AUG-CC-PVTZ-JKFIT

    Orbital Energies [Eh]
    ---------------------

    Doubly Occupied:

       1A    -15.873804     2A    -11.460701     3A    -11.396077
       4A    -11.395912     5A    -11.394891     6A    -11.394707
       7A    -11.372821     8A    -11.345737     9A    -11.345539
      10A     -1.545322    11A     -1.313395    12A     -1.206073
      13A     -1.188608    14A     -1.087067    15A     -1.071448
      16A     -1.017146    17A     -0.988450    18A     -0.960864
      19A     -0.918726    20A     -0.859528    21A     -0.822646
      22A     -0.798451    23A     -0.725211    24A     -0.716391
      25A     -0.711694    26A     -0.691002    27A     -0.679868
      28A     -0.657869    29A     -0.642230    30A     -0.636311
      31A     -0.629379    32A     -0.488041    33A     -0.476009

  @DF-RHF Final Energy:  -364.25443166379148

   => Energetics <=

    Nuclear Repulsion Energy =            433.5499956763342766
    One-Electron Energy =               -1339.9850217203518241
    Two-Electron Energy =                 542.1805943802261254
    Total Energy =                       -364.2544316637914790
  Basis Set: (AUG-CC-PVTZ AUX)
    Blend: AUG-CC-PVTZ-RI
    Molecular point group: c1

    Geometry (in Angstrom), charge = 1, multiplicity = 1:

       Center              X                  Y                   Z               Mass
    ------------   -----------------  -----------------  -----------------  -----------------
         N           -2.809113496168     0.001248077100     0.013544314038    14.003074004430
         C           -1.318681496168     0.001292077100    -0.014492685962    12.000000000000
         C            0.732759503832     1.231602077100    -0.012610685962    12.000000000000
         C            0.732825503832    -1.228904922900    -0.012602685962    12.000000000000
         C           -0.667872496168    -1.225104922900    -0.006614685962    12.000000000000
         C           -0.667941496168     1.227723077100    -0.006621685962    12.000000000000
         C            1.403601503832     0.001368077100    -0.010413685962    12.000000000000
         C            1.498976503832     2.526652077100     0.013806314038    12.000000000000
         C            1.499125503832    -2.523905922900     0.013802314038    12.000000000000
         H           -1.219472496168    -2.164635922900    -0.013475685962     1.007825032230
         H           -1.219591496168     2.167225077100    -0.013487685962     1.007825032230
         H            2.492658503832     0.001397077100    -0.023643685962     1.007825032230
         H           -3.116787896168     0.668900477100    -0.370620685962     1.007825032230
         H           -3.190933496168    -0.827265922900    -0.463497685962     1.007825032230
         H           -3.178061496168     0.001096077100     0.975370314038     1.007825032230
         H            0.882639503832     3.361920077100    -0.327244685962     1.007825032230
         H            1.840517503832     2.750888077100     1.029301314038     1.007825032230
         H            2.380992503832     2.468907077100    -0.628639685962     1.007825032230
         H            2.380961503832    -2.466205922900    -0.628896685962     1.007825032230
         H            0.882745503832    -3.359263922900    -0.326950685962     1.007825032230
         H            1.840962503832    -2.747963922900     1.029235314038     1.007825032230

  Basis Set: AUG-CC-PVTZ
    Blend: AUG-CC-PVTZ
  Basis Set: (AUG-CC-PVTZ AUX)
    Blend: AUG-CC-PVTZ-JKFIT
	 Reference Energy          =    -364.2544316637914790 [Eh]
	 Singles Energy            =      -0.0000000000000000 [Eh]
	 Same-Spin Energy          =      -0.3961649518858220 [Eh]
	 Opposite-Spin Energy      =      -1.3025361434909248 [Eh]
	 Correlation Energy        =      -1.6987010953767467 [Eh]
	 Total Energy              =    -365.9531327591682270 [Eh]

	 ================> DF-SCS-MP2 Energies <==================
	-----------------------------------------------------------
	 SCS Same-Spin Scale       =       0.3333333333333333 [-]
	 SCS Opposite-Spin Scale   =       1.2000000000000000 [-]
	 SCS Same-Spin Energy      =      -0.1320549839619407 [Eh]
	 SCS Opposite-Spin Energy  =      -1.5630433721891097 [Eh]
	 SCS Correlation Energy    =      -1.6950983561510504 [Eh]
	 SCS Total Energy          =    -365.9495300199425287 [Eh]
	-----------------------------------------------------------

  Dipole Moment: [D]
     X:    -8.2276      Y:    -0.1922      Z:     0.2962     Total:     8.2351

*** Psi4 exiting successfully. Buy a developer a beer!
