                               Psi4 1.4a3.dev225

  ==> Input File <==

--------------------------------------------------------------------------
#psi4
#
memory 32 gb

molecule  {
1 1
  N       -2.8138210    -0.0000810     0.0131690
  C       -1.3233890    -0.0000370    -0.0148680
  C        0.7280520     1.2302730    -0.0129860
  C        0.7281180    -1.2302340    -0.0129780
  C       -0.6301789    -1.2029723    -0.0064770
  C       -0.6726490     1.2263940    -0.0069970
  C        1.3988940     0.0000390    -0.0107890
  C        1.4942690     2.5253230     0.0134310
  C        1.4944180    -2.5252350     0.0134270
  H       -1.2241800    -2.1659650    -0.0138510
  H       -1.2242990     2.1658960    -0.0138630
  H        2.4879510     0.0000680    -0.0240190
  H       -3.1956820     0.8285560    -0.4636260
  H       -3.1956410    -0.8285950    -0.4638730
  H       -3.1827690    -0.0002330     0.9749950
  H        0.8779320     3.3605910    -0.3276200
  H        1.8358100     2.7495590     1.0289260
  H        2.3762850     2.4675780    -0.6290150
  H        2.3762540    -2.4675350    -0.6292720
  H        0.8780380    -3.3605930    -0.3273260
  H        1.8362550    -2.7492930     1.0288600
units angstrom
no_reorient  #important for SAPT in psi4, default
symmetry c1  #important for SAPT in psi4, default
}

set PROPERTIES_ORIGIN ["COM"]
properties('MP2/aug-cc-pvtz', properties = ['dipole'])
--------------------------------------------------------------------------

    Molecular point group: c1
  Charge       = 1
  Multiplicity = 1
  Basis Set: AUG-CC-PVTZ
    Blend: AUG-CC-PVTZ
  Basis Set: (AUG-CC-PVTZ AUX)
    Blend: AUG-CC-PVTZ-JKFIT

    Orbital Energies [Eh]
    ---------------------

    Doubly Occupied:

       1A    -15.890760     2A    -11.457621     3A    -11.395388
       4A    -11.393127     5A    -11.392475     6A    -11.388332
       7A    -11.372352     8A    -11.344878     9A    -11.344401
      10A     -1.503383    11A     -1.313547    12A     -1.207694
      13A     -1.181651    14A     -1.081371    15A     -1.070070
      16A     -0.992019    17A     -0.967736    18A     -0.950876
      19A     -0.907216    20A     -0.856535    21A     -0.819292
      22A     -0.796393    23A     -0.721529    24A     -0.711856
      25A     -0.709697    26A     -0.690269    27A     -0.678333
      28A     -0.656877    29A     -0.643552    30A     -0.636136
      31A     -0.625399    32A     -0.485933    33A     -0.478450

  @DF-RHF Final Energy:  -364.29162968007228

   => Energetics <=

    Nuclear Repulsion Energy =            433.0302546939732338
    One-Electron Energy =               -1339.3134752887351624
    Two-Electron Energy =                 541.9915909146897093
    Total Energy =                       -364.2916296800722193
  Basis Set: (AUG-CC-PVTZ AUX)
    Blend: AUG-CC-PVTZ-RI
    Molecular point group: c1

    Geometry (in Angstrom), charge = 1, multiplicity = 1:

       Center              X                  Y                   Z               Mass
    ------------   -----------------  -----------------  -----------------  -----------------
         N           -2.812668425270    -0.002386613374     0.014258490889    14.003074004430
         C           -1.322236425270    -0.002342613374    -0.013778509111    12.000000000000
         C            0.729204574730     1.227967386626    -0.011896509111    12.000000000000
         C            0.729270574730    -1.232539613374    -0.011888509111    12.000000000000
         C           -0.629026325270    -1.205277913374    -0.005387509111    12.000000000000
         C           -0.671496425270     1.224088386626    -0.005907509111    12.000000000000
         C            1.400046574730    -0.002266613374    -0.009699509111    12.000000000000
         C            1.495421574730     2.523017386626     0.014520490889    12.000000000000
         C            1.495570574730    -2.527540613374     0.014516490889    12.000000000000
         H           -1.223027425270    -2.168270613374    -0.012761509111     1.007825032230
         H           -1.223146425270     2.163590386626    -0.012773509111     1.007825032230
         H            2.489103574730    -0.002237613374    -0.022929509111     1.007825032230
         H           -3.194529425270     0.826250386626    -0.462536509111     1.007825032230
         H           -3.194488425270    -0.830900613374    -0.462783509111     1.007825032230
         H           -3.181616425270    -0.002538613374     0.976084490889     1.007825032230
         H            0.879084574730     3.358285386626    -0.326530509111     1.007825032230
         H            1.836962574730     2.747253386626     1.030015490889     1.007825032230
         H            2.377437574730     2.465272386626    -0.627925509111     1.007825032230
         H            2.377406574730    -2.469840613374    -0.628182509111     1.007825032230
         H            0.879190574730    -3.362898613374    -0.326236509111     1.007825032230
         H            1.837407574730    -2.751598613374     1.029949490889     1.007825032230

  Basis Set: AUG-CC-PVTZ
    Blend: AUG-CC-PVTZ
  Basis Set: (AUG-CC-PVTZ AUX)
    Blend: AUG-CC-PVTZ-JKFIT
	 Reference Energy          =    -364.2916296800722762 [Eh]
	 Singles Energy            =      -0.0000000000000000 [Eh]
	 Same-Spin Energy          =      -0.3972489310923014 [Eh]
	 Opposite-Spin Energy      =      -1.3053850524057076 [Eh]
	 Correlation Energy        =      -1.7026339834980089 [Eh]
	 Total Energy              =    -365.9942636635702797 [Eh]

	 ================> DF-SCS-MP2 Energies <==================
	-----------------------------------------------------------
	 SCS Same-Spin Scale       =       0.3333333333333333 [-]
	 SCS Opposite-Spin Scale   =       1.2000000000000000 [-]
	 SCS Same-Spin Energy      =      -0.1324163103641005 [Eh]
	 SCS Opposite-Spin Energy  =      -1.5664620628868491 [Eh]
	 SCS Correlation Energy    =      -1.6988783732509496 [Eh]
	 SCS Total Energy          =    -365.9905080533232535 [Eh]
	-----------------------------------------------------------

  Dipole Moment: [D]
     X:    -8.4204      Y:     0.0069      Z:     0.1691     Total:     8.4221

*** Psi4 exiting successfully. Buy a developer a beer!
