                               Psi4 1.4a3.dev225

  ==> Input File <==

--------------------------------------------------------------------------
#psi4
#
memory 32 gb

molecule  {
1 1
  N       -2.8138210    -0.0000810     0.0131690
  C       -1.3233890    -0.0000370    -0.0148680
  C        0.7280520     1.2302730    -0.0129860
  C        0.7281180    -1.2302340    -0.0129780
  C       -0.6725800    -1.2264340    -0.0069900
  C       -0.6726490     1.2263940    -0.0069970
  C        1.4467684    -0.0877563    -0.0106322
  C        1.4942690     2.5253230     0.0134310
  C        1.4944180    -2.5252350     0.0134270
  H       -1.2241800    -2.1659650    -0.0138510
  H       -1.2242990     2.1658960    -0.0138630
  H        2.4879510     0.0000680    -0.0240190
  H       -3.1956820     0.8285560    -0.4636260
  H       -3.1956410    -0.8285950    -0.4638730
  H       -3.1827690    -0.0002330     0.9749950
  H        0.8779320     3.3605910    -0.3276200
  H        1.8358100     2.7495590     1.0289260
  H        2.3762850     2.4675780    -0.6290150
  H        2.3762540    -2.4675350    -0.6292720
  H        0.8780380    -3.3605930    -0.3273260
  H        1.8362550    -2.7492930     1.0288600
units angstrom
no_reorient  #important for SAPT in psi4, default
symmetry c1  #important for SAPT in psi4, default
}

set PROPERTIES_ORIGIN ["COM"]
properties('MP2/aug-cc-pvtz', properties = ['dipole'])
--------------------------------------------------------------------------

    Molecular point group: c1
  Charge       = 1
  Multiplicity = 1
  Basis Set: AUG-CC-PVTZ
    Blend: AUG-CC-PVTZ
  Basis Set: (AUG-CC-PVTZ AUX)
    Blend: AUG-CC-PVTZ-JKFIT

    Orbital Energies [Eh]
    ---------------------

    Doubly Occupied:

       1A    -15.889086     2A    -11.460180     3A    -11.406181
       4A    -11.396452     5A    -11.391154     6A    -11.386071
       7A    -11.372355     8A    -11.347074     9A    -11.341017
      10A     -1.502982    11A     -1.306193    12A     -1.205523
      13A     -1.180675    14A     -1.083982    15A     -1.066970
      16A     -0.992250    17A     -0.964301    18A     -0.950043
      19A     -0.903319    20A     -0.855878    21A     -0.828712
      22A     -0.793301    23A     -0.724589    24A     -0.714733
      25A     -0.709469    26A     -0.690136    27A     -0.686940
      28A     -0.656701    29A     -0.649954    30A     -0.633402
      31A     -0.611670    32A     -0.489570    33A     -0.469577

  @DF-RHF Final Energy:  -364.28265880644119

   => Energetics <=

    Nuclear Repulsion Energy =            431.6255270962523696
    One-Electron Energy =               -1336.4954954519612329
    Two-Electron Energy =                 540.5873095492676157
    Total Energy =                       -364.2826588064411908
  Basis Set: (AUG-CC-PVTZ AUX)
    Blend: AUG-CC-PVTZ-RI
    Molecular point group: c1

    Geometry (in Angstrom), charge = 1, multiplicity = 1:

       Center              X                  Y                   Z               Mass
    ------------   -----------------  -----------------  -----------------  -----------------
         N           -2.813206355061     0.008548006478     0.014293499128    14.003074004430
         C           -1.322774355061     0.008592006478    -0.013743500872    12.000000000000
         C            0.728666644939     1.238902006478    -0.011861500872    12.000000000000
         C            0.728732644939    -1.221604993522    -0.011853500872    12.000000000000
         C           -0.671965355061    -1.217804993522    -0.005865500872    12.000000000000
         C           -0.672034355061     1.235023006478    -0.005872500872    12.000000000000
         C            1.447383044939    -0.079127293522    -0.009507700872    12.000000000000
         C            1.494883644939     2.533952006478     0.014555499128    12.000000000000
         C            1.495032644939    -2.516605993522     0.014551499128    12.000000000000
         H           -1.223565355061    -2.157335993522    -0.012726500872     1.007825032230
         H           -1.223684355061     2.174525006478    -0.012738500872     1.007825032230
         H            2.488565644939     0.008697006478    -0.022894500872     1.007825032230
         H           -3.195067355061     0.837185006478    -0.462501500872     1.007825032230
         H           -3.195026355061    -0.819965993522    -0.462748500872     1.007825032230
         H           -3.182154355061     0.008396006478     0.976119499128     1.007825032230
         H            0.878546644939     3.369220006478    -0.326495500872     1.007825032230
         H            1.836424644939     2.758188006478     1.030050499128     1.007825032230
         H            2.376899644939     2.476207006478    -0.627890500872     1.007825032230
         H            2.376868644939    -2.458905993522    -0.628147500872     1.007825032230
         H            0.878652644939    -3.351963993522    -0.326201500872     1.007825032230
         H            1.836869644939    -2.740663993522     1.029984499128     1.007825032230

  Basis Set: AUG-CC-PVTZ
    Blend: AUG-CC-PVTZ
  Basis Set: (AUG-CC-PVTZ AUX)
    Blend: AUG-CC-PVTZ-JKFIT
	 Reference Energy          =    -364.2826588064411908 [Eh]
	 Singles Energy            =      -0.0000000000000000 [Eh]
	 Same-Spin Energy          =      -0.3969243858965311 [Eh]
	 Opposite-Spin Energy      =      -1.3058275325168567 [Eh]
	 Correlation Energy        =      -1.7027519184133877 [Eh]
	 Total Energy              =    -365.9854107248546029 [Eh]

	 ================> DF-SCS-MP2 Energies <==================
	-----------------------------------------------------------
	 SCS Same-Spin Scale       =       0.3333333333333333 [-]
	 SCS Opposite-Spin Scale   =       1.2000000000000000 [-]
	 SCS Same-Spin Energy      =      -0.1323081286321770 [Eh]
	 SCS Opposite-Spin Energy  =      -1.5669930390202280 [Eh]
	 SCS Correlation Energy    =      -1.6993011676524050 [Eh]
	 SCS Total Energy          =    -365.9819599740935701 [Eh]
	-----------------------------------------------------------

  Dipole Moment: [D]
     X:    -8.3785      Y:     0.1618      Z:     0.1703     Total:     8.3818

*** Psi4 exiting successfully. Buy a developer a beer!
