                               Psi4 1.4a3.dev225

  ==> Input File <==

--------------------------------------------------------------------------
#psi4
#
memory 32 gb

molecule  {
1 1
  N       -2.8138210    -0.0000810     0.0131690
  C       -1.3233890    -0.0000370    -0.0148680
  C        0.7280520     1.2302730    -0.0129860
  C        0.7281180    -1.2302340    -0.0129780
  C       -0.6725800    -1.2264340    -0.0069900
  C       -0.6726490     1.2263940    -0.0069970
  C        1.3988940     0.0000390    -0.0107890
  C        1.4942690     2.5253230     0.0134310
  C        1.4944180    -2.5252350     0.0134270
  H       -1.2241800    -2.1659650    -0.0138510
  H       -1.2242990     2.1658960    -0.0138630
  H        2.4879510     0.0000680    -0.0240190
  H       -3.1956820     0.8285560    -0.4636260
  H       -3.1956410    -0.8285950    -0.4638730
  H       -3.1827690    -0.0002330     0.9749950
  H        0.8779320     3.3605910    -0.3276200
  H        1.8358100     2.7495590     1.0289260
  H        2.3762850     2.4675780    -0.6290150
  H        2.3359033    -2.4701752    -0.5998636
  H        0.8780380    -3.3605930    -0.3273260
  H        1.8362550    -2.7492930     1.0288600
units angstrom
no_reorient  #important for SAPT in psi4, default
symmetry c1  #important for SAPT in psi4, default
}

set PROPERTIES_ORIGIN ["COM"]
properties('MP2/aug-cc-pvtz', properties = ['dipole'])
--------------------------------------------------------------------------

    Molecular point group: c1
  Charge       = 1
  Multiplicity = 1
  Basis Set: AUG-CC-PVTZ
    Blend: AUG-CC-PVTZ
  Basis Set: (AUG-CC-PVTZ AUX)
    Blend: AUG-CC-PVTZ-JKFIT

    Orbital Energies [Eh]
    ---------------------

    Doubly Occupied:

       1A    -15.888633     2A    -11.458822     3A    -11.394801
       4A    -11.394564     5A    -11.393439     6A    -11.393276
       7A    -11.371536     8A    -11.344965     9A    -11.339187
      10A     -1.502477    11A     -1.309218    12A     -1.205221
      13A     -1.182392    14A     -1.084847    15A     -1.072040
      16A     -0.989171    17A     -0.966728    18A     -0.949596
      19A     -0.908109    20A     -0.856460    21A     -0.820546
      22A     -0.795348    23A     -0.724030    24A     -0.715824
      25A     -0.711959    26A     -0.692718    27A     -0.680782
      28A     -0.659585    29A     -0.642271    30A     -0.634840
      31A     -0.628360    32A     -0.486542    33A     -0.475001

  @DF-RHF Final Energy:  -364.29342308405546

   => Energetics <=

    Nuclear Repulsion Energy =            432.5588514568946721
    One-Electron Energy =               -1338.3579753480617001
    Two-Electron Energy =                 541.5057008071115661
    Total Energy =                       -364.2934230840554619
  Basis Set: (AUG-CC-PVTZ AUX)
    Blend: AUG-CC-PVTZ-RI
    Molecular point group: c1

    Geometry (in Angstrom), charge = 1, multiplicity = 1:

       Center              X                  Y                   Z               Mass
    ------------   -----------------  -----------------  -----------------  -----------------
         N           -2.808168070955    -0.000058945051     0.014066164079    14.003074004430
         C           -1.317736070955    -0.000014945051    -0.013970835921    12.000000000000
         C            0.733704929045     1.230295054949    -0.012088835921    12.000000000000
         C            0.733770929045    -1.230211945051    -0.012080835921    12.000000000000
         C           -0.666927070955    -1.226411945051    -0.006092835921    12.000000000000
         C           -0.666996070955     1.226416054949    -0.006099835921    12.000000000000
         C            1.404546929045     0.000061054949    -0.009891835921    12.000000000000
         C            1.499921929045     2.525345054949     0.014328164079    12.000000000000
         C            1.500070929045    -2.525212945051     0.014324164079    12.000000000000
         H           -1.218527070955    -2.165942945051    -0.012953835921     1.007825032230
         H           -1.218646070955     2.165918054949    -0.012965835921     1.007825032230
         H            2.493603929045     0.000090054949    -0.023121835921     1.007825032230
         H           -3.190029070955     0.828578054949    -0.462728835921     1.007825032230
         H           -3.189988070955    -0.828572945051    -0.462975835921     1.007825032230
         H           -3.177116070955    -0.000210945051     0.975892164079     1.007825032230
         H            0.883584929045     3.360613054949    -0.326722835921     1.007825032230
         H            1.841462929045     2.749581054949     1.029823164079     1.007825032230
         H            2.381937929045     2.467600054949    -0.628117835921     1.007825032230
         H            2.341556229045    -2.470153145051    -0.598966435921     1.007825032230
         H            0.883690929045    -3.360570945051    -0.326428835921     1.007825032230
         H            1.841907929045    -2.749270945051     1.029757164079     1.007825032230

  Basis Set: AUG-CC-PVTZ
    Blend: AUG-CC-PVTZ
  Basis Set: (AUG-CC-PVTZ AUX)
    Blend: AUG-CC-PVTZ-JKFIT
	 Reference Energy          =    -364.2934230840554619 [Eh]
	 Singles Energy            =      -0.0000000000000000 [Eh]
	 Same-Spin Energy          =      -0.3971435065474633 [Eh]
	 Opposite-Spin Energy      =      -1.3050166016060618 [Eh]
	 Correlation Energy        =      -1.7021601081535251 [Eh]
	 Total Energy              =    -365.9955831922089828 [Eh]

	 ================> DF-SCS-MP2 Energies <==================
	-----------------------------------------------------------
	 SCS Same-Spin Scale       =       0.3333333333333333 [-]
	 SCS Opposite-Spin Scale   =       1.2000000000000000 [-]
	 SCS Same-Spin Energy      =      -0.1323811688491544 [Eh]
	 SCS Opposite-Spin Energy  =      -1.5660199219272741 [Eh]
	 SCS Correlation Energy    =      -1.6984010907764286 [Eh]
	 SCS Total Energy          =    -365.9918241748318906 [Eh]
	-----------------------------------------------------------

  Dipole Moment: [D]
     X:    -8.3579      Y:    -0.0030      Z:     0.1663     Total:     8.3595

*** Psi4 exiting successfully. Buy a developer a beer!
