                               Psi4 1.4a3.dev225

  ==> Input File <==

--------------------------------------------------------------------------
#psi4
#
memory 32 gb

molecule  {
1 1
  N       -2.8138210    -0.0000810     0.0131690
  C       -1.3233890    -0.0000370    -0.0148680
  C        0.7280520     1.2302730    -0.0129860
  C        0.7281180    -1.2302340    -0.0129780
  C       -0.6725800    -1.2264340    -0.0069900
  C       -0.6726490     1.2263940    -0.0069970
  C        1.3988940     0.0000390    -0.0107890
  C        1.4942690     2.5253230     0.0134310
  C        1.4944180    -2.5252350     0.0134270
  H       -1.2241800    -2.1659650    -0.0138510
  H       -1.2242990     2.1658960    -0.0138630
  H        2.4879510     0.0000680    -0.0240190
  H       -3.1777756     0.8189722    -0.4932690
  H       -3.1956410    -0.8285950    -0.4638730
  H       -3.1827690    -0.0002330     0.9749950
  H        0.8779320     3.3605910    -0.3276200
  H        1.8358100     2.7495590     1.0289260
  H        2.3762850     2.4675780    -0.6290150
  H        2.3762540    -2.4675350    -0.6292720
  H        0.8780380    -3.3605930    -0.3273260
  H        1.8362550    -2.7492930     1.0288600
units angstrom
no_reorient  #important for SAPT in psi4, default
symmetry c1  #important for SAPT in psi4, default
}

set PROPERTIES_ORIGIN ["COM"]
properties('MP2/aug-cc-pvtz', properties = ['dipole'])
--------------------------------------------------------------------------

    Molecular point group: c1
  Charge       = 1
  Multiplicity = 1
  Basis Set: AUG-CC-PVTZ
    Blend: AUG-CC-PVTZ
  Basis Set: (AUG-CC-PVTZ AUX)
    Blend: AUG-CC-PVTZ-JKFIT

    Orbital Energies [Eh]
    ---------------------

    Doubly Occupied:

       1A    -15.888607     2A    -11.458726     3A    -11.394896
       4A    -11.394811     5A    -11.393564     6A    -11.393458
       7A    -11.371594     8A    -11.345024     9A    -11.344994
      10A     -1.502579    11A     -1.309197    12A     -1.204888
      13A     -1.181868    14A     -1.083103    15A     -1.070406
      16A     -0.988394    17A     -0.965378    18A     -0.952618
      19A     -0.907020    20A     -0.855638    21A     -0.820275
      22A     -0.794659    23A     -0.724131    24A     -0.715399
      25A     -0.710774    26A     -0.690364    27A     -0.679133
      28A     -0.656865    29A     -0.641137    30A     -0.634714
      31A     -0.628521    32A     -0.486514    33A     -0.475046

  @DF-RHF Final Energy:  -364.29425182340600

   => Energetics <=

    Nuclear Repulsion Energy =            432.3675953634812572
    One-Electron Energy =               -1337.9951015741457923
    Two-Electron Energy =                 541.3332543872585347
    Total Energy =                       -364.2942518234059435
  Basis Set: (AUG-CC-PVTZ AUX)
    Blend: AUG-CC-PVTZ-RI
    Molecular point group: c1

    Geometry (in Angstrom), charge = 1, multiplicity = 1:

       Center              X                  Y                   Z               Mass
    ------------   -----------------  -----------------  -----------------  -----------------
         N           -2.808648942524    -0.000001630494     0.014553592038    14.003074004430
         C           -1.318216942524     0.000042369506    -0.013483407962    12.000000000000
         C            0.733224057476     1.230352369506    -0.011601407962    12.000000000000
         C            0.733290057476    -1.230154630494    -0.011593407962    12.000000000000
         C           -0.667407942524    -1.226354630494    -0.005605407962    12.000000000000
         C           -0.667476942524     1.226473369506    -0.005612407962    12.000000000000
         C            1.404066057476     0.000118369506    -0.009404407962    12.000000000000
         C            1.499441057476     2.525402369506     0.014815592038    12.000000000000
         C            1.499590057476    -2.525155630494     0.014811592038    12.000000000000
         H           -1.219007942524    -2.165885630494    -0.012466407962     1.007825032230
         H           -1.219126942524     2.165975369506    -0.012478407962     1.007825032230
         H            2.493123057476     0.000147369506    -0.022634407962     1.007825032230
         H           -3.172603542524     0.819051569506    -0.491884407962     1.007825032230
         H           -3.190468942524    -0.828515630494    -0.462488407962     1.007825032230
         H           -3.177596942524    -0.000153630494     0.976379592038     1.007825032230
         H            0.883104057476     3.360670369506    -0.326235407962     1.007825032230
         H            1.840982057476     2.749638369506     1.030310592038     1.007825032230
         H            2.381457057476     2.467657369506    -0.627630407962     1.007825032230
         H            2.381426057476    -2.467455630494    -0.627887407962     1.007825032230
         H            0.883210057476    -3.360513630494    -0.325941407962     1.007825032230
         H            1.841427057476    -2.749213630494     1.030244592038     1.007825032230

  Basis Set: AUG-CC-PVTZ
    Blend: AUG-CC-PVTZ
  Basis Set: (AUG-CC-PVTZ AUX)
    Blend: AUG-CC-PVTZ-JKFIT
	 Reference Energy          =    -364.2942518234060003 [Eh]
	 Singles Energy            =      -0.0000000000000000 [Eh]
	 Same-Spin Energy          =      -0.3971713490659027 [Eh]
	 Opposite-Spin Energy      =      -1.3053508421747417 [Eh]
	 Correlation Energy        =      -1.7025221912406443 [Eh]
	 Total Energy              =    -365.9967740146466326 [Eh]

	 ================> DF-SCS-MP2 Energies <==================
	-----------------------------------------------------------
	 SCS Same-Spin Scale       =       0.3333333333333333 [-]
	 SCS Opposite-Spin Scale   =       1.2000000000000000 [-]
	 SCS Same-Spin Energy      =      -0.1323904496886342 [Eh]
	 SCS Opposite-Spin Energy  =      -1.5664210106096901 [Eh]
	 SCS Correlation Energy    =      -1.6988114602983242 [Eh]
	 SCS Total Energy          =    -365.9930632837043163 [Eh]
	-----------------------------------------------------------

  Dipole Moment: [D]
     X:    -8.3474      Y:    -0.0122      Z:     0.1418     Total:     8.3486

*** Psi4 exiting successfully. Buy a developer a beer!
