                               Psi4 1.4a3.dev225

  ==> Input File <==

--------------------------------------------------------------------------
#psi4
#
memory 32 gb

molecule  {
1 1
  N       -2.8138210    -0.0000810     0.0131690
  C       -1.3233890    -0.0000370    -0.0148680
  C        0.7280520     1.2302730    -0.0129860
  C        0.7281180    -1.2302340    -0.0129780
  C       -0.6925797    -1.2263797    -0.0069045
  C       -0.6726490     1.2263940    -0.0069970
  C        1.3988940     0.0000390    -0.0107890
  C        1.4942690     2.5253230     0.0134310
  C        1.4944180    -2.5252350     0.0134270
  H       -1.2241800    -2.1659650    -0.0138510
  H       -1.2242990     2.1658960    -0.0138630
  H        2.4879510     0.0000680    -0.0240190
  H       -3.1956820     0.8285560    -0.4636260
  H       -3.1956410    -0.8285950    -0.4638730
  H       -3.1827690    -0.0002330     0.9749950
  H        0.8779320     3.3605910    -0.3276200
  H        1.8358100     2.7495590     1.0289260
  H        2.3762850     2.4675780    -0.6290150
  H        2.3762540    -2.4675350    -0.6292720
  H        0.8780380    -3.3605930    -0.3273260
  H        1.8362550    -2.7492930     1.0288600
units angstrom
no_reorient  #important for SAPT in psi4, default
symmetry c1  #important for SAPT in psi4, default
}

set PROPERTIES_ORIGIN ["COM"]
properties('MP2/aug-cc-pvtz', properties = ['dipole'])
--------------------------------------------------------------------------

    Molecular point group: c1
  Charge       = 1
  Multiplicity = 1
  Basis Set: AUG-CC-PVTZ
    Blend: AUG-CC-PVTZ
  Basis Set: (AUG-CC-PVTZ AUX)
    Blend: AUG-CC-PVTZ-JKFIT

    Orbital Energies [Eh]
    ---------------------

    Doubly Occupied:

       1A    -15.887863     2A    -11.458719     3A    -11.397225
       4A    -11.395319     5A    -11.394034     6A    -11.392725
       7A    -11.371115     8A    -11.345386     9A    -11.345160
      10A     -1.502377    11A     -1.308265    12A     -1.203507
      13A     -1.183167    14A     -1.084200    15A     -1.070461
      16A     -0.987522    17A     -0.965358    18A     -0.949242
      19A     -0.907949    20A     -0.856765    21A     -0.820015
      22A     -0.794722    23A     -0.725400    24A     -0.716049
      25A     -0.710497    26A     -0.690407    27A     -0.679260
      28A     -0.657323    29A     -0.639660    30A     -0.634849
      31A     -0.629479    32A     -0.487570    33A     -0.473060

  @DF-RHF Final Energy:  -364.29384326255132

   => Energetics <=

    Nuclear Repulsion Energy =            432.1844759684918245
    One-Electron Energy =               -1337.6273384800799704
    Two-Electron Energy =                 541.1490192490368827
    Total Energy =                       -364.2938432625512633
  Basis Set: (AUG-CC-PVTZ AUX)
    Blend: AUG-CC-PVTZ-RI
    Molecular point group: c1

    Geometry (in Angstrom), charge = 1, multiplicity = 1:

       Center              X                  Y                   Z               Mass
    ------------   -----------------  -----------------  -----------------  -----------------
         N           -2.806535516541    -0.000086074795     0.014300506672    14.003074004430
         C           -1.316103516541    -0.000042074795    -0.013736493328    12.000000000000
         C            0.735337483459     1.230267925205    -0.011854493328    12.000000000000
         C            0.735403483459    -1.230239074795    -0.011846493328    12.000000000000
         C           -0.685294216541    -1.226384774795    -0.005772993328    12.000000000000
         C           -0.665363516541     1.226388925205    -0.005865493328    12.000000000000
         C            1.406179483459     0.000033925205    -0.009657493328    12.000000000000
         C            1.501554483459     2.525317925205     0.014562506672    12.000000000000
         C            1.501703483459    -2.525240074795     0.014558506672    12.000000000000
         H           -1.216894516541    -2.165970074795    -0.012719493328     1.007825032230
         H           -1.217013516541     2.165890925205    -0.012731493328     1.007825032230
         H            2.495236483459     0.000062925205    -0.022887493328     1.007825032230
         H           -3.188396516541     0.828550925205    -0.462494493328     1.007825032230
         H           -3.188355516541    -0.828600074795    -0.462741493328     1.007825032230
         H           -3.175483516541    -0.000238074795     0.976126506672     1.007825032230
         H            0.885217483459     3.360585925205    -0.326488493328     1.007825032230
         H            1.843095483459     2.749553925205     1.030057506672     1.007825032230
         H            2.383570483459     2.467572925205    -0.627883493328     1.007825032230
         H            2.383539483459    -2.467540074795    -0.628140493328     1.007825032230
         H            0.885323483459    -3.360598074795    -0.326194493328     1.007825032230
         H            1.843540483459    -2.749298074795     1.029991506672     1.007825032230

  Basis Set: AUG-CC-PVTZ
    Blend: AUG-CC-PVTZ
  Basis Set: (AUG-CC-PVTZ AUX)
    Blend: AUG-CC-PVTZ-JKFIT
	 Reference Energy          =    -364.2938432625513201 [Eh]
	 Singles Energy            =      -0.0000000000000000 [Eh]
	 Same-Spin Energy          =      -0.3971306167998439 [Eh]
	 Opposite-Spin Energy      =      -1.3053029952802713 [Eh]
	 Correlation Energy        =      -1.7024336120801151 [Eh]
	 Total Energy              =    -365.9962768746314623 [Eh]

	 ================> DF-SCS-MP2 Energies <==================
	-----------------------------------------------------------
	 SCS Same-Spin Scale       =       0.3333333333333333 [-]
	 SCS Opposite-Spin Scale   =       1.2000000000000000 [-]
	 SCS Same-Spin Energy      =      -0.1323768722666146 [Eh]
	 SCS Opposite-Spin Energy  =      -1.5663635943363254 [Eh]
	 SCS Correlation Energy    =      -1.6987404666029400 [Eh]
	 SCS Total Energy          =    -365.9925837291542621 [Eh]
	-----------------------------------------------------------

  Dipole Moment: [D]
     X:    -8.3370      Y:    -0.0128      Z:     0.1704     Total:     8.3387

*** Psi4 exiting successfully. Buy a developer a beer!
