                               Psi4 1.4a3.dev225

  ==> Input File <==

--------------------------------------------------------------------------
#psi4
#
memory 32 gb

molecule  {
1 1
  N       -2.8138210    -0.0000810     0.0131690
  C       -1.3233890    -0.0000370    -0.0148680
  C        0.7280520     1.2302730    -0.0129860
  C        0.7281180    -1.2302340    -0.0129780
  C       -0.7725787    -1.2261627    -0.0065625
  C       -0.6726490     1.2263940    -0.0069970
  C        1.3988940     0.0000390    -0.0107890
  C        1.4942690     2.5253230     0.0134310
  C        1.4944180    -2.5252350     0.0134270
  H       -1.2241800    -2.1659650    -0.0138510
  H       -1.2242990     2.1658960    -0.0138630
  H        2.4879510     0.0000680    -0.0240190
  H       -3.1956820     0.8285560    -0.4636260
  H       -3.1956410    -0.8285950    -0.4638730
  H       -3.1827690    -0.0002330     0.9749950
  H        0.8779320     3.3605910    -0.3276200
  H        1.8358100     2.7495590     1.0289260
  H        2.3762850     2.4675780    -0.6290150
  H        2.3762540    -2.4675350    -0.6292720
  H        0.8780380    -3.3605930    -0.3273260
  H        1.8362550    -2.7492930     1.0288600
units angstrom
no_reorient  #important for SAPT in psi4, default
symmetry c1  #important for SAPT in psi4, default
}

set PROPERTIES_ORIGIN ["COM"]
properties('MP2/aug-cc-pvtz', properties = ['dipole'])
--------------------------------------------------------------------------

    Molecular point group: c1
  Charge       = 1
  Multiplicity = 1
  Basis Set: AUG-CC-PVTZ
    Blend: AUG-CC-PVTZ
  Basis Set: (AUG-CC-PVTZ AUX)
    Blend: AUG-CC-PVTZ-JKFIT

    Orbital Energies [Eh]
    ---------------------

    Doubly Occupied:

       1A    -15.884246     2A    -11.458046     3A    -11.406621
       4A    -11.398123     5A    -11.394868     6A    -11.389124
       7A    -11.369581     8A    -11.347038     9A    -11.345952
      10A     -1.501727    11A     -1.305111    12A     -1.200721
      13A     -1.186036    14A     -1.088680    15A     -1.070796
      16A     -0.983418    17A     -0.961930    18A     -0.947430
      19A     -0.908283    20A     -0.861481    21A     -0.818620
      22A     -0.794518    23A     -0.732105    24A     -0.715365
      25A     -0.709924    26A     -0.690847    27A     -0.680027
      28A     -0.658517    29A     -0.636580    30A     -0.632997
      31A     -0.630502    32A     -0.493367    33A     -0.465656

  @DF-RHF Final Energy:  -364.28291936161662

   => Energetics <=

    Nuclear Repulsion Energy =            431.6252262412281198
    One-Electron Energy =               -1336.4798181479479808
    Two-Electron Energy =                 540.5716725451031834
    Total Energy =                       -364.2829193616166776
  Basis Set: (AUG-CC-PVTZ AUX)
    Blend: AUG-CC-PVTZ-RI
    Molecular point group: c1

    Geometry (in Angstrom), charge = 1, multiplicity = 1:

       Center              X                  Y                   Z               Mass
    ------------   -----------------  -----------------  -----------------  -----------------
         N           -2.798673012127    -0.000107402104     0.014266894046    14.003074004430
         C           -1.308241012127    -0.000063402104    -0.013770105954    12.000000000000
         C            0.743199987873     1.230246597896    -0.011888105954    12.000000000000
         C            0.743265987873    -1.230260402104    -0.011880105954    12.000000000000
         C           -0.757430712127    -1.226189102104    -0.005464605954    12.000000000000
         C           -0.657501012127     1.226367597896    -0.005899105954    12.000000000000
         C            1.414041987873     0.000012597896    -0.009691105954    12.000000000000
         C            1.509416987873     2.525296597896     0.014528894046    12.000000000000
         C            1.509565987873    -2.525261402104     0.014524894046    12.000000000000
         H           -1.209032012127    -2.165991402104    -0.012753105954     1.007825032230
         H           -1.209151012127     2.165869597896    -0.012765105954     1.007825032230
         H            2.503098987873     0.000041597896    -0.022921105954     1.007825032230
         H           -3.180534012127     0.828529597896    -0.462528105954     1.007825032230
         H           -3.180493012127    -0.828621402104    -0.462775105954     1.007825032230
         H           -3.167621012127    -0.000259402104     0.976092894046     1.007825032230
         H            0.893079987873     3.360564597896    -0.326522105954     1.007825032230
         H            1.850957987873     2.749532597896     1.030023894046     1.007825032230
         H            2.391432987873     2.467551597896    -0.627917105954     1.007825032230
         H            2.391401987873    -2.467561402104    -0.628174105954     1.007825032230
         H            0.893185987873    -3.360619402104    -0.326228105954     1.007825032230
         H            1.851402987873    -2.749319402104     1.029957894046     1.007825032230

  Basis Set: AUG-CC-PVTZ
    Blend: AUG-CC-PVTZ
  Basis Set: (AUG-CC-PVTZ AUX)
    Blend: AUG-CC-PVTZ-JKFIT
	 Reference Energy          =    -364.2829193616166208 [Eh]
	 Singles Energy            =      -0.0000000000000000 [Eh]
	 Same-Spin Energy          =      -0.3969559385641066 [Eh]
	 Opposite-Spin Energy      =      -1.3056701689478669 [Eh]
	 Correlation Energy        =      -1.7026261075119735 [Eh]
	 Total Energy              =    -365.9855454691285672 [Eh]

	 ================> DF-SCS-MP2 Energies <==================
	-----------------------------------------------------------
	 SCS Same-Spin Scale       =       0.3333333333333333 [-]
	 SCS Opposite-Spin Scale   =       1.2000000000000000 [-]
	 SCS Same-Spin Energy      =      -0.1323186461880355 [Eh]
	 SCS Opposite-Spin Energy  =      -1.5668042027374403 [Eh]
	 SCS Correlation Energy    =      -1.6991228489254757 [Eh]
	 SCS Total Energy          =    -365.9820422105420903 [Eh]
	-----------------------------------------------------------

  Dipole Moment: [D]
     X:    -8.2104      Y:    -0.0543      Z:     0.1710     Total:     8.2124

*** Psi4 exiting successfully. Buy a developer a beer!
