                               Psi4 1.4a3.dev225

  ==> Input File <==

--------------------------------------------------------------------------
#psi4
#
memory 32 gb

molecule  {
1 1
  N       -2.8138210    -0.0000810     0.0131690
  C       -1.3233890    -0.0000370    -0.0148680
  C        0.7280520     1.2302730    -0.0129860
  C        0.7281180    -1.2302340    -0.0129780
  C       -0.6725800    -1.2264340    -0.0069900
  C       -0.6726490     1.2263940    -0.0069970
  C        1.3988940     0.0000390    -0.0107890
  C        1.4942690     2.5253230     0.0134310
  C        1.4944180    -2.5252350     0.0134270
  H       -1.2241800    -2.1659650    -0.0138510
  H       -1.2242990     2.1658960    -0.0138630
  H        2.4879510     0.0000680    -0.0240190
  H       -3.1956820     0.8285560    -0.4636260
  H       -3.1956410    -0.8285950    -0.4638730
  H       -3.1827690    -0.0002330     0.9749950
  H        0.8779320     3.3605910    -0.3276200
  H        1.8358100     2.7495590     1.0289260
  H        2.3601414     2.4686349    -0.6172563
  H        2.3762540    -2.4675350    -0.6292720
  H        0.8780380    -3.3605930    -0.3273260
  H        1.8362550    -2.7492930     1.0288600
units angstrom
no_reorient  #important for SAPT in psi4, default
symmetry c1  #important for SAPT in psi4, default
}

set PROPERTIES_ORIGIN ["COM"]
properties('MP2/aug-cc-pvtz', properties = ['dipole'])
--------------------------------------------------------------------------

    Molecular point group: c1
  Charge       = 1
  Multiplicity = 1
  Basis Set: AUG-CC-PVTZ
    Blend: AUG-CC-PVTZ
  Basis Set: (AUG-CC-PVTZ AUX)
    Blend: AUG-CC-PVTZ-JKFIT

    Orbital Energies [Eh]
    ---------------------

    Doubly Occupied:

       1A    -15.888677     2A    -11.458876     3A    -11.394815
       4A    -11.394718     5A    -11.393475     6A    -11.393410
       7A    -11.371537     8A    -11.344971     9A    -11.342680
      10A     -1.502519    11A     -1.309233    12A     -1.204982
      13A     -1.182184    14A     -1.083702    15A     -1.071062
      16A     -0.988980    17A     -0.966306    18A     -0.949636
      19A     -0.907920    20A     -0.856150    21A     -0.820501
      22A     -0.795044    23A     -0.724070    24A     -0.715474
      25A     -0.711181    26A     -0.691162    27A     -0.679833
      28A     -0.658027    29A     -0.641653    30A     -0.634742
      31A     -0.628441    32A     -0.486471    33A     -0.475002

  @DF-RHF Final Energy:  -364.29441946181225

   => Energetics <=

    Nuclear Repulsion Energy =            432.4243669102594936
    One-Electron Energy =               -1338.1027020301835364
    Two-Electron Energy =                 541.3839156581117322
    Total Energy =                       -364.2944194618122538
  Basis Set: (AUG-CC-PVTZ AUX)
    Blend: AUG-CC-PVTZ-RI
    Molecular point group: c1

    Geometry (in Angstrom), charge = 1, multiplicity = 1:

       Center              X                  Y                   Z               Mass
    ------------   -----------------  -----------------  -----------------  -----------------
         N           -2.808367883616    -0.000089462022     0.014211849994    14.003074004430
         C           -1.317935883616    -0.000045462022    -0.013825150006    12.000000000000
         C            0.733505116384     1.230264537978    -0.011943150006    12.000000000000
         C            0.733571116384    -1.230242462022    -0.011935150006    12.000000000000
         C           -0.667126883616    -1.226442462022    -0.005947150006    12.000000000000
         C           -0.667195883616     1.226385537978    -0.005954150006    12.000000000000
         C            1.404347116384     0.000030537978    -0.009746150006    12.000000000000
         C            1.499722116384     2.525314537978     0.014473849994    12.000000000000
         C            1.499871116384    -2.525243462022     0.014469849994    12.000000000000
         H           -1.218726883616    -2.165973462022    -0.012808150006     1.007825032230
         H           -1.218845883616     2.165887537978    -0.012820150006     1.007825032230
         H            2.493404116384     0.000059537978    -0.022976150006     1.007825032230
         H           -3.190228883616     0.828547537978    -0.462583150006     1.007825032230
         H           -3.190187883616    -0.828603462022    -0.462830150006     1.007825032230
         H           -3.177315883616    -0.000241462022     0.976037849994     1.007825032230
         H            0.883385116384     3.360582537978    -0.326577150006     1.007825032230
         H            1.841263116384     2.749550537978     1.029968849994     1.007825032230
         H            2.365594516384     2.468626437978    -0.616213450006     1.007825032230
         H            2.381707116384    -2.467543462022    -0.628229150006     1.007825032230
         H            0.883491116384    -3.360601462022    -0.326283150006     1.007825032230
         H            1.841708116384    -2.749301462022     1.029902849994     1.007825032230

  Basis Set: AUG-CC-PVTZ
    Blend: AUG-CC-PVTZ
  Basis Set: (AUG-CC-PVTZ AUX)
    Blend: AUG-CC-PVTZ-JKFIT
	 Reference Energy          =    -364.2944194618122538 [Eh]
	 Singles Energy            =      -0.0000000000000000 [Eh]
	 Same-Spin Energy          =      -0.3971502086547974 [Eh]
	 Opposite-Spin Energy      =      -1.3051844269979058 [Eh]
	 Correlation Energy        =      -1.7023346356527034 [Eh]
	 Total Energy              =    -365.9967540974649296 [Eh]

	 ================> DF-SCS-MP2 Energies <==================
	-----------------------------------------------------------
	 SCS Same-Spin Scale       =       0.3333333333333333 [-]
	 SCS Opposite-Spin Scale   =       1.2000000000000000 [-]
	 SCS Same-Spin Energy      =      -0.1323834028849325 [Eh]
	 SCS Opposite-Spin Energy  =      -1.5662213123974869 [Eh]
	 SCS Correlation Energy    =      -1.6986047152824193 [Eh]
	 SCS Total Energy          =    -365.9930241770946964 [Eh]
	-----------------------------------------------------------

  Dipole Moment: [D]
     X:    -8.3626      Y:     0.0010      Z:     0.1685     Total:     8.3643

*** Psi4 exiting successfully. Buy a developer a beer!
