                               Psi4 1.4a3.dev225

  ==> Input File <==

--------------------------------------------------------------------------
#psi4
#
memory 32 gb

molecule  {
1 1
  N       -2.8138210    -0.0000810     0.0131690
  C       -1.3233890    -0.0000370    -0.0148680
  C        0.7280520     1.2302730    -0.0129860
  C        0.7281180    -1.2302340    -0.0129780
  C       -0.6725800    -1.2264340    -0.0069900
  C       -0.6726490     1.2263940    -0.0069970
  C        1.3988940     0.0000390    -0.0107890
  C        1.4942690     2.5253230     0.0134310
  C        1.4944180    -2.5252350     0.0134270
  H       -1.2241800    -2.1659650    -0.0138510
  H       -1.2242990     2.1658960    -0.0138630
  H        2.4879510     0.0000680    -0.0240190
  H       -3.1956820     0.8285560    -0.4636260
  H       -3.1956410    -0.8285950    -0.4638730
  H       -3.1827690    -0.0002330     0.9749950
  H        0.8497279     3.3988135    -0.3432268
  H        1.8358100     2.7495590     1.0289260
  H        2.3762850     2.4675780    -0.6290150
  H        2.3762540    -2.4675350    -0.6292720
  H        0.8780380    -3.3605930    -0.3273260
  H        1.8362550    -2.7492930     1.0288600
units angstrom
no_reorient  #important for SAPT in psi4, default
symmetry c1  #important for SAPT in psi4, default
}

set PROPERTIES_ORIGIN ["COM"]
properties('MP2/aug-cc-pvtz', properties = ['dipole'])
--------------------------------------------------------------------------

    Molecular point group: c1
  Charge       = 1
  Multiplicity = 1
  Basis Set: AUG-CC-PVTZ
    Blend: AUG-CC-PVTZ
  Basis Set: (AUG-CC-PVTZ AUX)
    Blend: AUG-CC-PVTZ-JKFIT

    Orbital Energies [Eh]
    ---------------------

    Doubly Occupied:

       1A    -15.888754     2A    -11.458969     3A    -11.395147
       4A    -11.394991     5A    -11.393638     6A    -11.393636
       7A    -11.371869     8A    -11.350768     9A    -11.345103
      10A     -1.502597    11A     -1.309352    12A     -1.204542
      13A     -1.182032    14A     -1.082320    15A     -1.068291
      16A     -0.988951    17A     -0.965458    18A     -0.949709
      19A     -0.907061    20A     -0.855871    21A     -0.820619
      22A     -0.794544    23A     -0.723822    24A     -0.714946
      25A     -0.710503    26A     -0.690230    27A     -0.675699
      28A     -0.654720    29A     -0.640813    30A     -0.634502
      31A     -0.626437    32A     -0.486629    33A     -0.475046

  @DF-RHF Final Energy:  -364.29220220505817

   => Energetics <=

    Nuclear Repulsion Energy =            432.1308246192664910
    One-Electron Energy =               -1337.5309180725873830
    Two-Electron Energy =                 541.1078912482627175
    Total Energy =                       -364.2922022050581745
  Basis Set: (AUG-CC-PVTZ AUX)
    Blend: AUG-CC-PVTZ-RI
    Molecular point group: c1

    Geometry (in Angstrom), charge = 1, multiplicity = 1:

       Center              X                  Y                   Z               Mass
    ------------   -----------------  -----------------  -----------------  -----------------
         N           -2.808268332633    -0.000396238027     0.014437733035    14.003074004430
         C           -1.317836332633    -0.000352238027    -0.013599266965    12.000000000000
         C            0.733604667367     1.229957761973    -0.011717266965    12.000000000000
         C            0.733670667367    -1.230549238027    -0.011709266965    12.000000000000
         C           -0.667027332633    -1.226749238027    -0.005721266965    12.000000000000
         C           -0.667096332633     1.226078761973    -0.005728266965    12.000000000000
         C            1.404446667367    -0.000276238027    -0.009520266965    12.000000000000
         C            1.499821667367     2.525007761973     0.014699733035    12.000000000000
         C            1.499970667367    -2.525550238027     0.014695733035    12.000000000000
         H           -1.218627332633    -2.166280238027    -0.012582266965     1.007825032230
         H           -1.218746332633     2.165580761973    -0.012594266965     1.007825032230
         H            2.493503667367    -0.000247238027    -0.022750266965     1.007825032230
         H           -3.190129332633     0.828240761973    -0.462357266965     1.007825032230
         H           -3.190088332633    -0.828910238027    -0.462604266965     1.007825032230
         H           -3.177216332633    -0.000548238027     0.976263733035     1.007825032230
         H            0.855280567367     3.398498261973    -0.341958066965     1.007825032230
         H            1.841362667367     2.749243761973     1.030194733035     1.007825032230
         H            2.381837667367     2.467262761973    -0.627746266965     1.007825032230
         H            2.381806667367    -2.467850238027    -0.628003266965     1.007825032230
         H            0.883590667367    -3.360908238027    -0.326057266965     1.007825032230
         H            1.841807667367    -2.749608238027     1.030128733035     1.007825032230

  Basis Set: AUG-CC-PVTZ
    Blend: AUG-CC-PVTZ
  Basis Set: (AUG-CC-PVTZ AUX)
    Blend: AUG-CC-PVTZ-JKFIT
	 Reference Energy          =    -364.2922022050581745 [Eh]
	 Singles Energy            =      -0.0000000000000000 [Eh]
	 Same-Spin Energy          =      -0.3971761547363156 [Eh]
	 Opposite-Spin Energy      =      -1.3056819791120624 [Eh]
	 Correlation Energy        =      -1.7028581338483779 [Eh]
	 Total Energy              =    -365.9950603389065691 [Eh]

	 ================> DF-SCS-MP2 Energies <==================
	-----------------------------------------------------------
	 SCS Same-Spin Scale       =       0.3333333333333333 [-]
	 SCS Opposite-Spin Scale   =       1.2000000000000000 [-]
	 SCS Same-Spin Energy      =      -0.1323920515787718 [Eh]
	 SCS Opposite-Spin Energy  =      -1.5668183749344748 [Eh]
	 SCS Correlation Energy    =      -1.6992104265132466 [Eh]
	 SCS Total Energy          =    -365.9914126315713929 [Eh]
	-----------------------------------------------------------

  Dipole Moment: [D]
     X:    -8.3602      Y:    -0.0203      Z:     0.1745     Total:     8.3620

*** Psi4 exiting successfully. Buy a developer a beer!
