                               Psi4 1.4a3.dev225

  ==> Input File <==

--------------------------------------------------------------------------
#psi4
#
memory 32 gb

molecule  {
1 1
  N       -2.8138210    -0.0000810     0.0131690
  C       -1.3233890    -0.0000370    -0.0148680
  C        0.7280520     1.2302730    -0.0129860
  C        0.7281180    -1.2302340    -0.0129780
  C       -0.6725800    -1.2264340    -0.0069900
  C       -0.6726490     1.2263940    -0.0069970
  C        1.3988940     0.0000390    -0.0107890
  C        1.4942690     2.5253230     0.0134310
  C        1.4944180    -2.5252350     0.0134270
  H       -1.2241800    -2.1659650    -0.0138510
  H       -1.2242990     2.1658960    -0.0138630
  H        2.4879510     0.0000680    -0.0240190
  H       -3.1956820     0.8285560    -0.4636260
  H       -3.1956410    -0.8285950    -0.4638730
  H       -3.1827690    -0.0002330     0.9749950
  H        0.8779320     3.3605910    -0.3276200
  H        1.8358100     2.7495590     1.0289260
  H        2.2148491     2.4781471    -0.5114278
  H        2.3762540    -2.4675350    -0.6292720
  H        0.8780380    -3.3605930    -0.3273260
  H        1.8362550    -2.7492930     1.0288600
units angstrom
no_reorient  #important for SAPT in psi4, default
symmetry c1  #important for SAPT in psi4, default
}

set PROPERTIES_ORIGIN ["COM"]
properties('MP2/aug-cc-pvtz', properties = ['dipole'])
--------------------------------------------------------------------------

    Molecular point group: c1
  Charge       = 1
  Multiplicity = 1
  Basis Set: AUG-CC-PVTZ
    Blend: AUG-CC-PVTZ
  Basis Set: (AUG-CC-PVTZ AUX)
    Blend: AUG-CC-PVTZ-JKFIT

    Orbital Energies [Eh]
    ---------------------

    Doubly Occupied:

       1A    -15.888505     2A    -11.458656     3A    -11.394821
       4A    -11.394031     5A    -11.393367     6A    -11.392816
       7A    -11.371654     8A    -11.344977     9A    -11.321574
      10A     -1.502358    11A     -1.309367    12A     -1.207577
      13A     -1.183988    14A     -1.096070    15A     -1.075282
      16A     -0.990495    17A     -0.969205    18A     -0.949480
      19A     -0.909468    20A     -0.858635    21A     -0.820958
      22A     -0.797533    23A     -0.728062    24A     -0.723117
      25A     -0.713735    26A     -0.700266    27A     -0.682928
      28A     -0.664050    29A     -0.643764    30A     -0.634938
      31A     -0.628082    32A     -0.486934    33A     -0.475074

  @DF-RHF Final Energy:  -364.26020519525480

   => Energetics <=

    Nuclear Repulsion Energy =            433.3218359846583212
    One-Electron Energy =               -1339.7405487852722672
    Two-Electron Energy =                 542.1585076053592047
    Total Energy =                       -364.2602051952547981
  Basis Set: (AUG-CC-PVTZ AUX)
    Blend: AUG-CC-PVTZ-RI
    Molecular point group: c1

    Geometry (in Angstrom), charge = 1, multiplicity = 1:

       Center              X                  Y                   Z               Mass
    ------------   -----------------  -----------------  -----------------  -----------------
         N           -2.807168597412    -0.000167978573     0.013338309827    14.003074004430
         C           -1.316736597412    -0.000123978573    -0.014698690173    12.000000000000
         C            0.734704402588     1.230186021427    -0.012816690173    12.000000000000
         C            0.734770402588    -1.230320978573    -0.012808690173    12.000000000000
         C           -0.665927597412    -1.226520978573    -0.006820690173    12.000000000000
         C           -0.665996597412     1.226307021427    -0.006827690173    12.000000000000
         C            1.405546402588    -0.000047978573    -0.010619690173    12.000000000000
         C            1.500921402588     2.525236021427     0.013600309827    12.000000000000
         C            1.501070402588    -2.525321978573     0.013596309827    12.000000000000
         H           -1.217527597412    -2.166051978573    -0.013681690173     1.007825032230
         H           -1.217646597412     2.165809021427    -0.013693690173     1.007825032230
         H            2.494603402588    -0.000018978573    -0.023849690173     1.007825032230
         H           -3.189029597412     0.828469021427    -0.463456690173     1.007825032230
         H           -3.188988597412    -0.828681978573    -0.463703690173     1.007825032230
         H           -3.176116597412    -0.000319978573     0.975164309827     1.007825032230
         H            0.884584402588     3.360504021427    -0.327450690173     1.007825032230
         H            1.842462402588     2.749472021427     1.029095309827     1.007825032230
         H            2.221501502588     2.478060121427    -0.511258490173     1.007825032230
         H            2.382906402588    -2.467621978573    -0.629102690173     1.007825032230
         H            0.884690402588    -3.360679978573    -0.327156690173     1.007825032230
         H            1.842907402588    -2.749379978573     1.029029309827     1.007825032230

  Basis Set: AUG-CC-PVTZ
    Blend: AUG-CC-PVTZ
  Basis Set: (AUG-CC-PVTZ AUX)
    Blend: AUG-CC-PVTZ-JKFIT
	 Reference Energy          =    -364.2602051952547981 [Eh]
	 Singles Energy            =      -0.0000000000000000 [Eh]
	 Same-Spin Energy          =      -0.3971986863953282 [Eh]
	 Opposite-Spin Energy      =      -1.3046402146803313 [Eh]
	 Correlation Energy        =      -1.7018389010756594 [Eh]
	 Total Energy              =    -365.9620440963304304 [Eh]

	 ================> DF-SCS-MP2 Energies <==================
	-----------------------------------------------------------
	 SCS Same-Spin Scale       =       0.3333333333333333 [-]
	 SCS Opposite-Spin Scale   =       1.2000000000000000 [-]
	 SCS Same-Spin Energy      =      -0.1323995621317761 [Eh]
	 SCS Opposite-Spin Energy  =      -1.5655682576163976 [Eh]
	 SCS Correlation Energy    =      -1.6979678197481736 [Eh]
	 SCS Total Energy          =    -365.9581730150029557 [Eh]
	-----------------------------------------------------------

  Dipole Moment: [D]
     X:    -8.3466      Y:     0.0042      Z:     0.1624     Total:     8.3482

*** Psi4 exiting successfully. Buy a developer a beer!
