                               Psi4 1.4a3.dev225

  ==> Input File <==

--------------------------------------------------------------------------
#psi4
#
memory 32 gb

molecule  {
1 1
  N       -2.8138210    -0.0000810     0.0131690
  C       -1.3233890    -0.0000370    -0.0148680
  C        0.7637112     1.2109213    -0.0463538
  C        0.7281180    -1.2302340    -0.0129780
  C       -0.6725800    -1.2264340    -0.0069900
  C       -0.6726490     1.2263940    -0.0069970
  C        1.3988940     0.0000390    -0.0107890
  C        1.4942690     2.5253230     0.0134310
  C        1.4944180    -2.5252350     0.0134270
  H       -1.2241800    -2.1659650    -0.0138510
  H       -1.2242990     2.1658960    -0.0138630
  H        2.4879510     0.0000680    -0.0240190
  H       -3.1956820     0.8285560    -0.4636260
  H       -3.1956410    -0.8285950    -0.4638730
  H       -3.1827690    -0.0002330     0.9749950
  H        0.8779320     3.3605910    -0.3276200
  H        1.8358100     2.7495590     1.0289260
  H        2.3762850     2.4675780    -0.6290150
  H        2.3762540    -2.4675350    -0.6292720
  H        0.8780380    -3.3605930    -0.3273260
  H        1.8362550    -2.7492930     1.0288600
units angstrom
no_reorient  #important for SAPT in psi4, default
symmetry c1  #important for SAPT in psi4, default
}

set PROPERTIES_ORIGIN ["COM"]
properties('MP2/aug-cc-pvtz', properties = ['dipole'])
--------------------------------------------------------------------------

    Molecular point group: c1
  Charge       = 1
  Multiplicity = 1
  Basis Set: AUG-CC-PVTZ
    Blend: AUG-CC-PVTZ
  Basis Set: (AUG-CC-PVTZ AUX)
    Blend: AUG-CC-PVTZ-JKFIT

    Orbital Energies [Eh]
    ---------------------

    Doubly Occupied:

       1A    -15.888502     2A    -11.459105     3A    -11.397693
       4A    -11.396209     5A    -11.394497     6A    -11.392005
       7A    -11.367519     8A    -11.345474     9A    -11.345008
      10A     -1.502457    11A     -1.308982    12A     -1.202412
      13A     -1.184700    14A     -1.082279    15A     -1.073006
      16A     -0.986395    17A     -0.965173    18A     -0.949559
      19A     -0.910800    20A     -0.854605    21A     -0.820052
      22A     -0.794202    23A     -0.722514    24A     -0.719379
      25A     -0.710825    26A     -0.690192    27A     -0.678903
      28A     -0.655120    29A     -0.637369    30A     -0.634287
      31A     -0.631284    32A     -0.491666    33A     -0.470908

  @DF-RHF Final Energy:  -364.29190056646195

   => Energetics <=

    Nuclear Repulsion Energy =            432.3032452293934966
    One-Electron Energy =               -1337.8641236831228980
    Two-Electron Energy =                 541.2689778872675106
    Total Energy =                       -364.2919005664618908
  Basis Set: (AUG-CC-PVTZ AUX)
    Blend: AUG-CC-PVTZ-RI
    Molecular point group: c1

    Geometry (in Angstrom), charge = 1, multiplicity = 1:

       Center              X                  Y                   Z               Mass
    ------------   -----------------  -----------------  -----------------  -----------------
         N           -2.812005814256     0.001821196054     0.017588381757    14.003074004430
         C           -1.321573814256     0.001865196054    -0.010448618243    12.000000000000
         C            0.765526385744     1.212823496054    -0.041934418243    12.000000000000
         C            0.729933185744    -1.228331803946    -0.008558618243    12.000000000000
         C           -0.670764814256    -1.224531803946    -0.002570618243    12.000000000000
         C           -0.670833814256     1.228296196054    -0.002577618243    12.000000000000
         C            1.400709185744     0.001941196054    -0.006369618243    12.000000000000
         C            1.496084185744     2.527225196054     0.017850381757    12.000000000000
         C            1.496233185744    -2.523332803946     0.017846381757    12.000000000000
         H           -1.222364814256    -2.164062803946    -0.009431618243     1.007825032230
         H           -1.222483814256     2.167798196054    -0.009443618243     1.007825032230
         H            2.489766185744     0.001970196054    -0.019599618243     1.007825032230
         H           -3.193866814256     0.830458196054    -0.459206618243     1.007825032230
         H           -3.193825814256    -0.826692803946    -0.459453618243     1.007825032230
         H           -3.180953814256     0.001669196054     0.979414381757     1.007825032230
         H            0.879747185744     3.362493196054    -0.323200618243     1.007825032230
         H            1.837625185744     2.751461196054     1.033345381757     1.007825032230
         H            2.378100185744     2.469480196054    -0.624595618243     1.007825032230
         H            2.378069185744    -2.465632803946    -0.624852618243     1.007825032230
         H            0.879853185744    -3.358690803946    -0.322906618243     1.007825032230
         H            1.838070185744    -2.747390803946     1.033279381757     1.007825032230

  Basis Set: AUG-CC-PVTZ
    Blend: AUG-CC-PVTZ
  Basis Set: (AUG-CC-PVTZ AUX)
    Blend: AUG-CC-PVTZ-JKFIT
	 Reference Energy          =    -364.2919005664619476 [Eh]
	 Singles Energy            =      -0.0000000000000000 [Eh]
	 Same-Spin Energy          =      -0.3971230479469468 [Eh]
	 Opposite-Spin Energy      =      -1.3054119963784316 [Eh]
	 Correlation Energy        =      -1.7025350443253784 [Eh]
	 Total Energy              =    -365.9944356107873205 [Eh]

	 ================> DF-SCS-MP2 Energies <==================
	-----------------------------------------------------------
	 SCS Same-Spin Scale       =       0.3333333333333333 [-]
	 SCS Opposite-Spin Scale   =       1.2000000000000000 [-]
	 SCS Same-Spin Energy      =      -0.1323743493156489 [Eh]
	 SCS Opposite-Spin Energy  =      -1.5664943956541180 [Eh]
	 SCS Correlation Energy    =      -1.6988687449697668 [Eh]
	 SCS Total Energy          =    -365.9907693114317340 [Eh]
	-----------------------------------------------------------

  Dipole Moment: [D]
     X:    -8.3897      Y:     0.0061      Z:     0.1946     Total:     8.3920

*** Psi4 exiting successfully. Buy a developer a beer!
