                               Psi4 1.4a3.dev225

  ==> Input File <==

--------------------------------------------------------------------------
#psi4
#
memory 32 gb

molecule  {
1 1
  N       -2.8138210    -0.0000810     0.0131690
  C       -1.3233890    -0.0000370    -0.0148680
  C        0.7280520     1.2302730    -0.0129860
  C        0.7281180    -1.2302340    -0.0129780
  C       -0.7597082    -1.2688480    -0.0080442
  C       -0.6726490     1.2263940    -0.0069970
  C        1.3988940     0.0000390    -0.0107890
  C        1.4942690     2.5253230     0.0134310
  C        1.4944180    -2.5252350     0.0134270
  H       -1.2241800    -2.1659650    -0.0138510
  H       -1.2242990     2.1658960    -0.0138630
  H        2.4879510     0.0000680    -0.0240190
  H       -3.1956820     0.8285560    -0.4636260
  H       -3.1956410    -0.8285950    -0.4638730
  H       -3.1827690    -0.0002330     0.9749950
  H        0.8779320     3.3605910    -0.3276200
  H        1.8358100     2.7495590     1.0289260
  H        2.3762850     2.4675780    -0.6290150
  H        2.3762540    -2.4675350    -0.6292720
  H        0.8780380    -3.3605930    -0.3273260
  H        1.8362550    -2.7492930     1.0288600
units angstrom
no_reorient  #important for SAPT in psi4, default
symmetry c1  #important for SAPT in psi4, default
}

set PROPERTIES_ORIGIN ["COM"]
properties('MP2/aug-cc-pvtz', properties = ['dipole'])
--------------------------------------------------------------------------

    Molecular point group: c1
  Charge       = 1
  Multiplicity = 1
  Basis Set: AUG-CC-PVTZ
    Blend: AUG-CC-PVTZ
  Basis Set: (AUG-CC-PVTZ AUX)
    Blend: AUG-CC-PVTZ-JKFIT

    Orbital Energies [Eh]
    ---------------------

    Doubly Occupied:

       1A    -15.884467     2A    -11.462563     3A    -11.405863
       4A    -11.398578     5A    -11.395778     6A    -11.391526
       7A    -11.370417     8A    -11.346398     9A    -11.345547
      10A     -1.500940    11A     -1.302508    12A     -1.200664
      13A     -1.182801    14A     -1.087836    15A     -1.070860
      16A     -0.985750    17A     -0.961365    18A     -0.947173
      19A     -0.909920    20A     -0.860634    21A     -0.822227
      22A     -0.790234    23A     -0.738187    24A     -0.715720
      25A     -0.709454    26A     -0.690666    27A     -0.680438
      28A     -0.657419    29A     -0.634029    30A     -0.632457
      31A     -0.630534    32A     -0.489764    33A     -0.467582

  @DF-RHF Final Energy:  -364.28132338051563

   => Energetics <=

    Nuclear Repulsion Energy =            431.0586562969918418
    One-Electron Energy =               -1335.3393621996140155
    Two-Electron Energy =                 539.9993825221065435
    Total Energy =                       -364.2813233805156869
  Basis Set: (AUG-CC-PVTZ AUX)
    Blend: AUG-CC-PVTZ-RI
    Molecular point group: c1

    Geometry (in Angstrom), charge = 1, multiplicity = 1:

       Center              X                  Y                   Z               Mass
    ------------   -----------------  -----------------  -----------------  -----------------
         N           -2.799937957477     0.004087817331     0.014412519276    14.003074004430
         C           -1.309505957477     0.004131817331    -0.013624480724    12.000000000000
         C            0.741935042523     1.234441817331    -0.011742480724    12.000000000000
         C            0.742001042523    -1.226065182669    -0.011734480724    12.000000000000
         C           -0.745825157477    -1.264679182669    -0.006800680724    12.000000000000
         C           -0.658765957477     1.230562817331    -0.005753480724    12.000000000000
         C            1.412777042523     0.004207817331    -0.009545480724    12.000000000000
         C            1.508152042523     2.529491817331     0.014674519276    12.000000000000
         C            1.508301042523    -2.521066182669     0.014670519276    12.000000000000
         H           -1.210296957477    -2.161796182669    -0.012607480724     1.007825032230
         H           -1.210415957477     2.170064817331    -0.012619480724     1.007825032230
         H            2.501834042523     0.004236817331    -0.022775480724     1.007825032230
         H           -3.181798957477     0.832724817331    -0.462382480724     1.007825032230
         H           -3.181757957477    -0.824426182669    -0.462629480724     1.007825032230
         H           -3.168885957477     0.003935817331     0.976238519276     1.007825032230
         H            0.891815042523     3.364759817331    -0.326376480724     1.007825032230
         H            1.849693042523     2.753727817331     1.030169519276     1.007825032230
         H            2.390168042523     2.471746817331    -0.627771480724     1.007825032230
         H            2.390137042523    -2.463366182669    -0.628028480724     1.007825032230
         H            0.891921042523    -3.356424182669    -0.326082480724     1.007825032230
         H            1.850138042523    -2.745124182669     1.030103519276     1.007825032230

  Basis Set: AUG-CC-PVTZ
    Blend: AUG-CC-PVTZ
  Basis Set: (AUG-CC-PVTZ AUX)
    Blend: AUG-CC-PVTZ-JKFIT
	 Reference Energy          =    -364.2813233805156301 [Eh]
	 Singles Energy            =      -0.0000000000000000 [Eh]
	 Same-Spin Energy          =      -0.3971517173033289 [Eh]
	 Opposite-Spin Energy      =      -1.3061200858868083 [Eh]
	 Correlation Energy        =      -1.7032718031901370 [Eh]
	 Total Energy              =    -365.9845951837057783 [Eh]

	 ================> DF-SCS-MP2 Energies <==================
	-----------------------------------------------------------
	 SCS Same-Spin Scale       =       0.3333333333333333 [-]
	 SCS Opposite-Spin Scale   =       1.2000000000000000 [-]
	 SCS Same-Spin Energy      =      -0.1323839057677763 [Eh]
	 SCS Opposite-Spin Energy  =      -1.5673441030641699 [Eh]
	 SCS Correlation Energy    =      -1.6997280088319462 [Eh]
	 SCS Total Energy          =    -365.9810513893475559 [Eh]
	-----------------------------------------------------------

  Dipole Moment: [D]
     X:    -8.2271      Y:     0.0149      Z:     0.1730     Total:     8.2289

*** Psi4 exiting successfully. Buy a developer a beer!
