                               Psi4 1.4a3.dev225

  ==> Input File <==

--------------------------------------------------------------------------
#psi4
#
memory 32 gb

molecule  {
1 1
  N       -2.8138210    -0.0000810     0.0131690
  C       -1.3233890    -0.0000370    -0.0148680
  C        0.7280520     1.2302730    -0.0129860
  C        0.7281180    -1.2302340    -0.0129780
  C       -0.6725800    -1.2264340    -0.0069900
  C       -0.6726490     1.2263940    -0.0069970
  C        1.4946429    -0.1755516    -0.0104754
  C        1.4942690     2.5253230     0.0134310
  C        1.4944180    -2.5252350     0.0134270
  H       -1.2241800    -2.1659650    -0.0138510
  H       -1.2242990     2.1658960    -0.0138630
  H        2.4879510     0.0000680    -0.0240190
  H       -3.1956820     0.8285560    -0.4636260
  H       -3.1956410    -0.8285950    -0.4638730
  H       -3.1827690    -0.0002330     0.9749950
  H        0.8779320     3.3605910    -0.3276200
  H        1.8358100     2.7495590     1.0289260
  H        2.3762850     2.4675780    -0.6290150
  H        2.3762540    -2.4675350    -0.6292720
  H        0.8780380    -3.3605930    -0.3273260
  H        1.8362550    -2.7492930     1.0288600
units angstrom
no_reorient  #important for SAPT in psi4, default
symmetry c1  #important for SAPT in psi4, default
}

set PROPERTIES_ORIGIN ["COM"]
properties('MP2/aug-cc-pvtz', properties = ['dipole'])
--------------------------------------------------------------------------

    Molecular point group: c1
  Charge       = 1
  Multiplicity = 1
  Basis Set: AUG-CC-PVTZ
    Blend: AUG-CC-PVTZ
  Basis Set: (AUG-CC-PVTZ AUX)
    Blend: AUG-CC-PVTZ-JKFIT

    Orbital Energies [Eh]
    ---------------------

    Doubly Occupied:

       1A    -15.889661     2A    -11.462068     3A    -11.413724
       4A    -11.398567     5A    -11.388461     6A    -11.378858
       7A    -11.372976     8A    -11.348527     9A    -11.337746
      10A     -1.503633    11A     -1.304896    12A     -1.209727
      13A     -1.178396    14A     -1.085802    15A     -1.062760
      16A     -0.995649    17A     -0.963215    18A     -0.950607
      19A     -0.900827    20A     -0.855745    21A     -0.837111
      22A     -0.793368    23A     -0.725682    24A     -0.714227
      25A     -0.708867    26A     -0.693909    27A     -0.690378
      28A     -0.657038    29A     -0.653585    30A     -0.632181
      31A     -0.587493    32A     -0.497685    33A     -0.462808

  @DF-RHF Final Energy:  -364.25225102438321

   => Energetics <=

    Nuclear Repulsion Energy =            431.0287033027770462
    One-Electron Energy =               -1335.2495614564056723
    Two-Electron Energy =                 539.9686071292453562
    Total Energy =                       -364.2522510243832130
  Basis Set: (AUG-CC-PVTZ AUX)
    Blend: AUG-CC-PVTZ-RI
    Molecular point group: c1

    Geometry (in Angstrom), charge = 1, multiplicity = 1:

       Center              X                  Y                   Z               Mass
    ------------   -----------------  -----------------  -----------------  -----------------
         N           -2.817911582221     0.017176751009     0.014278088427    14.003074004430
         C           -1.327479582221     0.017220751009    -0.013758911573    12.000000000000
         C            0.723961417779     1.247530751009    -0.011876911573    12.000000000000
         C            0.724027417779    -1.212976248991    -0.011868911573    12.000000000000
         C           -0.676670582221    -1.209176248991    -0.005880911573    12.000000000000
         C           -0.676739582221     1.243651751009    -0.005887911573    12.000000000000
         C            1.490552317779    -0.158293848991    -0.009366311573    12.000000000000
         C            1.490178417779     2.542580751009     0.014540088427    12.000000000000
         C            1.490327417779    -2.507977248991     0.014536088427    12.000000000000
         H           -1.228270582221    -2.148707248991    -0.012741911573     1.007825032230
         H           -1.228389582221     2.183153751009    -0.012753911573     1.007825032230
         H            2.483860417779     0.017325751009    -0.022909911573     1.007825032230
         H           -3.199772582221     0.845813751009    -0.462516911573     1.007825032230
         H           -3.199731582221    -0.811337248991    -0.462763911573     1.007825032230
         H           -3.186859582221     0.017024751009     0.976104088427     1.007825032230
         H            0.873841417779     3.377848751009    -0.326510911573     1.007825032230
         H            1.831719417779     2.766816751009     1.030035088427     1.007825032230
         H            2.372194417779     2.484835751009    -0.627905911573     1.007825032230
         H            2.372163417779    -2.450277248991    -0.628162911573     1.007825032230
         H            0.873947417779    -3.343335248991    -0.326216911573     1.007825032230
         H            1.832164417779    -2.732035248991     1.029969088427     1.007825032230

  Basis Set: AUG-CC-PVTZ
    Blend: AUG-CC-PVTZ
  Basis Set: (AUG-CC-PVTZ AUX)
    Blend: AUG-CC-PVTZ-JKFIT
	 Reference Energy          =    -364.2522510243832130 [Eh]
	 Singles Energy            =      -0.0000000000000000 [Eh]
	 Same-Spin Energy          =      -0.3966698210110365 [Eh]
	 Opposite-Spin Energy      =      -1.3071885555500915 [Eh]
	 Correlation Energy        =      -1.7038583765611279 [Eh]
	 Total Energy              =    -365.9561094009443423 [Eh]

	 ================> DF-SCS-MP2 Energies <==================
	-----------------------------------------------------------
	 SCS Same-Spin Scale       =       0.3333333333333333 [-]
	 SCS Opposite-Spin Scale   =       1.2000000000000000 [-]
	 SCS Same-Spin Energy      =      -0.1322232736703455 [Eh]
	 SCS Opposite-Spin Energy  =      -1.5686262666601098 [Eh]
	 SCS Correlation Energy    =      -1.7008495403304553 [Eh]
	 SCS Total Energy          =    -365.9531005647136794 [Eh]
	-----------------------------------------------------------

  Dipole Moment: [D]
     X:    -8.4077      Y:     0.2902      Z:     0.1700     Total:     8.4145

*** Psi4 exiting successfully. Buy a developer a beer!
