                               Psi4 1.4a3.dev225

  ==> Input File <==

--------------------------------------------------------------------------
#psi4
#
memory 32 gb

molecule  {
1 1
  N       -2.8138210    -0.0000810     0.0131690
  C       -1.3233890    -0.0000370    -0.0148680
  C        0.7280520     1.2302730    -0.0129860
  C        0.7281180    -1.2302340    -0.0129780
  C       -0.8725774    -1.2258914    -0.0061350
  C       -0.6726490     1.2263940    -0.0069970
  C        1.3988940     0.0000390    -0.0107890
  C        1.4942690     2.5253230     0.0134310
  C        1.4944180    -2.5252350     0.0134270
  H       -1.2241800    -2.1659650    -0.0138510
  H       -1.2242990     2.1658960    -0.0138630
  H        2.4879510     0.0000680    -0.0240190
  H       -3.1956820     0.8285560    -0.4636260
  H       -3.1956410    -0.8285950    -0.4638730
  H       -3.1827690    -0.0002330     0.9749950
  H        0.8779320     3.3605910    -0.3276200
  H        1.8358100     2.7495590     1.0289260
  H        2.3762850     2.4675780    -0.6290150
  H        2.3762540    -2.4675350    -0.6292720
  H        0.8780380    -3.3605930    -0.3273260
  H        1.8362550    -2.7492930     1.0288600
units angstrom
no_reorient  #important for SAPT in psi4, default
symmetry c1  #important for SAPT in psi4, default
}

set PROPERTIES_ORIGIN ["COM"]
properties('MP2/aug-cc-pvtz', properties = ['dipole'])
--------------------------------------------------------------------------

    Molecular point group: c1
  Charge       = 1
  Multiplicity = 1
  Basis Set: AUG-CC-PVTZ
    Blend: AUG-CC-PVTZ
  Basis Set: (AUG-CC-PVTZ AUX)
    Blend: AUG-CC-PVTZ-JKFIT

    Orbital Energies [Eh]
    ---------------------

    Doubly Occupied:

       1A    -15.879382     2A    -11.457798     3A    -11.415797
       4A    -11.401765     5A    -11.395791     6A    -11.385386
       7A    -11.368084     8A    -11.348994     9A    -11.347073
      10A     -1.501263    11A     -1.302394    12A     -1.203580
      13A     -1.185177    14A     -1.094077    15A     -1.071271
      16A     -0.981241    17A     -0.957177    18A     -0.945089
      19A     -0.908393    20A     -0.869398    21A     -0.819684
      22A     -0.794423    23A     -0.736998    24A     -0.713157
      25A     -0.709719    26A     -0.691580    27A     -0.681080
      28A     -0.659294    29A     -0.638901    30A     -0.635194
      31A     -0.614713    32A     -0.501174    33A     -0.458671

  @DF-RHF Final Energy:  -364.25301552118503

   => Energetics <=

    Nuclear Repulsion Energy =            431.0178797651000764
    One-Electron Energy =               -1335.1943553625253571
    Two-Electron Energy =                 539.9234600762401897
    Total Energy =                       -364.2530155211850342
  Basis Set: (AUG-CC-PVTZ AUX)
    Blend: AUG-CC-PVTZ-RI
    Molecular point group: c1

    Geometry (in Angstrom), charge = 1, multiplicity = 1:

       Center              X                  Y                   Z               Mass
    ------------   -----------------  -----------------  -----------------  -----------------
         N           -2.788844886525    -0.000134066156     0.014224878263    14.003074004430
         C           -1.298412886525    -0.000090066156    -0.013812121737    12.000000000000
         C            0.753028113475     1.230219933844    -0.011930121737    12.000000000000
         C            0.753094113475    -1.230287066156    -0.011922121737    12.000000000000
         C           -0.847601286525    -1.225944466156    -0.005079121737    12.000000000000
         C           -0.647672886525     1.226340933844    -0.005941121737    12.000000000000
         C            1.423870113475    -0.000014066156    -0.009733121737    12.000000000000
         C            1.519245113475     2.525269933844     0.014486878263    12.000000000000
         C            1.519394113475    -2.525288066156     0.014482878263    12.000000000000
         H           -1.199203886525    -2.166018066156    -0.012795121737     1.007825032230
         H           -1.199322886525     2.165842933844    -0.012807121737     1.007825032230
         H            2.512927113475     0.000014933844    -0.022963121737     1.007825032230
         H           -3.170705886525     0.828502933844    -0.462570121737     1.007825032230
         H           -3.170664886525    -0.828648066156    -0.462817121737     1.007825032230
         H           -3.157792886525    -0.000286066156     0.976050878263     1.007825032230
         H            0.902908113475     3.360537933844    -0.326564121737     1.007825032230
         H            1.860786113475     2.749505933844     1.029981878263     1.007825032230
         H            2.401261113475     2.467524933844    -0.627959121737     1.007825032230
         H            2.401230113475    -2.467588066156    -0.628216121737     1.007825032230
         H            0.903014113475    -3.360646066156    -0.326270121737     1.007825032230
         H            1.861231113475    -2.749346066156     1.029915878263     1.007825032230

  Basis Set: AUG-CC-PVTZ
    Blend: AUG-CC-PVTZ
  Basis Set: (AUG-CC-PVTZ AUX)
    Blend: AUG-CC-PVTZ-JKFIT
	 Reference Energy          =    -364.2530155211850342 [Eh]
	 Singles Energy            =      -0.0000000000000000 [Eh]
	 Same-Spin Energy          =      -0.3968356025375466 [Eh]
	 Opposite-Spin Energy      =      -1.3070638786112525 [Eh]
	 Correlation Energy        =      -1.7038994811487991 [Eh]
	 Total Energy              =    -365.9569150023338580 [Eh]

	 ================> DF-SCS-MP2 Energies <==================
	-----------------------------------------------------------
	 SCS Same-Spin Scale       =       0.3333333333333333 [-]
	 SCS Opposite-Spin Scale   =       1.2000000000000000 [-]
	 SCS Same-Spin Energy      =      -0.1322785341791822 [Eh]
	 SCS Opposite-Spin Energy  =      -1.5684766543335029 [Eh]
	 SCS Correlation Energy    =      -1.7007551885126850 [Eh]
	 SCS Total Energy          =    -365.9537707096977215 [Eh]
	-----------------------------------------------------------

  Dipole Moment: [D]
     X:    -8.0274      Y:    -0.0923      Z:     0.1719     Total:     8.0298

*** Psi4 exiting successfully. Buy a developer a beer!
