                               Psi4 1.4a3.dev225

  ==> Input File <==

--------------------------------------------------------------------------
#psi4
#
memory 32 gb

molecule  {
1 1
  N       -2.8138210    -0.0000810     0.0131690
  C       -1.3233890    -0.0000370    -0.0148680
  C        0.7280520     1.2302730    -0.0129860
  C        0.7281180    -1.2302340    -0.0129780
  C       -0.6525803    -1.2264883    -0.0070755
  C       -0.6726490     1.2263940    -0.0069970
  C        1.3988940     0.0000390    -0.0107890
  C        1.4942690     2.5253230     0.0134310
  C        1.4944180    -2.5252350     0.0134270
  H       -1.2241800    -2.1659650    -0.0138510
  H       -1.2242990     2.1658960    -0.0138630
  H        2.4879510     0.0000680    -0.0240190
  H       -3.1956820     0.8285560    -0.4636260
  H       -3.1956410    -0.8285950    -0.4638730
  H       -3.1827690    -0.0002330     0.9749950
  H        0.8779320     3.3605910    -0.3276200
  H        1.8358100     2.7495590     1.0289260
  H        2.3762850     2.4675780    -0.6290150
  H        2.3762540    -2.4675350    -0.6292720
  H        0.8780380    -3.3605930    -0.3273260
  H        1.8362550    -2.7492930     1.0288600
units angstrom
no_reorient  #important for SAPT in psi4, default
symmetry c1  #important for SAPT in psi4, default
}

set PROPERTIES_ORIGIN ["COM"]
properties('MP2/aug-cc-pvtz', properties = ['dipole'])
--------------------------------------------------------------------------

    Molecular point group: c1
  Charge       = 1
  Multiplicity = 1
  Basis Set: AUG-CC-PVTZ
    Blend: AUG-CC-PVTZ
  Basis Set: (AUG-CC-PVTZ AUX)
    Blend: AUG-CC-PVTZ-JKFIT

    Orbital Energies [Eh]
    ---------------------

    Doubly Occupied:

       1A    -15.889529     2A    -11.459116     3A    -11.395153
       4A    -11.393779     5A    -11.393505     6A    -11.391470
       7A    -11.371986     8A    -11.344804     9A    -11.344579
      10A     -1.502722    11A     -1.310332    12A     -1.206397
      13A     -1.180880    14A     -1.082021    15A     -1.070301
      16A     -0.990314    17A     -0.966645    18A     -0.950076
      19A     -0.907640    20A     -0.855344    21A     -0.820911
      22A     -0.795042    23A     -0.723383    24A     -0.714045
      25A     -0.710991    26A     -0.690271    27A     -0.678958
      28A     -0.656322    29A     -0.642438    30A     -0.634407
      31A     -0.627359    32A     -0.485665    33A     -0.476739

  @DF-RHF Final Energy:  -364.29392101800562

   => Energetics <=

    Nuclear Repulsion Energy =            432.4965487013924417
    One-Electron Energy =               -1338.2546884052162568
    Two-Electron Energy =                 541.4642186858181958
    Total Energy =                       -364.2939210180056762
  Basis Set: (AUG-CC-PVTZ AUX)
    Blend: AUG-CC-PVTZ-RI
    Molecular point group: c1

    Geometry (in Angstrom), charge = 1, multiplicity = 1:

       Center              X                  Y                   Z               Mass
    ------------   -----------------  -----------------  -----------------  -----------------
         N           -2.810466758919    -0.000075401311     0.014317312986    14.003074004430
         C           -1.320034758919    -0.000031401311    -0.013719687014    12.000000000000
         C            0.731406241081     1.230278598689    -0.011837687014    12.000000000000
         C            0.731472241081    -1.230228401311    -0.011829687014    12.000000000000
         C           -0.649226058919    -1.226482701311    -0.005927187014    12.000000000000
         C           -0.669294758919     1.226399598689    -0.005848687014    12.000000000000
         C            1.402248241081     0.000044598689    -0.009640687014    12.000000000000
         C            1.497623241081     2.525328598689     0.014579312986    12.000000000000
         C            1.497772241081    -2.525229401311     0.014575312986    12.000000000000
         H           -1.220825758919    -2.165959401311    -0.012702687014     1.007825032230
         H           -1.220944758919     2.165901598689    -0.012714687014     1.007825032230
         H            2.491305241081     0.000073598689    -0.022870687014     1.007825032230
         H           -3.192327758919     0.828561598689    -0.462477687014     1.007825032230
         H           -3.192286758919    -0.828589401311    -0.462724687014     1.007825032230
         H           -3.179414758919    -0.000227401311     0.976143312986     1.007825032230
         H            0.881286241081     3.360596598689    -0.326471687014     1.007825032230
         H            1.839164241081     2.749564598689     1.030074312986     1.007825032230
         H            2.379639241081     2.467583598689    -0.627866687014     1.007825032230
         H            2.379608241081    -2.467529401311    -0.628123687014     1.007825032230
         H            0.881392241081    -3.360587401311    -0.326177687014     1.007825032230
         H            1.839609241081    -2.749287401311     1.030008312986     1.007825032230

  Basis Set: AUG-CC-PVTZ
    Blend: AUG-CC-PVTZ
  Basis Set: (AUG-CC-PVTZ AUX)
    Blend: AUG-CC-PVTZ-JKFIT
	 Reference Energy          =    -364.2939210180056193 [Eh]
	 Singles Energy            =      -0.0000000000000000 [Eh]
	 Same-Spin Energy          =      -0.3971705914960456 [Eh]
	 Opposite-Spin Energy      =      -1.3053536716063538 [Eh]
	 Correlation Energy        =      -1.7025242631023993 [Eh]
	 Total Energy              =    -365.9964452811080378 [Eh]

	 ================> DF-SCS-MP2 Energies <==================
	-----------------------------------------------------------
	 SCS Same-Spin Scale       =       0.3333333333333333 [-]
	 SCS Opposite-Spin Scale   =       1.2000000000000000 [-]
	 SCS Same-Spin Energy      =      -0.1323901971653485 [Eh]
	 SCS Opposite-Spin Energy  =      -1.5664244059276247 [Eh]
	 SCS Correlation Energy    =      -1.6988146030929732 [Eh]
	 SCS Total Energy          =    -365.9927356210985749 [Eh]
	-----------------------------------------------------------

  Dipole Moment: [D]
     X:    -8.3947      Y:     0.0133      Z:     0.1700     Total:     8.3964

*** Psi4 exiting successfully. Buy a developer a beer!
