                               Psi4 1.4a3.dev225

  ==> Input File <==

--------------------------------------------------------------------------
#psi4
#
memory 32 gb

molecule  {
1 1
  N       -2.8138210    -0.0000810     0.0131690
  C       -1.3233890    -0.0000370    -0.0148680
  C        0.7280520     1.2302730    -0.0129860
  C        0.7281180    -1.2302340    -0.0129780
  C       -0.6725800    -1.2264340    -0.0069900
  C       -0.6726490     1.2263940    -0.0069970
  C        1.3988940     0.0000390    -0.0107890
  C        1.4942690     2.5253230     0.0134310
  C        1.4944180    -2.5252350     0.0134270
  H       -1.2748083    -2.2521994    -0.0144807
  H       -1.2242990     2.1658960    -0.0138630
  H        2.4879510     0.0000680    -0.0240190
  H       -3.1956820     0.8285560    -0.4636260
  H       -3.1956410    -0.8285950    -0.4638730
  H       -3.1827690    -0.0002330     0.9749950
  H        0.8779320     3.3605910    -0.3276200
  H        1.8358100     2.7495590     1.0289260
  H        2.3762850     2.4675780    -0.6290150
  H        2.3762540    -2.4675350    -0.6292720
  H        0.8780380    -3.3605930    -0.3273260
  H        1.8362550    -2.7492930     1.0288600
units angstrom
no_reorient  #important for SAPT in psi4, default
symmetry c1  #important for SAPT in psi4, default
}

set PROPERTIES_ORIGIN ["COM"]
properties('MP2/aug-cc-pvtz', properties = ['dipole'])
--------------------------------------------------------------------------

    Molecular point group: c1
  Charge       = 1
  Multiplicity = 1
  Basis Set: AUG-CC-PVTZ
    Blend: AUG-CC-PVTZ
  Basis Set: (AUG-CC-PVTZ AUX)
    Blend: AUG-CC-PVTZ-JKFIT

    Orbital Energies [Eh]
    ---------------------

    Doubly Occupied:

       1A    -15.888397     2A    -11.459775     3A    -11.404630
       4A    -11.395351     5A    -11.395223     6A    -11.393998
       7A    -11.372296     8A    -11.345212     9A    -11.345009
      10A     -1.502234    11A     -1.309296    12A     -1.203795
      13A     -1.182004    14A     -1.080894    15A     -1.070199
      16A     -0.987893    17A     -0.965866    18A     -0.949342
      19A     -0.905689    20A     -0.851503    21A     -0.814198
      22A     -0.795181    23A     -0.718654    24A     -0.711104
      25A     -0.709964    26A     -0.690432    27A     -0.678126
      28A     -0.656444    29A     -0.641303    30A     -0.635067
      31A     -0.627709    32A     -0.486932    33A     -0.475423

  @DF-RHF Final Energy:  -364.28695357750524

   => Energetics <=

    Nuclear Repulsion Energy =            431.8479986341039307
    One-Electron Energy =               -1336.9716161035407822
    Two-Electron Energy =                 540.8366638919314937
    Total Energy =                       -364.2869535775053009
  Basis Set: (AUG-CC-PVTZ AUX)
    Blend: AUG-CC-PVTZ-RI
    Molecular point group: c1

    Geometry (in Angstrom), charge = 1, multiplicity = 1:

       Center              X                  Y                   Z               Mass
    ------------   -----------------  -----------------  -----------------  -----------------
         N           -2.808083236563     0.000631066538     0.014314107562    14.003074004430
         C           -1.317651236563     0.000675066538    -0.013722892438    12.000000000000
         C            0.733789763437     1.230985066538    -0.011840892438    12.000000000000
         C            0.733855763437    -1.229521933462    -0.011832892438    12.000000000000
         C           -0.666842236563    -1.225721933462    -0.005844892438    12.000000000000
         C           -0.666911236563     1.227106066538    -0.005851892438    12.000000000000
         C            1.404631763437     0.000751066538    -0.009643892438    12.000000000000
         C            1.500006763437     2.526035066538     0.014576107562    12.000000000000
         C            1.500155763437    -2.524522933462     0.014572107562    12.000000000000
         H           -1.269070536563    -2.251487333462    -0.013335592438     1.007825032230
         H           -1.218561236563     2.166608066538    -0.012717892438     1.007825032230
         H            2.493688763437     0.000780066538    -0.022873892438     1.007825032230
         H           -3.189944236563     0.829268066538    -0.462480892438     1.007825032230
         H           -3.189903236563    -0.827882933462    -0.462727892438     1.007825032230
         H           -3.177031236563     0.000479066538     0.976140107562     1.007825032230
         H            0.883669763437     3.361303066538    -0.326474892438     1.007825032230
         H            1.841547763437     2.750271066538     1.030071107562     1.007825032230
         H            2.382022763437     2.468290066538    -0.627869892438     1.007825032230
         H            2.381991763437    -2.466822933462    -0.628126892438     1.007825032230
         H            0.883775763437    -3.359880933462    -0.326180892438     1.007825032230
         H            1.841992763437    -2.748580933462     1.030005107562     1.007825032230

  Basis Set: AUG-CC-PVTZ
    Blend: AUG-CC-PVTZ
  Basis Set: (AUG-CC-PVTZ AUX)
    Blend: AUG-CC-PVTZ-JKFIT
	 Reference Energy          =    -364.2869535775052441 [Eh]
	 Singles Energy            =      -0.0000000000000000 [Eh]
	 Same-Spin Energy          =      -0.3974588218180320 [Eh]
	 Opposite-Spin Energy      =      -1.3062860042637885 [Eh]
	 Correlation Energy        =      -1.7037448260818207 [Eh]
	 Total Energy              =    -365.9906984035870892 [Eh]

	 ================> DF-SCS-MP2 Energies <==================
	-----------------------------------------------------------
	 SCS Same-Spin Scale       =       0.3333333333333333 [-]
	 SCS Opposite-Spin Scale   =       1.2000000000000000 [-]
	 SCS Same-Spin Energy      =      -0.1324862739393440 [Eh]
	 SCS Opposite-Spin Energy  =      -1.5675432051165461 [Eh]
	 SCS Correlation Energy    =      -1.7000294790558901 [Eh]
	 SCS Total Energy          =    -365.9869830565611437 [Eh]
	-----------------------------------------------------------

  Dipole Moment: [D]
     X:    -8.3407      Y:     0.0041      Z:     0.1715     Total:     8.3425

*** Psi4 exiting successfully. Buy a developer a beer!
