                               Psi4 1.4a3.dev225

  ==> Input File <==

--------------------------------------------------------------------------
#psi4
#
memory 32 gb

molecule  {
1 1
  N       -2.8138210    -0.0000810     0.0131690
  C       -1.3233890    -0.0000370    -0.0148680
  C        0.7280520     1.2302730    -0.0129860
  C        0.7281180    -1.2302340    -0.0129780
  C       -0.6725800    -1.2264340    -0.0069900
  C       -0.6726490     1.2263940    -0.0069970
  C        1.3988940     0.0000390    -0.0107890
  C        1.4942690     2.5253230     0.0134310
  C        1.4944180    -2.5252350     0.0134270
  H       -1.2241800    -2.1659650    -0.0138510
  H       -1.2496155     2.2090119    -0.0141781
  H        2.4879510     0.0000680    -0.0240190
  H       -3.1956820     0.8285560    -0.4636260
  H       -3.1956410    -0.8285950    -0.4638730
  H       -3.1827690    -0.0002330     0.9749950
  H        0.8779320     3.3605910    -0.3276200
  H        1.8358100     2.7495590     1.0289260
  H        2.3762850     2.4675780    -0.6290150
  H        2.3762540    -2.4675350    -0.6292720
  H        0.8780380    -3.3605930    -0.3273260
  H        1.8362550    -2.7492930     1.0288600
units angstrom
no_reorient  #important for SAPT in psi4, default
symmetry c1  #important for SAPT in psi4, default
}

set PROPERTIES_ORIGIN ["COM"]
properties('MP2/aug-cc-pvtz', properties = ['dipole'])
--------------------------------------------------------------------------

    Molecular point group: c1
  Charge       = 1
  Multiplicity = 1
  Basis Set: AUG-CC-PVTZ
    Blend: AUG-CC-PVTZ
  Basis Set: (AUG-CC-PVTZ AUX)
    Blend: AUG-CC-PVTZ-JKFIT

    Orbital Energies [Eh]
    ---------------------

    Doubly Occupied:

       1A    -15.888552     2A    -11.459318     3A    -11.399437
       4A    -11.395006     5A    -11.394821     6A    -11.393739
       7A    -11.371905     8A    -11.345084     9A    -11.344990
      10A     -1.502388    11A     -1.309229    12A     -1.204234
      13A     -1.182003    14A     -1.081852    15A     -1.070286
      16A     -0.988303    17A     -0.965949    18A     -0.949504
      19A     -0.906587    20A     -0.853412    21A     -0.817310
      22A     -0.795015    23A     -0.720356    24A     -0.713866
      25A     -0.710845    26A     -0.690377    27A     -0.678694
      28A     -0.656685    29A     -0.641227    30A     -0.634829
      31A     -0.628165    32A     -0.486665    33A     -0.475191

  @DF-RHF Final Energy:  -364.29187203355849

   => Energetics <=

    Nuclear Repulsion Energy =            432.0863597550046507
    One-Electron Energy =               -1337.4448131590361299
    Two-Electron Energy =                 541.0665813704730454
    Total Energy =                       -364.2918720335584339
  Basis Set: (AUG-CC-PVTZ AUX)
    Blend: AUG-CC-PVTZ-RI
    Molecular point group: c1

    Geometry (in Angstrom), charge = 1, multiplicity = 1:

       Center              X                  Y                   Z               Mass
    ------------   -----------------  -----------------  -----------------  -----------------
         N           -2.808292167749    -0.000436629618     0.014311510759    14.003074004430
         C           -1.317860167749    -0.000392629618    -0.013725489241    12.000000000000
         C            0.733580832251     1.229917370382    -0.011843489241    12.000000000000
         C            0.733646832251    -1.230589629618    -0.011835489241    12.000000000000
         C           -0.667051167749    -1.226789629618    -0.005847489241    12.000000000000
         C           -0.667120167749     1.226038370382    -0.005854489241    12.000000000000
         C            1.404422832251    -0.000316629618    -0.009646489241    12.000000000000
         C            1.499797832251     2.524967370382     0.014573510759    12.000000000000
         C            1.499946832251    -2.525590629618     0.014569510759    12.000000000000
         H           -1.218651167749    -2.166320629618    -0.012708489241     1.007825032230
         H           -1.244086667749     2.208656270382    -0.013035589241     1.007825032230
         H            2.493479832251    -0.000287629618    -0.022876489241     1.007825032230
         H           -3.190153167749     0.828200370382    -0.462483489241     1.007825032230
         H           -3.190112167749    -0.828950629618    -0.462730489241     1.007825032230
         H           -3.177240167749    -0.000588629618     0.976137510759     1.007825032230
         H            0.883460832251     3.360235370382    -0.326477489241     1.007825032230
         H            1.841338832251     2.749203370382     1.030068510759     1.007825032230
         H            2.381813832251     2.467222370382    -0.627872489241     1.007825032230
         H            2.381782832251    -2.467890629618    -0.628129489241     1.007825032230
         H            0.883566832251    -3.360948629618    -0.326183489241     1.007825032230
         H            1.841783832251    -2.749648629618     1.030002510759     1.007825032230

  Basis Set: AUG-CC-PVTZ
    Blend: AUG-CC-PVTZ
  Basis Set: (AUG-CC-PVTZ AUX)
    Blend: AUG-CC-PVTZ-JKFIT
	 Reference Energy          =    -364.2918720335584908 [Eh]
	 Singles Energy            =      -0.0000000000000000 [Eh]
	 Same-Spin Energy          =      -0.3973000520461544 [Eh]
	 Opposite-Spin Energy      =      -1.3057543447789515 [Eh]
	 Correlation Energy        =      -1.7030543968251060 [Eh]
	 Total Energy              =    -365.9949264303836003 [Eh]

	 ================> DF-SCS-MP2 Energies <==================
	-----------------------------------------------------------
	 SCS Same-Spin Scale       =       0.3333333333333333 [-]
	 SCS Opposite-Spin Scale   =       1.2000000000000000 [-]
	 SCS Same-Spin Energy      =      -0.1324333506820515 [Eh]
	 SCS Opposite-Spin Energy  =      -1.5669052137347417 [Eh]
	 SCS Correlation Energy    =      -1.6993385644167931 [Eh]
	 SCS Total Energy          =    -365.9912105979752823 [Eh]
	-----------------------------------------------------------

  Dipole Moment: [D]
     X:    -8.3542      Y:    -0.0016      Z:     0.1708     Total:     8.3559

*** Psi4 exiting successfully. Buy a developer a beer!
