                               Psi4 1.4a3.dev225

  ==> Input File <==

--------------------------------------------------------------------------
#psi4
#
memory 32 gb

molecule  {
1 1
  N       -2.8138210    -0.0000810     0.0131690
  C       -1.3233890    -0.0000370    -0.0148680
  C        0.7280520     1.2302730    -0.0129860
  C        0.7281180    -1.2302340    -0.0129780
  C       -0.6725800    -1.2264340    -0.0069900
  C       -0.6726490     1.2263940    -0.0069970
  C        1.3988940     0.0000390    -0.0107890
  C        1.4942690     2.5253230     0.0134310
  C        1.4944180    -2.5252350     0.0134270
  H       -1.2241800    -2.1659650    -0.0138510
  H       -1.2242990     2.1658960    -0.0138630
  H        2.4879510     0.0000680    -0.0240190
  H       -3.1956820     0.8285560    -0.4636260
  H       -3.1956410    -0.8285950    -0.4638730
  H       -3.1827690    -0.0002330     0.9749950
  H        0.8779320     3.3605910    -0.3276200
  H        1.8358100     2.7495590     1.0289260
  H        2.5377209     2.4570089    -0.7466022
  H        2.3762540    -2.4675350    -0.6292720
  H        0.8780380    -3.3605930    -0.3273260
  H        1.8362550    -2.7492930     1.0288600
units angstrom
no_reorient  #important for SAPT in psi4, default
symmetry c1  #important for SAPT in psi4, default
}

set PROPERTIES_ORIGIN ["COM"]
properties('MP2/aug-cc-pvtz', properties = ['dipole'])
--------------------------------------------------------------------------

    Molecular point group: c1
  Charge       = 1
  Multiplicity = 1
  Basis Set: AUG-CC-PVTZ
    Blend: AUG-CC-PVTZ
  Basis Set: (AUG-CC-PVTZ AUX)
    Blend: AUG-CC-PVTZ-JKFIT

    Orbital Energies [Eh]
    ---------------------

    Doubly Occupied:

       1A    -15.889189     2A    -11.459502     3A    -11.396287
       4A    -11.395179     5A    -11.394790     6A    -11.393983
       7A    -11.371851     8A    -11.366152     9A    -11.345139
      10A     -1.503021    11A     -1.309737    12A     -1.204531
      13A     -1.181549    14A     -1.080778    15A     -1.064608
      16A     -0.988281    17A     -0.964233    18A     -0.950121
      19A     -0.907336    20A     -0.855007    21A     -0.820528
      22A     -0.793880    23A     -0.724896    24A     -0.716065
      25A     -0.708947    26A     -0.688501    27A     -0.673621
      28A     -0.648719    29A     -0.637387    30A     -0.630315
      31A     -0.616496    32A     -0.486020    33A     -0.475086

  @DF-RHF Final Energy:  -364.27390457509796

   => Energetics <=

    Nuclear Repulsion Energy =            431.5692054809735509
    One-Electron Energy =               -1336.4027468261276681
    Two-Electron Energy =                 540.5596367700561586
    Total Energy =                       -364.2739045750979585
  Basis Set: (AUG-CC-PVTZ AUX)
    Blend: AUG-CC-PVTZ-RI
    Molecular point group: c1

    Geometry (in Angstrom), charge = 1, multiplicity = 1:

       Center              X                  Y                   Z               Mass
    ------------   -----------------  -----------------  -----------------  -----------------
         N           -2.809833678048     0.000006502467     0.015279509831    14.003074004430
         C           -1.319401678048     0.000050502467    -0.012757490169    12.000000000000
         C            0.732039321952     1.230360502467    -0.010875490169    12.000000000000
         C            0.732105321952    -1.230146497533    -0.010867490169    12.000000000000
         C           -0.668592678048    -1.226346497533    -0.004879490169    12.000000000000
         C           -0.668661678048     1.226481502467    -0.004886490169    12.000000000000
         C            1.402881321952     0.000126502467    -0.008678490169    12.000000000000
         C            1.498256321952     2.525410502467     0.015541509831    12.000000000000
         C            1.498405321952    -2.525147497533     0.015537509831    12.000000000000
         H           -1.220192678048    -2.165877497533    -0.011740490169     1.007825032230
         H           -1.220311678048     2.165983502467    -0.011752490169     1.007825032230
         H            2.491938321952     0.000155502467    -0.021908490169     1.007825032230
         H           -3.191694678048     0.828643502467    -0.461515490169     1.007825032230
         H           -3.191653678048    -0.828507497533    -0.461762490169     1.007825032230
         H           -3.178781678048    -0.000145497533     0.977105509831     1.007825032230
         H            0.881919321952     3.360678502467    -0.325509490169     1.007825032230
         H            1.839797321952     2.749646502467     1.031036509831     1.007825032230
         H            2.541708221952     2.457096402467    -0.744491690169     1.007825032230
         H            2.380241321952    -2.467447497533    -0.627161490169     1.007825032230
         H            0.882025321952    -3.360505497533    -0.325215490169     1.007825032230
         H            1.840242321952    -2.749205497533     1.030970509831     1.007825032230

  Basis Set: AUG-CC-PVTZ
    Blend: AUG-CC-PVTZ
  Basis Set: (AUG-CC-PVTZ AUX)
    Blend: AUG-CC-PVTZ-JKFIT
	 Reference Energy          =    -364.2739045750979585 [Eh]
	 Singles Energy            =      -0.0000000000000000 [Eh]
	 Same-Spin Energy          =      -0.3972646106790877 [Eh]
	 Opposite-Spin Energy      =      -1.3070046369139441 [Eh]
	 Correlation Energy        =      -1.7042692475930319 [Eh]
	 Total Energy              =    -365.9781738226909624 [Eh]

	 ================> DF-SCS-MP2 Energies <==================
	-----------------------------------------------------------
	 SCS Same-Spin Scale       =       0.3333333333333333 [-]
	 SCS Opposite-Spin Scale   =       1.2000000000000000 [-]
	 SCS Same-Spin Energy      =      -0.1324215368930292 [Eh]
	 SCS Opposite-Spin Energy  =      -1.5684055642967329 [Eh]
	 SCS Correlation Energy    =      -1.7008271011897622 [Eh]
	 SCS Total Energy          =    -365.9747316762877176 [Eh]
	-----------------------------------------------------------

  Dipole Moment: [D]
     X:    -8.4212      Y:    -0.0232      Z:     0.1967     Total:     8.4236

*** Psi4 exiting successfully. Buy a developer a beer!
