                               Psi4 1.4a3.dev225

  ==> Input File <==

--------------------------------------------------------------------------
#psi4
#
memory 32 gb

molecule  {
1 1
  N       -2.8138210    -0.0000810     0.0131690
  C       -1.3233890    -0.0000370    -0.0148680
  C        0.7280520     1.2302730    -0.0129860
  C        0.7281180    -1.2302340    -0.0129780
  C       -0.6725800    -1.2264340    -0.0069900
  C       -0.6726490     1.2263940    -0.0069970
  C        1.4084679     0.0175986    -0.0107578
  C        1.4942690     2.5253230     0.0134310
  C        1.4944180    -2.5252350     0.0134270
  H       -1.2241800    -2.1659650    -0.0138510
  H       -1.2242990     2.1658960    -0.0138630
  H        2.4879510     0.0000680    -0.0240190
  H       -3.1956820     0.8285560    -0.4636260
  H       -3.1956410    -0.8285950    -0.4638730
  H       -3.1827690    -0.0002330     0.9749950
  H        0.8779320     3.3605910    -0.3276200
  H        1.8358100     2.7495590     1.0289260
  H        2.3762850     2.4675780    -0.6290150
  H        2.3762540    -2.4675350    -0.6292720
  H        0.8780380    -3.3605930    -0.3273260
  H        1.8362550    -2.7492930     1.0288600
units angstrom
no_reorient  #important for SAPT in psi4, default
symmetry c1  #important for SAPT in psi4, default
}

set PROPERTIES_ORIGIN ["COM"]
properties('MP2/aug-cc-pvtz', properties = ['dipole'])
--------------------------------------------------------------------------

    Molecular point group: c1
  Charge       = 1
  Multiplicity = 1
  Basis Set: AUG-CC-PVTZ
    Blend: AUG-CC-PVTZ
  Basis Set: (AUG-CC-PVTZ AUX)
    Blend: AUG-CC-PVTZ-JKFIT

    Orbital Energies [Eh]
    ---------------------

    Doubly Occupied:

       1A    -15.888764     2A    -11.459114     3A    -11.397203
       4A    -11.394590     5A    -11.393232     6A    -11.392570
       7A    -11.371786     8A    -11.345429     9A    -11.344161
      10A     -1.502615    11A     -1.308465    12A     -1.204593
      13A     -1.181931    14A     -1.083136    15A     -1.069823
      16A     -0.989482    17A     -0.965675    18A     -0.949722
      19A     -0.906886    20A     -0.855942    21A     -0.822070
      22A     -0.794459    23A     -0.724181    24A     -0.715238
      25A     -0.710416    26A     -0.690242    27A     -0.680435
      28A     -0.656826    29A     -0.642978    30A     -0.634391
      31A     -0.626266    32A     -0.486004    33A     -0.474619

  @DF-RHF Final Energy:  -364.29380932143386

   => Energetics <=

    Nuclear Repulsion Energy =            432.1837545342648923
    One-Electron Energy =               -1337.6286411333667274
    Two-Electron Energy =                 541.1510772776680369
    Total Energy =                       -364.2938093214338551
  Basis Set: (AUG-CC-PVTZ AUX)
    Blend: AUG-CC-PVTZ-RI
    Molecular point group: c1

    Geometry (in Angstrom), charge = 1, multiplicity = 1:

       Center              X                  Y                   Z               Mass
    ------------   -----------------  -----------------  -----------------  -----------------
         N           -2.809442084879    -0.001806540032     0.014305843414    14.003074004430
         C           -1.319010084879    -0.001762540032    -0.013731156586    12.000000000000
         C            0.732430915121     1.228547459968    -0.011849156586    12.000000000000
         C            0.732496915121    -1.231959540032    -0.011841156586    12.000000000000
         C           -0.668201084879    -1.228159540032    -0.005853156586    12.000000000000
         C           -0.668270084879     1.224668459968    -0.005860156586    12.000000000000
         C            1.412846815121     0.015873059968    -0.009620956586    12.000000000000
         C            1.498647915121     2.523597459968     0.014567843414    12.000000000000
         C            1.498796915121    -2.526960540032     0.014563843414    12.000000000000
         H           -1.219801084879    -2.167690540032    -0.012714156586     1.007825032230
         H           -1.219920084879     2.164170459968    -0.012726156586     1.007825032230
         H            2.492329915121    -0.001657540032    -0.022882156586     1.007825032230
         H           -3.191303084879     0.826830459968    -0.462489156586     1.007825032230
         H           -3.191262084879    -0.830320540032    -0.462736156586     1.007825032230
         H           -3.178390084879    -0.001958540032     0.976131843414     1.007825032230
         H            0.882310915121     3.358865459968    -0.326483156586     1.007825032230
         H            1.840188915121     2.747833459968     1.030062843414     1.007825032230
         H            2.380663915121     2.465852459968    -0.627878156586     1.007825032230
         H            2.380632915121    -2.469260540032    -0.628135156586     1.007825032230
         H            0.882416915121    -3.362318540032    -0.326189156586     1.007825032230
         H            1.840633915121    -2.751018540032     1.029996843414     1.007825032230

  Basis Set: AUG-CC-PVTZ
    Blend: AUG-CC-PVTZ
  Basis Set: (AUG-CC-PVTZ AUX)
    Blend: AUG-CC-PVTZ-JKFIT
	 Reference Energy          =    -364.2938093214338551 [Eh]
	 Singles Energy            =      -0.0000000000000000 [Eh]
	 Same-Spin Energy          =      -0.3971285654590311 [Eh]
	 Opposite-Spin Energy      =      -1.3053421858388337 [Eh]
	 Correlation Energy        =      -1.7024707512978647 [Eh]
	 Total Energy              =    -365.9962800727317358 [Eh]

	 ================> DF-SCS-MP2 Energies <==================
	-----------------------------------------------------------
	 SCS Same-Spin Scale       =       0.3333333333333333 [-]
	 SCS Opposite-Spin Scale   =       1.2000000000000000 [-]
	 SCS Same-Spin Energy      =      -0.1323761884863437 [Eh]
	 SCS Opposite-Spin Energy  =      -1.5664106230066004 [Eh]
	 SCS Correlation Energy    =      -1.6987868114929441 [Eh]
	 SCS Total Energy          =    -365.9925961329267921 [Eh]
	-----------------------------------------------------------

  Dipole Moment: [D]
     X:    -8.3665      Y:    -0.0345      Z:     0.1702     Total:     8.3683

*** Psi4 exiting successfully. Buy a developer a beer!
