                               Psi4 1.4a3.dev225

  ==> Input File <==

--------------------------------------------------------------------------
#psi4
#
memory 32 gb

molecule  {
1 1
  N       -2.8138210    -0.0000810     0.0131690
  C       -1.3233890    -0.0000370    -0.0148680
  C        0.7280520     1.2302730    -0.0129860
  C        0.7281180    -1.2302340    -0.0129780
  C       -0.6725800    -1.2264340    -0.0069900
  C       -0.6726490     1.2263940    -0.0069970
  C        1.3510244    -0.0877589    -0.0109452
  C        1.4942690     2.5253230     0.0134310
  C        1.4944180    -2.5252350     0.0134270
  H       -1.2241800    -2.1659650    -0.0138510
  H       -1.2242990     2.1658960    -0.0138630
  H        2.4879510     0.0000680    -0.0240190
  H       -3.1956820     0.8285560    -0.4636260
  H       -3.1956410    -0.8285950    -0.4638730
  H       -3.1827690    -0.0002330     0.9749950
  H        0.8779320     3.3605910    -0.3276200
  H        1.8358100     2.7495590     1.0289260
  H        2.3762850     2.4675780    -0.6290150
  H        2.3762540    -2.4675350    -0.6292720
  H        0.8780380    -3.3605930    -0.3273260
  H        1.8362550    -2.7492930     1.0288600
units angstrom
no_reorient  #important for SAPT in psi4, default
symmetry c1  #important for SAPT in psi4, default
}

set PROPERTIES_ORIGIN ["COM"]
properties('MP2/aug-cc-pvtz', properties = ['dipole'])
--------------------------------------------------------------------------

    Molecular point group: c1
  Charge       = 1
  Multiplicity = 1
  Basis Set: AUG-CC-PVTZ
    Blend: AUG-CC-PVTZ
  Basis Set: (AUG-CC-PVTZ AUX)
    Blend: AUG-CC-PVTZ-JKFIT

    Orbital Energies [Eh]
    ---------------------

    Doubly Occupied:

       1A    -15.888613     2A    -11.458366     3A    -11.402746
       4A    -11.396742     5A    -11.391236     6A    -11.379184
       7A    -11.369256     8A    -11.349023     9A    -11.342699
      10A     -1.502424    11A     -1.314913    12A     -1.209509
      13A     -1.181390    14A     -1.084266    15A     -1.072004
      16A     -0.987231    17A     -0.967125    18A     -0.949555
      19A     -0.911435    20A     -0.856205    21A     -0.812998
      22A     -0.797150    23A     -0.723988    24A     -0.716124
      25A     -0.712815    26A     -0.691189    27A     -0.675274
      28A     -0.657008    29A     -0.646316    30A     -0.636189
      31A     -0.615459    32A     -0.497072    33A     -0.471374

  @DF-RHF Final Energy:  -364.28091365147475

   => Energetics <=

    Nuclear Repulsion Energy =            433.2101361082167159
    One-Electron Energy =               -1339.6483472619827353
    Two-Electron Energy =                 542.1572975022912715
    Total Energy =                       -364.2809136514747479
  Basis Set: (AUG-CC-PVTZ AUX)
    Blend: AUG-CC-PVTZ-RI
    Molecular point group: c1

    Geometry (in Angstrom), charge = 1, multiplicity = 1:

       Center              X                  Y                   Z               Mass
    ------------   -----------------  -----------------  -----------------  -----------------
         N           -2.803796392155     0.008548262012     0.014324261561    14.003074004430
         C           -1.313364392155     0.008592262012    -0.013712738439    12.000000000000
         C            0.738076607845     1.238902262012    -0.011830738439    12.000000000000
         C            0.738142607845    -1.221604737988    -0.011822738439    12.000000000000
         C           -0.662555392155    -1.217804737988    -0.005834738439    12.000000000000
         C           -0.662624392155     1.235023262012    -0.005841738439    12.000000000000
         C            1.361049007845    -0.079129637988    -0.009789938439    12.000000000000
         C            1.504293607845     2.533952262012     0.014586261561    12.000000000000
         C            1.504442607845    -2.516605737988     0.014582261561    12.000000000000
         H           -1.214155392155    -2.157335737988    -0.012695738439     1.007825032230
         H           -1.214274392155     2.174525262012    -0.012707738439     1.007825032230
         H            2.497975607845     0.008697262012    -0.022863738439     1.007825032230
         H           -3.185657392155     0.837185262012    -0.462470738439     1.007825032230
         H           -3.185616392155    -0.819965737988    -0.462717738439     1.007825032230
         H           -3.172744392155     0.008396262012     0.976150261561     1.007825032230
         H            0.887956607845     3.369220262012    -0.326464738439     1.007825032230
         H            1.845834607845     2.758188262012     1.030081261561     1.007825032230
         H            2.386309607845     2.476207262012    -0.627859738439     1.007825032230
         H            2.386278607845    -2.458905737988    -0.628116738439     1.007825032230
         H            0.888062607845    -3.351963737988    -0.326170738439     1.007825032230
         H            1.846279607845    -2.740663737988     1.030015261561     1.007825032230

  Basis Set: AUG-CC-PVTZ
    Blend: AUG-CC-PVTZ
  Basis Set: (AUG-CC-PVTZ AUX)
    Blend: AUG-CC-PVTZ-JKFIT
	 Reference Energy          =    -364.2809136514747479 [Eh]
	 Singles Energy            =      -0.0000000000000000 [Eh]
	 Same-Spin Energy          =      -0.3970957435630055 [Eh]
	 Opposite-Spin Energy      =      -1.3056666351702102 [Eh]
	 Correlation Energy        =      -1.7027623787332158 [Eh]
	 Total Energy              =    -365.9836760302079597 [Eh]

	 ================> DF-SCS-MP2 Energies <==================
	-----------------------------------------------------------
	 SCS Same-Spin Scale       =       0.3333333333333333 [-]
	 SCS Opposite-Spin Scale   =       1.2000000000000000 [-]
	 SCS Same-Spin Energy      =      -0.1323652478543351 [Eh]
	 SCS Opposite-Spin Energy  =      -1.5667999622042521 [Eh]
	 SCS Correlation Energy    =      -1.6991652100585872 [Eh]
	 SCS Total Energy          =    -365.9800788615333431 [Eh]
	-----------------------------------------------------------

  Dipole Moment: [D]
     X:    -8.3870      Y:     0.1780      Z:     0.1698     Total:     8.3906

*** Psi4 exiting successfully. Buy a developer a beer!
