                               Psi4 1.4a3.dev225

  ==> Input File <==

--------------------------------------------------------------------------
#psi4
#
memory 32 gb

molecule  {
1 1
  N       -2.8138210    -0.0000810     0.0131690
  C       -1.3344844    -0.0000143    -0.1705070
  C        0.7280520     1.2302730    -0.0129860
  C        0.7281180    -1.2302340    -0.0129780
  C       -0.6725800    -1.2264340    -0.0069900
  C       -0.6726490     1.2263940    -0.0069970
  C        1.3988940     0.0000390    -0.0107890
  C        1.4942690     2.5253230     0.0134310
  C        1.4944180    -2.5252350     0.0134270
  H       -1.2241800    -2.1659650    -0.0138510
  H       -1.2242990     2.1658960    -0.0138630
  H        2.4879510     0.0000680    -0.0240190
  H       -3.1956820     0.8285560    -0.4636260
  H       -3.1956410    -0.8285950    -0.4638730
  H       -3.1827690    -0.0002330     0.9749950
  H        0.8779320     3.3605910    -0.3276200
  H        1.8358100     2.7495590     1.0289260
  H        2.3762850     2.4675780    -0.6290150
  H        2.3762540    -2.4675350    -0.6292720
  H        0.8780380    -3.3605930    -0.3273260
  H        1.8362550    -2.7492930     1.0288600
units angstrom
no_reorient  #important for SAPT in psi4, default
symmetry c1  #important for SAPT in psi4, default
}

set PROPERTIES_ORIGIN ["COM"]
properties('MP2/aug-cc-pvtz', properties = ['dipole'])
--------------------------------------------------------------------------

    Molecular point group: c1
  Charge       = 1
  Multiplicity = 1
  Basis Set: AUG-CC-PVTZ
    Blend: AUG-CC-PVTZ
  Basis Set: (AUG-CC-PVTZ AUX)
    Blend: AUG-CC-PVTZ-JKFIT

    Orbital Energies [Eh]
    ---------------------

    Doubly Occupied:

       1A    -15.887039     2A    -11.459499     3A    -11.397384
       4A    -11.397349     5A    -11.394428     6A    -11.394395
       7A    -11.374953     8A    -11.345309     9A    -11.345309
      10A     -1.500866    11A     -1.307610    12A     -1.204702
      13A     -1.180476    14A     -1.081187    15A     -1.071093
      16A     -0.990428    17A     -0.965390    18A     -0.946716
      19A     -0.907250    20A     -0.852149    21A     -0.821365
      22A     -0.791573    23A     -0.722716    24A     -0.716923
      25A     -0.709597    26A     -0.690807    27A     -0.679884
      28A     -0.656514    29A     -0.643808    30A     -0.630985
      31A     -0.628656    32A     -0.487452    33A     -0.474056

  @DF-RHF Final Energy:  -364.28488060988229

   => Energetics <=

    Nuclear Repulsion Energy =            431.8626319199792079
    One-Electron Energy =               -1336.9792905945005259
    Two-Electron Energy =                 540.8317780646390247
    Total Energy =                       -364.2848806098822934
  Basis Set: (AUG-CC-PVTZ AUX)
    Blend: AUG-CC-PVTZ-RI
    Molecular point group: c1

    Geometry (in Angstrom), charge = 1, multiplicity = 1:

       Center              X                  Y                   Z               Mass
    ------------   -----------------  -----------------  -----------------  -----------------
         N           -2.807410653706    -0.000082969066     0.029605505091    14.003074004430
         C           -1.328074053706    -0.000016269066    -0.154070494909    12.000000000000
         C            0.734462346294     1.230271030934     0.003450505091    12.000000000000
         C            0.734528346294    -1.230235969066     0.003458505091    12.000000000000
         C           -0.666169653706    -1.226435969066     0.009446505091    12.000000000000
         C           -0.666238653706     1.226392030934     0.009439505091    12.000000000000
         C            1.405304346294     0.000037030934     0.005647505091    12.000000000000
         C            1.500679346294     2.525321030934     0.029867505091    12.000000000000
         C            1.500828346294    -2.525236969066     0.029863505091    12.000000000000
         H           -1.217769653706    -2.165966969066     0.002585505091     1.007825032230
         H           -1.217888653706     2.165894030934     0.002573505091     1.007825032230
         H            2.494361346294     0.000066030934    -0.007582494909     1.007825032230
         H           -3.189271653706     0.828554030934    -0.447189494909     1.007825032230
         H           -3.189230653706    -0.828596969066    -0.447436494909     1.007825032230
         H           -3.176358653706    -0.000234969066     0.991431505091     1.007825032230
         H            0.884342346294     3.360589030934    -0.311183494909     1.007825032230
         H            1.842220346294     2.749557030934     1.045362505091     1.007825032230
         H            2.382695346294     2.467576030934    -0.612578494909     1.007825032230
         H            2.382664346294    -2.467536969066    -0.612835494909     1.007825032230
         H            0.884448346294    -3.360594969066    -0.310889494909     1.007825032230
         H            1.842665346294    -2.749294969066     1.045296505091     1.007825032230

  Basis Set: AUG-CC-PVTZ
    Blend: AUG-CC-PVTZ
  Basis Set: (AUG-CC-PVTZ AUX)
    Blend: AUG-CC-PVTZ-JKFIT
	 Reference Energy          =    -364.2848806098822934 [Eh]
	 Singles Energy            =      -0.0000000000000000 [Eh]
	 Same-Spin Energy          =      -0.3976244914670489 [Eh]
	 Opposite-Spin Energy      =      -1.3067615202029979 [Eh]
	 Correlation Energy        =      -1.7043860116700467 [Eh]
	 Total Energy              =    -365.9892666215523604 [Eh]

	 ================> DF-SCS-MP2 Energies <==================
	-----------------------------------------------------------
	 SCS Same-Spin Scale       =       0.3333333333333333 [-]
	 SCS Opposite-Spin Scale   =       1.2000000000000000 [-]
	 SCS Same-Spin Energy      =      -0.1325414971556830 [Eh]
	 SCS Opposite-Spin Energy  =      -1.5681138242435975 [Eh]
	 SCS Correlation Energy    =      -1.7006553213992803 [Eh]
	 SCS Total Energy          =    -365.9855359312815608 [Eh]
	-----------------------------------------------------------

  Dipole Moment: [D]
     X:    -8.2176      Y:    -0.0002      Z:     0.3106     Total:     8.2235

*** Psi4 exiting successfully. Buy a developer a beer!
