                               Psi4 1.4a3.dev225

  ==> Input File <==

--------------------------------------------------------------------------
#psi4
#
memory 32 gb

molecule  {
1 1
  N       -2.8138210    -0.0000810     0.0131690
  C       -1.3233890    -0.0000370    -0.0148680
  C        0.7280520     1.2302730    -0.0129860
  C        0.7281180    -1.2302340    -0.0129780
  C       -0.6725800    -1.2264340    -0.0069900
  C       -0.6726490     1.2263940    -0.0069970
  C        1.3988940     0.0000390    -0.0107890
  C        1.4942690     2.5253230     0.0134310
  C        1.4944180    -2.5252350     0.0134270
  H       -1.2241800    -2.1659650    -0.0138510
  H       -1.2242990     2.1658960    -0.0138630
  H        2.4879510     0.0000680    -0.0240190
  H       -3.1956820     0.8285560    -0.4636260
  H       -3.1214624    -0.6676343    -0.3711950
  H       -3.1827690    -0.0002330     0.9749950
  H        0.8779320     3.3605910    -0.3276200
  H        1.8358100     2.7495590     1.0289260
  H        2.3762850     2.4675780    -0.6290150
  H        2.3762540    -2.4675350    -0.6292720
  H        0.8780380    -3.3605930    -0.3273260
  H        1.8362550    -2.7492930     1.0288600
units angstrom
no_reorient  #important for SAPT in psi4, default
symmetry c1  #important for SAPT in psi4, default
}

set PROPERTIES_ORIGIN ["COM"]
properties('MP2/aug-cc-pvtz', properties = ['dipole'])
--------------------------------------------------------------------------

    Molecular point group: c1
  Charge       = 1
  Multiplicity = 1
  Basis Set: AUG-CC-PVTZ
    Blend: AUG-CC-PVTZ
  Basis Set: (AUG-CC-PVTZ AUX)
    Blend: AUG-CC-PVTZ-JKFIT

    Orbital Energies [Eh]
    ---------------------

    Doubly Occupied:

       1A    -15.873804     2A    -11.460702     3A    -11.396076
       4A    -11.395912     5A    -11.394890     6A    -11.394708
       7A    -11.372821     8A    -11.345737     9A    -11.345539
      10A     -1.545321    11A     -1.313395    12A     -1.206073
      13A     -1.188608    14A     -1.087066    15A     -1.071448
      16A     -1.017147    17A     -0.988450    18A     -0.960868
      19A     -0.918722    20A     -0.859528    21A     -0.822647
      22A     -0.798451    23A     -0.725211    24A     -0.716391
      25A     -0.711694    26A     -0.691003    27A     -0.679868
      28A     -0.657869    29A     -0.642230    30A     -0.636312
      31A     -0.629379    32A     -0.488041    33A     -0.476009

  @DF-RHF Final Energy:  -364.25443163184656

   => Energetics <=

    Nuclear Repulsion Energy =            433.5500043671330559
    One-Electron Energy =               -1339.9850336134757072
    Two-Electron Energy =                 542.1805976144961505
    Total Energy =                       -364.2544316318465007
  Basis Set: (AUG-CC-PVTZ AUX)
    Blend: AUG-CC-PVTZ-RI
    Molecular point group: c1

    Geometry (in Angstrom), charge = 1, multiplicity = 1:

       Center              X                  Y                   Z               Mass
    ------------   -----------------  -----------------  -----------------  -----------------
         N           -2.809113430134    -0.001409355928     0.013543917832    14.003074004430
         C           -1.318681430134    -0.001365355928    -0.014493082168    12.000000000000
         C            0.732759569866     1.228944644072    -0.012611082168    12.000000000000
         C            0.732825569866    -1.231562355928    -0.012603082168    12.000000000000
         C           -0.667872430134    -1.227762355928    -0.006615082168    12.000000000000
         C           -0.667941430134     1.225065644072    -0.006622082168    12.000000000000
         C            1.403601569866    -0.001289355928    -0.010414082168    12.000000000000
         C            1.498976569866     2.523994644072     0.013805917832    12.000000000000
         C            1.499125569866    -2.526563355928     0.013801917832    12.000000000000
         H           -1.219472430134    -2.167293355928    -0.013476082168     1.007825032230
         H           -1.219591430134     2.164567644072    -0.013488082168     1.007825032230
         H            2.492658569866    -0.001260355928    -0.023644082168     1.007825032230
         H           -3.190974430134     0.827227644072    -0.463251082168     1.007825032230
         H           -3.116754830134    -0.668962655928    -0.370820082168     1.007825032230
         H           -3.178061430134    -0.001561355928     0.975369917832     1.007825032230
         H            0.882639569866     3.359262644072    -0.327245082168     1.007825032230
         H            1.840517569866     2.748230644072     1.029300917832     1.007825032230
         H            2.380992569866     2.466249644072    -0.628640082168     1.007825032230
         H            2.380961569866    -2.468863355928    -0.628897082168     1.007825032230
         H            0.882745569866    -3.361921355928    -0.326951082168     1.007825032230
         H            1.840962569866    -2.750621355928     1.029234917832     1.007825032230

  Basis Set: AUG-CC-PVTZ
    Blend: AUG-CC-PVTZ
  Basis Set: (AUG-CC-PVTZ AUX)
    Blend: AUG-CC-PVTZ-JKFIT
	 Reference Energy          =    -364.2544316318465576 [Eh]
	 Singles Energy            =      -0.0000000000000000 [Eh]
	 Same-Spin Energy          =      -0.3961649955648898 [Eh]
	 Opposite-Spin Energy      =      -1.3025362659745059 [Eh]
	 Correlation Energy        =      -1.6987012615393957 [Eh]
	 Total Energy              =    -365.9531328933859413 [Eh]

	 ================> DF-SCS-MP2 Energies <==================
	-----------------------------------------------------------
	 SCS Same-Spin Scale       =       0.3333333333333333 [-]
	 SCS Opposite-Spin Scale   =       1.2000000000000000 [-]
	 SCS Same-Spin Energy      =      -0.1320549985216299 [Eh]
	 SCS Opposite-Spin Energy  =      -1.5630435191694070 [Eh]
	 SCS Correlation Energy    =      -1.6950985176910369 [Eh]
	 SCS Total Energy          =    -365.9495301495376225 [Eh]
	-----------------------------------------------------------

  Dipole Moment: [D]
     X:    -8.2276      Y:     0.1918      Z:     0.2963     Total:     8.2351

*** Psi4 exiting successfully. Buy a developer a beer!
