                               Psi4 1.4a3.dev225

  ==> Input File <==

--------------------------------------------------------------------------
#psi4
#
memory 32 gb

molecule  {
1 1
  N       -2.8138210    -0.0000810     0.0131690
  C       -1.3233890    -0.0000370    -0.0148680
  C        0.7280520     1.2302730    -0.0129860
  C        0.7281180    -1.2302340    -0.0129780
  C       -0.6725800    -1.2264340    -0.0069900
  C       -0.6726490     1.2263940    -0.0069970
  C        1.3988940     0.0000390    -0.0107890
  C        1.4942690     2.5253230     0.0134310
  C        1.4944180    -2.5252350     0.0134270
  H       -1.2241800    -2.1659650    -0.0138510
  H       -1.2242990     2.1658960    -0.0138630
  H        2.4879510     0.0000680    -0.0240190
  H       -3.2300778     0.8446844    -0.4026342
  H       -3.1956410    -0.8285950    -0.4638730
  H       -3.1827690    -0.0002330     0.9749950
  H        0.8779320     3.3605910    -0.3276200
  H        1.8358100     2.7495590     1.0289260
  H        2.3762850     2.4675780    -0.6290150
  H        2.3762540    -2.4675350    -0.6292720
  H        0.8780380    -3.3605930    -0.3273260
  H        1.8362550    -2.7492930     1.0288600
units angstrom
no_reorient  #important for SAPT in psi4, default
symmetry c1  #important for SAPT in psi4, default
}

set PROPERTIES_ORIGIN ["COM"]
properties('MP2/aug-cc-pvtz', properties = ['dipole'])
--------------------------------------------------------------------------

    Molecular point group: c1
  Charge       = 1
  Multiplicity = 1
  Basis Set: AUG-CC-PVTZ
    Blend: AUG-CC-PVTZ
  Basis Set: (AUG-CC-PVTZ AUX)
    Blend: AUG-CC-PVTZ-JKFIT

    Orbital Energies [Eh]
    ---------------------

    Doubly Occupied:

       1A    -15.888829     2A    -11.459328     3A    -11.394872
       4A    -11.394695     5A    -11.393595     6A    -11.393384
       7A    -11.371441     8A    -11.344951     9A    -11.344885
      10A     -1.502619    11A     -1.309368    12A     -1.204787
      13A     -1.182485    14A     -1.083091    15A     -1.070336
      16A     -0.990117    17A     -0.967933    18A     -0.943264
      19A     -0.908845    20A     -0.856568    21A     -0.820851
      22A     -0.795173    23A     -0.724066    24A     -0.715339
      25A     -0.710622    26A     -0.690266    27A     -0.679035
      28A     -0.656858    29A     -0.641123    30A     -0.634428
      31A     -0.628437    32A     -0.486248    33A     -0.474927

  @DF-RHF Final Energy:  -364.29376377194535

   => Energetics <=

    Nuclear Repulsion Energy =            432.2812889293119838
    One-Electron Energy =               -1337.8245713076980792
    Two-Electron Energy =                 541.2495186064406880
    Total Energy =                       -364.2937637719453505
  Basis Set: (AUG-CC-PVTZ AUX)
    Blend: AUG-CC-PVTZ-RI
    Molecular point group: c1

    Geometry (in Angstrom), charge = 1, multiplicity = 1:

       Center              X                  Y                   Z               Mass
    ------------   -----------------  -----------------  -----------------  -----------------
         N           -2.808217224485    -0.000213866702     0.013805465226    14.003074004430
         C           -1.317785224485    -0.000169866702    -0.014231534774    12.000000000000
         C            0.733655775515     1.230140133298    -0.012349534774    12.000000000000
         C            0.733721775515    -1.230366866702    -0.012341534774    12.000000000000
         C           -0.666976224485    -1.226566866702    -0.006353534774    12.000000000000
         C           -0.667045224485     1.226261133298    -0.006360534774    12.000000000000
         C            1.404497775515    -0.000093866702    -0.010152534774    12.000000000000
         C            1.499872775515     2.525190133298     0.014067465226    12.000000000000
         C            1.500021775515    -2.525367866702     0.014063465226    12.000000000000
         H           -1.218576224485    -2.166097866702    -0.013214534774     1.007825032230
         H           -1.218695224485     2.165763133298    -0.013226534774     1.007825032230
         H            2.493554775515    -0.000064866702    -0.023382534774     1.007825032230
         H           -3.224474024485     0.844551533298    -0.401997734774     1.007825032230
         H           -3.190037224485    -0.828727866702    -0.463236534774     1.007825032230
         H           -3.177165224485    -0.000365866702     0.975631465226     1.007825032230
         H            0.883535775515     3.360458133298    -0.326983534774     1.007825032230
         H            1.841413775515     2.749426133298     1.029562465226     1.007825032230
         H            2.381888775515     2.467445133298    -0.628378534774     1.007825032230
         H            2.381857775515    -2.467667866702    -0.628635534774     1.007825032230
         H            0.883641775515    -3.360725866702    -0.326689534774     1.007825032230
         H            1.841858775515    -2.749425866702     1.029496465226     1.007825032230

  Basis Set: AUG-CC-PVTZ
    Blend: AUG-CC-PVTZ
  Basis Set: (AUG-CC-PVTZ AUX)
    Blend: AUG-CC-PVTZ-JKFIT
	 Reference Energy          =    -364.2937637719453505 [Eh]
	 Singles Energy            =      -0.0000000000000000 [Eh]
	 Same-Spin Energy          =      -0.3971642095403993 [Eh]
	 Opposite-Spin Energy      =      -1.3052816533394056 [Eh]
	 Correlation Energy        =      -1.7024458628798049 [Eh]
	 Total Energy              =    -365.9962096348251634 [Eh]

	 ================> DF-SCS-MP2 Energies <==================
	-----------------------------------------------------------
	 SCS Same-Spin Scale       =       0.3333333333333333 [-]
	 SCS Opposite-Spin Scale   =       1.2000000000000000 [-]
	 SCS Same-Spin Energy      =      -0.1323880698467998 [Eh]
	 SCS Opposite-Spin Energy  =      -1.5663379840072866 [Eh]
	 SCS Correlation Energy    =      -1.6987260538540865 [Eh]
	 SCS Total Energy          =    -365.9924898257994528 [Eh]
	-----------------------------------------------------------

  Dipole Moment: [D]
     X:    -8.4024      Y:     0.0207      Z:     0.2302     Total:     8.4056

*** Psi4 exiting successfully. Buy a developer a beer!
