                               Psi4 1.4a3.dev225

  ==> Input File <==

--------------------------------------------------------------------------
#psi4
#
memory 32 gb

molecule  {
1 1
  N       -2.8138210    -0.0000810     0.0131690
  C       -1.3233890    -0.0000370    -0.0148680
  C        0.7280520     1.2302730    -0.0129860
  C        0.7281180    -1.2302340    -0.0129780
  C       -0.6725800    -1.2264340    -0.0069900
  C       -0.6726490     1.2263940    -0.0069970
  C        1.3988940     0.0000390    -0.0107890
  C        1.4942690     2.5253230     0.0134310
  C        1.4944180    -2.5252350     0.0134270
  H       -1.2241800    -2.1659650    -0.0138510
  H       -1.2242990     2.1658960    -0.0138630
  H        2.4879510     0.0000680    -0.0240190
  H       -3.2698686     0.9895406    -0.5562560
  H       -3.1956410    -0.8285950    -0.4638730
  H       -3.1827690    -0.0002330     0.9749950
  H        0.8779320     3.3605910    -0.3276200
  H        1.8358100     2.7495590     1.0289260
  H        2.3762850     2.4675780    -0.6290150
  H        2.3762540    -2.4675350    -0.6292720
  H        0.8780380    -3.3605930    -0.3273260
  H        1.8362550    -2.7492930     1.0288600
units angstrom
no_reorient  #important for SAPT in psi4, default
symmetry c1  #important for SAPT in psi4, default
}

set PROPERTIES_ORIGIN ["COM"]
properties('MP2/aug-cc-pvtz', properties = ['dipole'])
--------------------------------------------------------------------------

    Molecular point group: c1
  Charge       = 1
  Multiplicity = 1
  Basis Set: AUG-CC-PVTZ
    Blend: AUG-CC-PVTZ
  Basis Set: (AUG-CC-PVTZ AUX)
    Blend: AUG-CC-PVTZ-JKFIT

    Orbital Energies [Eh]
    ---------------------

    Doubly Occupied:

       1A    -15.896848     2A    -11.457105     3A    -11.393727
       4A    -11.393589     5A    -11.392294     6A    -11.391911
       7A    -11.370254     8A    -11.344374     9A    -11.344164
      10A     -1.477951    11A     -1.306020    12A     -1.203632
      13A     -1.177689    14A     -1.080748    15A     -1.069389
      16A     -0.984438    17A     -0.953857    18A     -0.930101
      19A     -0.878817    20A     -0.849972    21A     -0.817705
      22A     -0.788422    23A     -0.722866    24A     -0.714262
      25A     -0.709627    26A     -0.689605    27A     -0.678278
      28A     -0.655715    29A     -0.639960    30A     -0.632667
      31A     -0.627529    32A     -0.484667    33A     -0.473886

  @DF-RHF Final Energy:  -364.26672597927922

   => Energetics <=

    Nuclear Repulsion Energy =            431.4227122265062917
    One-Electron Energy =               -1336.3147348018601406
    Two-Electron Energy =                 540.6252965960745769
    Total Energy =                       -364.2667259792792720
  Basis Set: (AUG-CC-PVTZ AUX)
    Blend: AUG-CC-PVTZ-RI
    Molecular point group: c1

    Geometry (in Angstrom), charge = 1, multiplicity = 1:

       Center              X                  Y                   Z               Mass
    ------------   -----------------  -----------------  -----------------  -----------------
         N           -2.807888779292    -0.001409553206     0.015073505620    14.003074004430
         C           -1.317456779292    -0.001365553206    -0.012963494380    12.000000000000
         C            0.733984220708     1.228944446794    -0.011081494380    12.000000000000
         C            0.734050220708    -1.231562553206    -0.011073494380    12.000000000000
         C           -0.666647779292    -1.227762553206    -0.005085494380    12.000000000000
         C           -0.666716779292     1.225065446794    -0.005092494380    12.000000000000
         C            1.404826220708    -0.001289553206    -0.008884494380    12.000000000000
         C            1.500201220708     2.523994446794     0.015335505620    12.000000000000
         C            1.500350220708    -2.526563553206     0.015331505620    12.000000000000
         H           -1.218247779292    -2.167293553206    -0.011946494380     1.007825032230
         H           -1.218366779292     2.164567446794    -0.011958494380     1.007825032230
         H            2.493883220708    -0.001260553206    -0.022114494380     1.007825032230
         H           -3.263936379292     0.988212046794    -0.554351494380     1.007825032230
         H           -3.189708779292    -0.829923553206    -0.461968494380     1.007825032230
         H           -3.176836779292    -0.001561553206     0.976899505620     1.007825032230
         H            0.883864220708     3.359262446794    -0.325715494380     1.007825032230
         H            1.841742220708     2.748230446794     1.030830505620     1.007825032230
         H            2.382217220708     2.466249446794    -0.627110494380     1.007825032230
         H            2.382186220708    -2.468863553206    -0.627367494380     1.007825032230
         H            0.883970220708    -3.361921553206    -0.325421494380     1.007825032230
         H            1.842187220708    -2.750621553206     1.030764505620     1.007825032230

  Basis Set: AUG-CC-PVTZ
    Blend: AUG-CC-PVTZ
  Basis Set: (AUG-CC-PVTZ AUX)
    Blend: AUG-CC-PVTZ-JKFIT
	 Reference Energy          =    -364.2667259792792152 [Eh]
	 Singles Energy            =      -0.0000000000000000 [Eh]
	 Same-Spin Energy          =      -0.3984536608991113 [Eh]
	 Opposite-Spin Energy      =      -1.3092964739318713 [Eh]
	 Correlation Energy        =      -1.7077501348309827 [Eh]
	 Total Energy              =    -365.9744761141101890 [Eh]

	 ================> DF-SCS-MP2 Energies <==================
	-----------------------------------------------------------
	 SCS Same-Spin Scale       =       0.3333333333333333 [-]
	 SCS Opposite-Spin Scale   =       1.2000000000000000 [-]
	 SCS Same-Spin Energy      =      -0.1328178869663704 [Eh]
	 SCS Opposite-Spin Energy  =      -1.5711557687182456 [Eh]
	 SCS Correlation Energy    =      -1.7039736556846159 [Eh]
	 SCS Total Energy          =    -365.9706996349638075 [Eh]
	-----------------------------------------------------------

  Dipole Moment: [D]
     X:    -8.5009      Y:     0.2187      Z:     0.0278     Total:     8.5038

*** Psi4 exiting successfully. Buy a developer a beer!
