                               Psi4 1.4a3.dev225

  ==> Input File <==

--------------------------------------------------------------------------
#psi4
#
memory 32 gb

molecule  {
1 1
  N       -2.8138210    -0.0000810     0.0131690
  C       -1.3233890    -0.0000370    -0.0148680
  C        0.7280520     1.2302730    -0.0129860
  C        0.7281180    -1.2302340    -0.0129780
  C       -0.6725800    -1.2264340    -0.0069900
  C       -0.6726490     1.2263940    -0.0069970
  C        1.3988940     0.0000390    -0.0107890
  C        1.4942690     2.5253230     0.0134310
  C        1.4944180    -2.5252350     0.0134270
  H       -1.1735517    -2.0797306    -0.0132213
  H       -1.2242990     2.1658960    -0.0138630
  H        2.4879510     0.0000680    -0.0240190
  H       -3.1956820     0.8285560    -0.4636260
  H       -3.1956410    -0.8285950    -0.4638730
  H       -3.1827690    -0.0002330     0.9749950
  H        0.8779320     3.3605910    -0.3276200
  H        1.8358100     2.7495590     1.0289260
  H        2.3762850     2.4675780    -0.6290150
  H        2.3762540    -2.4675350    -0.6292720
  H        0.8780380    -3.3605930    -0.3273260
  H        1.8362550    -2.7492930     1.0288600
units angstrom
no_reorient  #important for SAPT in psi4, default
symmetry c1  #important for SAPT in psi4, default
}

set PROPERTIES_ORIGIN ["COM"]
properties('MP2/aug-cc-pvtz', properties = ['dipole'])
--------------------------------------------------------------------------

    Molecular point group: c1
  Charge       = 1
  Multiplicity = 1
  Basis Set: AUG-CC-PVTZ
    Blend: AUG-CC-PVTZ
  Basis Set: (AUG-CC-PVTZ AUX)
    Blend: AUG-CC-PVTZ-JKFIT

    Orbital Energies [Eh]
    ---------------------

    Doubly Occupied:

       1A    -15.889027     2A    -11.458297     3A    -11.394590
       4A    -11.393785     5A    -11.393108     6A    -11.382286
       7A    -11.370909     8A    -11.344971     9A    -11.344828
      10A     -1.502895    11A     -1.309617    12A     -1.206801
      13A     -1.182382    14A     -1.086674    15A     -1.070570
      16A     -0.990580    17A     -0.966256    18A     -0.949992
      19A     -0.911669    20A     -0.863118    21A     -0.826117
      22A     -0.794623    23A     -0.732801    24A     -0.715910
      25A     -0.710522    26A     -0.690265    27A     -0.679631
      28A     -0.657115    29A     -0.640927    30A     -0.634299
      31A     -0.628921    32A     -0.486029    33A     -0.474774

  @DF-RHF Final Energy:  -364.28874084524364

   => Energetics <=

    Nuclear Repulsion Energy =            432.8847126051094278
    One-Electron Energy =               -1338.9783346560900554
    Two-Electron Energy =                 541.8048812057370469
    Total Energy =                       -364.2887408452436375
  Basis Set: (AUG-CC-PVTZ AUX)
    Blend: AUG-CC-PVTZ-RI
    Molecular point group: c1

    Geometry (in Angstrom), charge = 1, multiplicity = 1:

       Center              X                  Y                   Z               Mass
    ------------   -----------------  -----------------  -----------------  -----------------
         N           -2.808919038897    -0.000792542644     0.014303712097    14.003074004430
         C           -1.318487038897    -0.000748542644    -0.013733287903    12.000000000000
         C            0.732953961103     1.229561457356    -0.011851287903    12.000000000000
         C            0.733019961103    -1.230945542644    -0.011843287903    12.000000000000
         C           -0.667678038897    -1.227145542644    -0.005855287903    12.000000000000
         C           -0.667747038897     1.225682457356    -0.005862287903    12.000000000000
         C            1.403795961103    -0.000672542644    -0.009654287903    12.000000000000
         C            1.499170961103     2.524611457356     0.014565712097    12.000000000000
         C            1.499319961103    -2.525946542644     0.014561712097    12.000000000000
         H           -1.168649738897    -2.080442142644    -0.012086587903     1.007825032230
         H           -1.219397038897     2.165184457356    -0.012728287903     1.007825032230
         H            2.492852961103    -0.000643542644    -0.022884287903     1.007825032230
         H           -3.190780038897     0.827844457356    -0.462491287903     1.007825032230
         H           -3.190739038897    -0.829306542644    -0.462738287903     1.007825032230
         H           -3.177867038897    -0.000944542644     0.976129712097     1.007825032230
         H            0.882833961103     3.359879457356    -0.326485287903     1.007825032230
         H            1.840711961103     2.748847457356     1.030060712097     1.007825032230
         H            2.381186961103     2.466866457356    -0.627880287903     1.007825032230
         H            2.381155961103    -2.468246542644    -0.628137287903     1.007825032230
         H            0.882939961103    -3.361304542644    -0.326191287903     1.007825032230
         H            1.841156961103    -2.750004542644     1.029994712097     1.007825032230

  Basis Set: AUG-CC-PVTZ
    Blend: AUG-CC-PVTZ
  Basis Set: (AUG-CC-PVTZ AUX)
    Blend: AUG-CC-PVTZ-JKFIT
	 Reference Energy          =    -364.2887408452436375 [Eh]
	 Singles Energy            =      -0.0000000000000000 [Eh]
	 Same-Spin Energy          =      -0.3969336756645603 [Eh]
	 Opposite-Spin Energy      =      -1.3047374482837293 [Eh]
	 Correlation Energy        =      -1.7016711239482896 [Eh]
	 Total Energy              =    -365.9904119691919391 [Eh]

	 ================> DF-SCS-MP2 Energies <==================
	-----------------------------------------------------------
	 SCS Same-Spin Scale       =       0.3333333333333333 [-]
	 SCS Opposite-Spin Scale   =       1.2000000000000000 [-]
	 SCS Same-Spin Energy      =      -0.1323112252215201 [Eh]
	 SCS Opposite-Spin Energy  =      -1.5656849379404751 [Eh]
	 SCS Correlation Energy    =      -1.6979961631619953 [Eh]
	 SCS Total Energy          =    -365.9867370084056120 [Eh]
	-----------------------------------------------------------

  Dipole Moment: [D]
     X:    -8.3862      Y:     0.0020      Z:     0.1690     Total:     8.3879

*** Psi4 exiting successfully. Buy a developer a beer!
