                               Psi4 1.4a3.dev225

  ==> Input File <==

--------------------------------------------------------------------------
#psi4
#
memory 32 gb

molecule  {
1 1
  N       -2.8138210    -0.0000810     0.0131690
  C       -1.3233890    -0.0000370    -0.0148680
  C        0.7280520     1.2302730    -0.0129860
  C        0.7281180    -1.2302340    -0.0129780
  C       -0.6725800    -1.2264340    -0.0069900
  C       -0.6726490     1.2263940    -0.0069970
  C        1.3988940     0.0000390    -0.0107890
  C        1.4942690     2.5253230     0.0134310
  C        1.4944180    -2.5252350     0.0134270
  H       -1.2241800    -2.1659650    -0.0138510
  H       -1.2242990     2.1658960    -0.0138630
  H        2.4879510     0.0000680    -0.0240190
  H       -3.1956820     0.8285560    -0.4636260
  H       -3.1956410    -0.8285950    -0.4638730
  H       -3.1827690    -0.0002330     0.9749950
  H        0.8727852     3.3423983    -0.3607421
  H        1.8358100     2.7495590     1.0289260
  H        2.3762850     2.4675780    -0.6290150
  H        2.3762540    -2.4675350    -0.6292720
  H        0.8780380    -3.3605930    -0.3273260
  H        1.8362550    -2.7492930     1.0288600
units angstrom
no_reorient  #important for SAPT in psi4, default
symmetry c1  #important for SAPT in psi4, default
}

set PROPERTIES_ORIGIN ["COM"]
properties('MP2/aug-cc-pvtz', properties = ['dipole'])
--------------------------------------------------------------------------

    Molecular point group: c1
  Charge       = 1
  Multiplicity = 1
  Basis Set: AUG-CC-PVTZ
    Blend: AUG-CC-PVTZ
  Basis Set: (AUG-CC-PVTZ AUX)
    Blend: AUG-CC-PVTZ-JKFIT

    Orbital Energies [Eh]
    ---------------------

    Doubly Occupied:

       1A    -15.888710     2A    -11.458915     3A    -11.394776
       4A    -11.394629     5A    -11.393475     6A    -11.393404
       7A    -11.371412     8A    -11.345041     9A    -11.344947
      10A     -1.502550    11A     -1.309226    12A     -1.204917
      13A     -1.182052    14A     -1.083099    15A     -1.070388
      16A     -0.988838    17A     -0.965942    18A     -0.949666
      19A     -0.907640    20A     -0.855896    21A     -0.820446
      22A     -0.794891    23A     -0.723883    24A     -0.714824
      25A     -0.711588    26A     -0.691560    27A     -0.678271
      28A     -0.657027    29A     -0.641180    30A     -0.635053
      31A     -0.627349    32A     -0.486440    33A     -0.475068

  @DF-RHF Final Energy:  -364.29422661738170

   => Energetics <=

    Nuclear Repulsion Energy =            432.3682370379474378
    One-Electron Energy =               -1337.9987258143139570
    Two-Electron Energy =                 541.3362621589848231
    Total Energy =                       -364.2942266173816961
  Basis Set: (AUG-CC-PVTZ AUX)
    Blend: AUG-CC-PVTZ-RI
    Molecular point group: c1

    Geometry (in Angstrom), charge = 1, multiplicity = 1:

       Center              X                  Y                   Z               Mass
    ------------   -----------------  -----------------  -----------------  -----------------
         N           -2.808458654500     0.000069429947     0.014582309573    14.003074004430
         C           -1.318026654500     0.000113429947    -0.013454690427    12.000000000000
         C            0.733414345500     1.230423429947    -0.011572690427    12.000000000000
         C            0.733480345500    -1.230083570053    -0.011564690427    12.000000000000
         C           -0.667217654500    -1.226283570053    -0.005576690427    12.000000000000
         C           -0.667286654500     1.226544429947    -0.005583690427    12.000000000000
         C            1.404256345500     0.000189429947    -0.009375690427    12.000000000000
         C            1.499631345500     2.525473429947     0.014844309573    12.000000000000
         C            1.499780345500    -2.525084570053     0.014840309573    12.000000000000
         H           -1.218817654500    -2.165814570053    -0.012437690427     1.007825032230
         H           -1.218936654500     2.166046429947    -0.012449690427     1.007825032230
         H            2.493313345500     0.000218429947    -0.022605690427     1.007825032230
         H           -3.190319654500     0.828706429947    -0.462212690427     1.007825032230
         H           -3.190278654500    -0.828444570053    -0.462459690427     1.007825032230
         H           -3.177406654500    -0.000082570053     0.976408309573     1.007825032230
         H            0.878147545500     3.342548729947    -0.359328790427     1.007825032230
         H            1.841172345500     2.749709429947     1.030339309573     1.007825032230
         H            2.381647345500     2.467728429947    -0.627601690427     1.007825032230
         H            2.381616345500    -2.467384570053    -0.627858690427     1.007825032230
         H            0.883400345500    -3.360442570053    -0.325912690427     1.007825032230
         H            1.841617345500    -2.749142570053     1.030273309573     1.007825032230

  Basis Set: AUG-CC-PVTZ
    Blend: AUG-CC-PVTZ
  Basis Set: (AUG-CC-PVTZ AUX)
    Blend: AUG-CC-PVTZ-JKFIT
	 Reference Energy          =    -364.2942266173816961 [Eh]
	 Singles Energy            =      -0.0000000000000000 [Eh]
	 Same-Spin Energy          =      -0.3971661970418425 [Eh]
	 Opposite-Spin Energy      =      -1.3053393061473280 [Eh]
	 Correlation Energy        =      -1.7025055031891705 [Eh]
	 Total Energy              =    -365.9967321205708686 [Eh]

	 ================> DF-SCS-MP2 Energies <==================
	-----------------------------------------------------------
	 SCS Same-Spin Scale       =       0.3333333333333333 [-]
	 SCS Opposite-Spin Scale   =       1.2000000000000000 [-]
	 SCS Same-Spin Energy      =      -0.1323887323472808 [Eh]
	 SCS Opposite-Spin Energy  =      -1.5664071673767934 [Eh]
	 SCS Correlation Energy    =      -1.6987958997240742 [Eh]
	 SCS Total Energy          =    -365.9930225171057714 [Eh]
	-----------------------------------------------------------

  Dipole Moment: [D]
     X:    -8.3633      Y:    -0.0081      Z:     0.1601     Total:     8.3649

*** Psi4 exiting successfully. Buy a developer a beer!
