                               Psi4 1.4a3.dev225

  ==> Input File <==

--------------------------------------------------------------------------
#psi4
#
memory 32 gb

molecule  {
1 1
  N       -2.8138210    -0.0000810     0.0131690
  C       -1.3289754    -0.0000218    -0.1187670
  C        0.7280520     1.2302730    -0.0129860
  C        0.7281180    -1.2302340    -0.0129780
  C       -0.6725800    -1.2264340    -0.0069900
  C       -0.6726490     1.2263940    -0.0069970
  C        1.3988940     0.0000390    -0.0107890
  C        1.4942690     2.5253230     0.0134310
  C        1.4944180    -2.5252350     0.0134270
  H       -1.2241800    -2.1659650    -0.0138510
  H       -1.2242990     2.1658960    -0.0138630
  H        2.4879510     0.0000680    -0.0240190
  H       -3.1956820     0.8285560    -0.4636260
  H       -3.1956410    -0.8285950    -0.4638730
  H       -3.1827690    -0.0002330     0.9749950
  H        0.8779320     3.3605910    -0.3276200
  H        1.8358100     2.7495590     1.0289260
  H        2.3762850     2.4675780    -0.6290150
  H        2.3762540    -2.4675350    -0.6292720
  H        0.8780380    -3.3605930    -0.3273260
  H        1.8362550    -2.7492930     1.0288600
units angstrom
no_reorient  #important for SAPT in psi4, default
symmetry c1  #important for SAPT in psi4, default
}

set PROPERTIES_ORIGIN ["COM"]
properties('MP2/aug-cc-pvtz', properties = ['dipole'])
--------------------------------------------------------------------------

    Molecular point group: c1
  Charge       = 1
  Multiplicity = 1
  Basis Set: AUG-CC-PVTZ
    Blend: AUG-CC-PVTZ
  Basis Set: (AUG-CC-PVTZ AUX)
    Blend: AUG-CC-PVTZ-JKFIT

    Orbital Energies [Eh]
    ---------------------

    Doubly Occupied:

       1A    -15.887904     2A    -11.459141     3A    -11.395814
       4A    -11.395779     5A    -11.394261     6A    -11.394231
       7A    -11.373255     8A    -11.345143     9A    -11.345143
      10A     -1.501687    11A     -1.308454    12A     -1.204794
      13A     -1.181331    14A     -1.082197    15A     -1.070749
      16A     -0.989604    17A     -0.965783    18A     -0.948110
      19A     -0.907507    20A     -0.854061    21A     -0.820999
      22A     -0.793215    23A     -0.723433    24A     -0.716191
      25A     -0.710125    26A     -0.690591    27A     -0.679501
      28A     -0.656720    29A     -0.642716    30A     -0.632673
      31A     -0.628586    32A     -0.486971    33A     -0.474571

  @DF-RHF Final Energy:  -364.28995955717699

   => Energetics <=

    Nuclear Repulsion Energy =            432.1067677140468390
    One-Electron Energy =               -1337.4709759068330186
    Two-Electron Energy =                 541.0742486356092513
    Total Energy =                       -364.2899595571769851
  Basis Set: (AUG-CC-PVTZ AUX)
    Blend: AUG-CC-PVTZ-RI
    Molecular point group: c1

    Geometry (in Angstrom), charge = 1, multiplicity = 1:

       Center              X                  Y                   Z               Mass
    ------------   -----------------  -----------------  -----------------  -----------------
         N           -2.807952092184    -0.000082231947     0.024520366798    14.003074004430
         C           -1.323106492184    -0.000023031947    -0.107415633202    12.000000000000
         C            0.733920907816     1.230271768053    -0.001634633202    12.000000000000
         C            0.733986907816    -1.230235231947    -0.001626633202    12.000000000000
         C           -0.666711092184    -1.226435231947     0.004361366798    12.000000000000
         C           -0.666780092184     1.226392768053     0.004354366798    12.000000000000
         C            1.404762907816     0.000037768053     0.000562366798    12.000000000000
         C            1.500137907816     2.525321768053     0.024782366798    12.000000000000
         C            1.500286907816    -2.525236231947     0.024778366798    12.000000000000
         H           -1.218311092184    -2.165966231947    -0.002499633202     1.007825032230
         H           -1.218430092184     2.165894768053    -0.002511633202     1.007825032230
         H            2.493819907816     0.000066768053    -0.012667633202     1.007825032230
         H           -3.189813092184     0.828554768053    -0.452274633202     1.007825032230
         H           -3.189772092184    -0.828596231947    -0.452521633202     1.007825032230
         H           -3.176900092184    -0.000234231947     0.986346366798     1.007825032230
         H            0.883800907816     3.360589768053    -0.316268633202     1.007825032230
         H            1.841678907816     2.749557768053     1.040277366798     1.007825032230
         H            2.382153907816     2.467576768053    -0.617663633202     1.007825032230
         H            2.382122907816    -2.467536231947    -0.617920633202     1.007825032230
         H            0.883906907816    -3.360594231947    -0.315974633202     1.007825032230
         H            1.842123907816    -2.749294231947     1.040211366798     1.007825032230

  Basis Set: AUG-CC-PVTZ
    Blend: AUG-CC-PVTZ
  Basis Set: (AUG-CC-PVTZ AUX)
    Blend: AUG-CC-PVTZ-JKFIT
	 Reference Energy          =    -364.2899595571769851 [Eh]
	 Singles Energy            =      -0.0000000000000000 [Eh]
	 Same-Spin Energy          =      -0.3973863312738903 [Eh]
	 Opposite-Spin Energy      =      -1.3059727431562593 [Eh]
	 Correlation Energy        =      -1.7033590744301497 [Eh]
	 Total Energy              =    -365.9933186316071101 [Eh]

	 ================> DF-SCS-MP2 Energies <==================
	-----------------------------------------------------------
	 SCS Same-Spin Scale       =       0.3333333333333333 [-]
	 SCS Opposite-Spin Scale   =       1.2000000000000000 [-]
	 SCS Same-Spin Energy      =      -0.1324621104246301 [Eh]
	 SCS Opposite-Spin Energy  =      -1.5671672917875112 [Eh]
	 SCS Correlation Energy    =      -1.6996294022121414 [Eh]
	 SCS Total Energy          =    -365.9895889593891525 [Eh]
	-----------------------------------------------------------

  Dipole Moment: [D]
     X:    -8.2872      Y:    -0.0002      Z:     0.2625     Total:     8.2913

*** Psi4 exiting successfully. Buy a developer a beer!
